Control file title. For DL_FIELD 4.10
49796
    1MOL     C1    1   7.272   2.467   2.166 -0.2899  0.2385  0.0137
    1MOL     C2    2   7.160   2.379   2.108  0.2511 -0.2793  0.3015
    1MOL     C3    3   7.145   2.251   2.182  0.8681 -0.3068  0.3175
    1MOL     O4    4   7.081   2.242   2.285 -0.4379 -0.0684 -0.5382
    1MOL     O5    5   7.210   2.156   2.118  0.0237 -0.3262  0.3258
    1MOL     C6    6   7.196   2.026   2.162  0.3764  0.1478  0.0794
    1MOL     C7    7   7.102   1.944   2.078  0.0653  0.5933 -0.4298
    1MOL     C8    8   7.075   1.803   2.141  0.0634  0.6083 -0.2880
    1MOL     C9    9   7.004   1.699   2.057 -0.8272  0.3117  0.1010
    1MOL    H10   10   7.272   2.564   2.116  0.2408 -0.6521 -1.7265
    1MOL    H11   11   7.264   2.475   2.275 -1.3450  0.4131 -0.0724
    1MOL    H12   12   7.183   2.361   2.003 -2.5247  2.2571 -0.7963
    1MOL    H13   13   7.158   2.021   2.264 -0.6464  0.4759 -0.2864
    1MOL    H14   14   7.292   1.975   2.170  0.3488  0.1856  0.7421
    1MOL    H15   15   7.011   2.004   2.082 -0.7846 -0.7906  2.1931
    1MOL    H16   16   7.137   1.932   1.976  1.2419 -1.1329  0.1562
    1MOL    H17   17   7.024   1.823   2.235 -0.4100  1.8641 -0.8058
    1MOL    H18   18   7.165   1.758   2.184  0.3113  2.7806  1.5847
    1MOL    H19   19   7.043   1.709   1.955  1.3528  1.8857  1.0584
    1MOL    H20   20   6.896   1.714   2.058 -0.9401 -0.4611 -0.1196
    1MOL    H21   21   7.016   1.598   2.095 -1.7610 -0.2914 -1.1282
    1MOL    H22   22   7.370   2.424   2.145 -1.2354 -0.8520 -2.2639
    1MOL    C23   23   7.031   2.473   2.098  0.6718  0.5885  0.3873
    1MOL    C24   24   6.901   2.411   2.038  0.6784  0.6190 -0.5175
    1MOL    C25   25   6.804   2.367   2.150 -0.5535 -0.4688 -0.8372
    1MOL    O26   26   6.753   2.447   2.222  0.3392  0.0313  0.4429
    1MOL    O27   27   6.780   2.244   2.143  0.3445  0.1075  0.5086
    1MOL    C28   28   6.698   2.176   2.226  0.7261  0.0126  0.3028
    1MOL    C29   29   6.672   2.040   2.173  0.1563 -0.0916 -0.2673
    1MOL    C30   30   6.577   1.963   2.265 -0.2454 -0.1632 -0.7214
    1MOL    C31   31   6.566   1.808   2.231 -0.3350  0.4086  0.6337
    1MOL    H32   32   7.062   2.563   2.045 -0.3340  0.0291 -1.1536
    1MOL    H33   33   7.023   2.507   2.202  0.8419  3.0750 -0.3719
    1MOL    H34   34   6.929   2.317   1.991  0.1971  0.7212 -1.0242
    1MOL    H35   35   6.610   2.235   2.254  0.1990 -1.7387  2.4627
    1MOL    H36   36   6.744   2.166   2.324 -1.6234 -0.5905  1.3981
    1MOL    H37   37   6.638   2.053   2.070  3.3123  0.3605 -1.3013
    1MOL    H38   38   6.772   1.998   2.180  0.9097  2.0455  2.4965
    1MOL    H39   39   6.483   2.018   2.257 -0.1179  0.3195  0.9580
    1MOL    H40   40   6.606   1.986   2.367 -0.7212 -1.2702 -0.3212
    1MOL    H41   41   6.501   1.753   2.300  1.3457 -1.1836  1.0066
    1MOL    H42   42   6.662   1.758   2.243 -0.4252  0.1002  0.0790
    1MOL    H43   43   6.547   1.784   2.127 -0.1962 -3.1673  1.3483
    1MOL    C44   44   6.836   2.501   1.925 -0.4627  0.0561 -0.5182
    1MOL    C45   45   6.701   2.455   1.870  0.2064  0.5358  0.3381
    1MOL    C46   46   6.631   2.576   1.797 -0.1474  0.1702 -0.0180
    1MOL    O47   47   6.532   2.636   1.841  0.4858  0.0629  0.7238
    1MOL    O48   48   6.693   2.610   1.686  0.5542 -0.1627  0.6279
    1MOL    C49   49   6.627   2.698   1.593 -0.0572  0.1210  0.0127
    1MOL    C50   50   6.536   2.615   1.498  0.1018  0.5476  0.0348
    1MOL    C51   51   6.616   2.513   1.415 -0.7236  0.3007 -0.7111
    1MOL    C52   52   6.531   2.425   1.327  0.9000  0.1847 -0.1397
    1MOL    H53   53   6.917   2.508   1.853 -1.3065  2.5472 -1.2825
    1MOL    H54   54   6.817   2.600   1.968 -2.2692 -0.0611 -0.9847
    1MOL    H55   55   6.643   2.422   1.956  1.3093 -0.6896  0.6295
    1MOL    H56   56   6.697   2.768   1.548  0.2039 -1.4484 -2.0733
    1MOL    H57   57   6.561   2.757   1.657  0.5511 -0.3903  1.1198
    1MOL    H58   58   6.451   2.573   1.551  0.7967  2.0512  2.4375
    1MOL    H59   59   6.493   2.686   1.428  1.5538 -0.6010 -2.0857
    1MOL    H60   60   6.675   2.450   1.483 -2.2933 -2.0947 -1.4960
    1MOL    H61   61   6.687   2.564   1.350 -0.4822  0.0428 -0.6533
    1MOL    H62   62   6.479   2.347   1.383  0.4040 -0.9091 -2.1087
    1MOL    H63   63   6.595   2.378   1.253  3.7950 -0.2493  2.5592
    1MOL    H64   64   6.443   2.469   1.281 -1.0702 -2.4373  0.9909
    1MOL    C65   65   6.707   2.337   1.770  0.2102 -0.4975  0.1869
    1MOL    C66   66   6.570   2.278   1.719 -0.1497  0.2474 -1.3952
    1MOL    C67   67   6.595   2.168   1.613  0.5276 -0.5811 -0.8321
    1MOL    O68   68   6.692   2.092   1.619  0.2710 -0.4335 -0.4469
    1MOL    O69   69   6.495   2.160   1.529 -0.0371 -0.2188 -0.0315
    1MOL    C70   70   6.487   2.047   1.440 -0.3421 -0.1503 -0.4936
    1MOL    C71   71   6.388   1.942   1.484  0.3567 -0.1461 -0.4491
    1MOL    C72   72   6.374   1.821   1.387 -0.3500  0.7377 -0.8471
    1MOL    C73   73   6.302   1.707   1.466 -0.0766  0.0146  0.3807
    1MOL    H74   74   6.749   2.252   1.826  0.1557 -0.1487  0.7644
    1MOL    H75   75   6.781   2.353   1.692 -1.3969  0.0995 -1.2368
    1MOL    H76   76   6.513   2.353   1.664 -1.4111  1.4353  1.4020
    1MOL    H77   77   6.589   2.007   1.441  0.4478  1.8211 -0.8430
    1MOL    H78   78   6.470   2.081   1.338  0.7680  1.3783 -0.1896
    1MOL    H79   79   6.407   1.904   1.585 -2.9362 -0.4914  0.1065
    1MOL    H80   80   6.292   1.993   1.494  0.8569  0.5090  1.4033
    1MOL    H81   81   6.476   1.794   1.362 -0.4586  0.3770 -0.9145
    1MOL    H82   82   6.322   1.832   1.292 -1.3080 -0.9441 -0.5467
    1MOL    H83   83   6.349   1.693   1.563  0.2178 -2.3906 -0.0739
    1MOL    H84   84   6.320   1.616   1.408  1.0990 -0.2653  1.1748
    1MOL    H85   85   6.194   1.726   1.465 -0.0202  0.4498 -1.8531
    1MOL    C86   86   6.481   2.233   1.843  0.4938  0.1517 -0.2817
    1MOL    C87   87   6.363   2.329   1.889 -0.1398 -0.3712 -0.0806
    1MOL    C88   88   6.254   2.348   1.772 -0.2320 -0.0247 -0.4551
    1MOL    O89   89   6.221   2.254   1.703 -0.1819  0.5541  0.3416
    1MOL    O90   90   6.193   2.468   1.782 -0.2981  0.1187  0.1699
    1MOL    C91   91   6.095   2.501   1.688 -0.4959  0.4428 -0.0332
    1MOL    C92   92   5.991   2.554   1.780 -0.0433  0.1595 -0.4519
    1MOL    C93   93   5.853   2.573   1.712 -0.4553 -0.2495 -0.1777
    1MOL    C94   94   5.756   2.621   1.814  0.0864  0.7626  0.5602
    1MOL    H95   95   6.530   2.213   1.939 -0.7055  2.0932  0.7601
    1MOL    H96   96   6.434   2.137   1.821  0.3776  0.3461 -0.8942
    1MOL    H97   97   6.406   2.428   1.905 -0.3934 -0.4919  1.3905
    1MOL    H98   98   6.040   2.429   1.627  0.1452 -0.8272  0.8578
    1MOL    H99   99   6.134   2.580   1.625  0.6437 -1.3132 -1.6116
    1MOL   H100  100   5.974   2.497   1.871 -1.0579 -2.0876 -1.9986
    1MOL   H101  101   6.027   2.651   1.813 -1.3941  0.8152 -0.8923
    1MOL   H102  102   5.816   2.483   1.664 -0.3515 -0.2595 -0.2395
    1MOL   H103  103   5.859   2.652   1.637 -0.0779  0.5007  0.6276
    1MOL   H104  104   5.776   2.720   1.854  3.3531  0.7751 -1.0055
    1MOL   H105  105   5.746   2.542   1.888 -3.8525 -1.6953 -2.3821
    1MOL   H106  106   5.664   2.622   1.755  1.3758 -1.0148 -1.5525
    1MOL   C107  107   6.310   2.282   2.025  1.3200  0.3158  0.4066
    1MOL   C108  108   6.219   2.388   2.091  0.3331 -0.3147  0.0392
    1MOL   C109  109   6.130   2.322   2.203  0.4528 -0.8389  0.4417
    1MOL   O110  110   6.170   2.234   2.279 -0.7521  0.0098 -0.0209
    1MOL   O111  111   6.008   2.382   2.207 -0.3182  0.3431 -0.0787
    1MOL   C112  112   5.904   2.326   2.284 -1.5675 -0.5725  0.8373
    1MOL   C113  113   5.767   2.384   2.249 -0.1599 -0.4582  0.4129
    1MOL   C114  114   5.655   2.295   2.294 -0.0122  0.2327  0.2091
    1MOL   C115  115   5.527   2.315   2.221  0.1052  0.3946  0.2152
    1MOL   H116  116   6.389   2.265   2.099  1.5262  0.0294  0.1268
    1MOL   H117  117   6.259   2.187   2.006  0.3666  1.2441 -1.7931
    1MOL   H118  118   6.146   2.430   2.021  0.8440 -1.2587 -1.0774
    1MOL   H119  119   5.932   2.341   2.388 -1.8424 -1.5176  1.0529
    1MOL   H120  120   5.898   2.217   2.279 -1.8752 -0.6055  1.8663
    1MOL   H121  121   5.746   2.488   2.276  0.9089 -0.0374 -0.3669
    1MOL   H122  122   5.772   2.382   2.140 -2.2800  0.5667  0.2737
    1MOL   H123  123   5.643   2.276   2.401  0.3527 -0.0597  0.2014
    1MOL   H124  124   5.690   2.194   2.269  1.0201 -0.1748  3.0954
    1MOL   H125  125   5.437   2.287   2.277  0.8241 -0.4758  0.9410
    1MOL   H126  126   5.532   2.256   2.130 -1.6995 -0.1917  0.4677
    1MOL   H127  127   5.516   2.422   2.205 -0.6963  0.2504 -0.2235
    1MOL   C128  128   6.299   2.507   2.144 -0.0379  0.4461  0.2637
    1MOL   C129  129   6.215   2.634   2.179 -0.4903  0.0753 -0.3286
    1MOL   C130  130   6.281   2.716   2.294 -0.0180  0.0957 -0.8271
    1MOL   O131  131   6.212   2.763   2.385  0.2424  0.2046  0.2184
    1MOL   O132  132   6.407   2.731   2.275 -0.2149 -0.4602  0.3250
    1MOL   C133  133   6.481   2.791   2.381  0.3692  0.4160 -0.3179
    1MOL   C134  134   6.633   2.754   2.376  0.1970  0.0691 -0.2877
    1MOL   C135  135   6.700   2.791   2.241  0.1175  0.0798 -0.1953
    1MOL   C136  136   6.851   2.784   2.229  0.0138  0.3249 -0.6122
    1MOL   H137  137   6.378   2.548   2.081  0.0929 -2.6765 -1.7276
    1MOL   H138  138   6.367   2.476   2.224 -4.2713 -1.1437  3.4008
    1MOL   H139  139   6.118   2.608   2.221 -0.4803  0.6137  0.0385
    1MOL   H140  140   6.441   2.763   2.478  2.4724 -2.2471 -0.1664
    1MOL   H141  141   6.475   2.900   2.372 -0.0478  0.3750 -0.5709
    1MOL   H142  142   6.690   2.797   2.458  0.4720 -1.6640  0.4614
    1MOL   H143  143   6.651   2.649   2.398  2.4225  0.5458  0.2932
    1MOL   H144  144   6.669   2.895   2.237  0.7040  0.2416 -0.6672
    1MOL   H145  145   6.661   2.728   2.160  2.2000  0.7931 -1.8130
    1MOL   H146  146   6.895   2.689   2.260 -0.4830 -0.0154 -0.9521
    1MOL   H147  147   6.897   2.864   2.289 -0.1615 -0.4485  0.5778
    1MOL   H148  148   6.871   2.797   2.123  2.3539 -0.7531 -0.3327
    1MOL   C149  149   6.196   2.715   2.051 -0.1557 -0.4563 -0.1915
    1MOL   C150  150   6.126   2.848   2.066  0.0852  0.8261 -0.4241
    1MOL   C151  151   6.145   2.947   1.947  0.4552 -0.1294 -0.2935
    1MOL   O152  152   6.193   3.063   1.957 -0.1753  0.2519  0.0064
    1MOL   O153  153   6.111   2.888   1.832  0.7019 -0.0874 -0.5591
    1MOL   C154  154   6.138   2.947   1.705  0.1287  0.2628 -0.5942
    1MOL   C155  155   6.145   2.833   1.604 -0.1030  0.7857  0.2274
    1MOL   C156  156   6.194   2.878   1.462  0.2389 -0.0105 -0.4162
    1MOL   C157  157   6.166   2.778   1.347 -0.4806 -0.6250  0.7118
    1MOL   H158  158   6.130   2.645   2.000 -0.2751 -0.4097 -0.1016
    1MOL   H159  159   6.287   2.713   1.991  0.4005  1.8200  0.5091
    1MOL   H160  160   6.173   2.901   2.149 -0.7361 -0.4359  0.8708
    1MOL   H161  161   6.238   2.989   1.710 -0.0891  0.9398 -1.6746
    1MOL   H162  162   6.079   3.035   1.677 -0.2547  0.6074  1.2288
    1MOL   H163  163   6.213   2.754   1.638  1.9428  1.7852 -1.3828
    1MOL   H164  164   6.043   2.798   1.589 -0.9266  2.7579  1.1417
    1MOL   H165  165   6.298   2.909   1.472  0.0030  0.6569 -0.0084
    1MOL   H166  166   6.140   2.969   1.438  0.7595  0.2739 -0.5051
    1MOL   H167  167   6.059   2.757   1.347 -1.1582  2.4359 -1.4782
    1MOL   H168  168   6.223   2.687   1.365  4.4676  2.2781  0.7495
    1MOL   H169  169   6.199   2.825   1.254 -0.6632 -1.3428  0.2822
    1MOL   C170  170   5.973   2.834   2.104  0.8324  0.2995 -0.4585
    1MOL   C171  171   5.898   2.974   2.136  0.3802 -0.4686 -0.2358
    1MOL   C172  172   5.783   3.000   2.038  0.2854 -0.6523 -0.1633
    1MOL   O173  173   5.665   2.983   2.063 -0.4762 -0.0080 -0.3068
    1MOL   O174  174   5.824   3.047   1.923  0.2239 -0.1142 -0.4277
    1MOL   C175  175   5.730   3.072   1.820 -0.8792  0.4798  0.4392
    1MOL   C176  176   5.801   3.153   1.713  0.1827  0.3308  0.6406
    1MOL   C177  177   5.815   3.307   1.751  0.4846  1.0019 -0.3772
    1MOL   C178  178   5.885   3.381   1.641 -0.4183 -0.3384 -0.5397
    1MOL   H179  179   5.964   2.764   2.186 -1.7381  1.1535  0.0596
    1MOL   H180  180   5.917   2.789   2.022  0.3468 -0.6283  0.3858
    1MOL   H181  181   5.980   3.046   2.135  0.8193 -0.9363  1.0260
    1MOL   H182  182   5.638   3.118   1.854 -2.4890 -0.2865 -2.6899
    1MOL   H183  183   5.694   2.976   1.782 -1.9945  1.5149 -1.1517
    1MOL   H184  184   5.896   3.106   1.689  0.1822  0.3190  0.6598
    1MOL   H185  185   5.748   3.162   1.619 -0.6501  1.8964  1.2345
    1MOL   H186  186   5.856   3.324   1.850 -1.3615 -1.7642  0.9282
    1MOL   H187  187   5.714   3.345   1.764 -1.6082 -4.4604  1.0999
    1MOL   H188  188   5.907   3.484   1.669 -0.1646 -0.3297 -0.7686
    1MOL   H189  189   5.813   3.407   1.563  0.3082  2.4453 -0.3376
    1MOL   H190  190   5.970   3.327   1.600 -0.6762 -2.2511  1.3382
    1MOL   C191  191   5.835   2.977   2.283 -0.4746 -1.2211 -0.3561
    1MOL   C192  192   5.933   2.966   2.407  0.0477  0.1319  0.5101
    1MOL   C193  193   6.033   3.087   2.417 -0.2753  1.1449  0.1682
    1MOL   O194  194   6.022   3.165   2.510  0.7950  0.4102 -0.2926
    1MOL   O195  195   6.122   3.093   2.312  0.0138  0.1822 -0.1534
    1MOL   C196  196   6.204   3.205   2.290  0.2472 -0.4455  0.7653
    1MOL   C197  197   6.153   3.304   2.192  0.0861 -0.0493  0.3993
    1MOL   C198  198   6.262   3.399   2.140  0.0305 -0.2204 -0.4233
    1MOL   C199  199   6.205   3.529   2.086  0.1722 -0.3176 -0.6037
    1MOL   H200  200   5.771   2.889   2.294 -1.6746 -0.1046  1.8609
    1MOL   H201  201   5.763   3.058   2.300  0.0717 -0.0275 -3.2577
    1MOL   H202  202   5.981   2.871   2.385  0.1854  0.4873 -0.7468
    1MOL   H203  203   6.296   3.163   2.251  0.6678 -0.0092  1.2881
    1MOL   H204  204   6.221   3.263   2.381 -2.2847 -0.0209  1.0054
    1MOL   H205  205   6.110   3.254   2.105 -1.2679 -1.0100  1.5944
    1MOL   H206  206   6.077   3.352   2.254 -1.1486 -0.2005 -0.9761
    1MOL   H207  207   6.314   3.364   2.051  1.3327 -0.6527  0.4910
    1MOL   H208  208   6.336   3.408   2.219 -0.6512  3.9023 -0.1582
    1MOL   H209  209   6.282   3.586   2.034 -0.8984  0.8304 -0.9430
    1MOL   H210  210   6.162   3.596   2.159  2.0869 -0.2984  0.5576
    1MOL   H211  211   6.141   3.517   1.999  0.3064 -2.2730 -0.4556
    1MOL   C212  212   5.857   2.939   2.542 -0.3760 -0.3202 -0.5160
    1MOL   C213  213   5.796   2.796   2.572  0.1809  0.6434  0.2615
    1MOL   C214  214   5.902   2.679   2.554 -0.2394 -0.0828 -0.1585
    1MOL   O215  215   5.905   2.607   2.458 -0.0578  0.1255  0.2064
    1MOL   O216  216   5.987   2.683   2.649 -0.2529 -0.3787 -0.1675
    1MOL   C217  217   6.099   2.603   2.655 -0.7384  0.3542 -0.3282
    1MOL   C218  218   6.107   2.532   2.796 -0.9422 -0.6543  0.0215
    1MOL   C219  219   6.143   2.627   2.917 -0.4827  0.0665 -0.1969
    1MOL   C220  220   6.146   2.557   3.056 -0.4127 -0.0798  0.4570
    1MOL   H221  221   5.787   3.016   2.575  0.0720 -1.1346  2.4021
    1MOL   H222  222   5.930   2.956   2.621 -0.8411 -0.0718 -0.1329
    1MOL   H223  223   5.709   2.780   2.508 -1.4709  2.9783  1.8262
    1MOL   H224  224   6.194   2.651   2.629  0.1586 -1.9249 -1.4155
    1MOL   H225  225   6.091   2.516   2.590  2.2508 -0.2059 -0.0153
    1MOL   H226  226   6.012   2.491   2.832 -1.0281  0.8234  1.5459
    1MOL   H227  227   6.186   2.458   2.798 -2.4517 -2.2922  0.8303
    1MOL   H228  228   6.087   2.719   2.905  0.9102  1.0081  0.4119
    1MOL   H229  229   6.247   2.656   2.903 -0.6694  0.7804 -0.0920
    1MOL   H230  230   6.193   2.459   3.047  0.4730  0.2380  1.4547
    1MOL   H231  231   6.050   2.563   3.108 -0.7063  1.8738 -0.2756
    1MOL   H232  232   6.195   2.607   3.140  0.4236  0.5819 -0.4091
    1MOL   C233  233   5.739   2.779   2.721  0.3314 -0.6021 -0.5815
    1MOL   C234  234   5.638   2.668   2.745 -1.3151 -0.5721 -0.1058
    1MOL   C235  235   5.599   2.669   2.898 -0.4087 -0.3152  0.0707
    1MOL   O236  236   5.511   2.748   2.932  1.1482  0.3573  0.2614
    1MOL   O237  237   5.666   2.579   2.965 -0.3402  0.1991 -0.1193
    1MOL   C238  238   5.642   2.566   3.105 -0.3453  0.4004  0.3847
    1MOL   C239  239   5.741   2.478   3.179 -0.2299  0.5514 -0.6064
    1MOL   C240  240   5.776   2.341   3.111 -0.2707  0.0193  0.1888
    1MOL   C241  241   5.886   2.269   3.190  0.0171  0.3627  0.2549
    1MOL   H242  242   5.688   2.873   2.743 -0.8204 -1.1902 -0.7344
    1MOL   H243  243   5.823   2.772   2.790  0.3000  2.1383 -0.1965
    1MOL   H244  244   5.698   2.578   2.730 -1.3592 -0.6397  0.1326
    1MOL   H245  245   5.544   2.520   3.117 -0.3992  0.2303 -0.6272
    1MOL   H246  246   5.652   2.667   3.146 -0.9740  0.3587  0.6476
    1MOL   H247  247   5.828   2.536   3.209  1.3491 -1.7982 -0.4756
    1MOL   H248  248   5.688   2.450   3.270  1.6258  1.0897  0.6750
    1MOL   H249  249   5.804   2.353   3.006  0.6797 -0.9510  0.3198
    1MOL   H250  250   5.677   2.295   3.116  0.1939 -0.9227  0.9356
    1MOL   H251  251   5.867   2.276   3.297  1.5958 -0.9798  0.6509
    1MOL   H252  252   5.986   2.308   3.170 -1.2551  2.3498 -2.4270
    1MOL   H253  253   5.898   2.162   3.172 -1.3495  0.2064  0.2251
    1MOL   C254  254   5.526   2.658   2.647  0.1201 -0.3801 -0.5432
    1MOL   C255  255   5.399   2.579   2.679  0.9474 -0.3496 -0.4817
    1MOL   C256  256   5.281   2.615   2.590  0.1278 -0.7573  0.4254
    1MOL   O257  257   5.186   2.674   2.637 -0.0776 -0.0412  0.1575
    1MOL   O258  258   5.311   2.583   2.466  0.7146 -0.4186  0.4099
    1MOL   C259  259   5.213   2.623   2.368 -0.2955  0.0769 -0.2329
    1MOL   C260  260   5.267   2.629   2.227  1.0905  0.5405  0.3918
    1MOL   C261  261   5.363   2.748   2.193 -0.6778 -0.3567  0.4673
    1MOL   C262  262   5.398   2.740   2.039 -0.5008  0.0808 -0.3424
    1MOL   H263  263   5.570   2.611   2.559 -1.8277 -2.1421 -0.6167
    1MOL   H264  264   5.496   2.758   2.616 -0.0501  0.4296  2.0694
    1MOL   H265  265   5.377   2.616   2.779 -0.3739  0.3532 -1.0160
    1MOL   H266  266   5.178   2.721   2.399 -0.0167 -0.0535  0.5162
    1MOL   H267  267   5.126   2.558   2.375  1.0640 -1.8501 -0.5594
    1MOL   H268  268   5.315   2.533   2.208  3.0847  1.1231  2.2503
    1MOL   H269  269   5.184   2.637   2.157  1.9869  1.3086 -0.6109
    1MOL   H270  270   5.453   2.752   2.256  1.1610 -0.2562 -2.0974
    1MOL   H271  271   5.311   2.843   2.206 -0.7350 -0.5503  1.8057
    1MOL   H272  272   5.445   2.643   2.020  1.2108  1.2247 -2.0997
    1MOL   H273  273   5.464   2.820   2.007  0.5810 -0.7234 -0.1629
    1MOL   H274  274   5.304   2.744   1.984  0.0620  0.0905 -1.3182
    1MOL   C275  275   5.409   2.430   2.676  0.1909 -0.1671 -0.1981
    1MOL   C276  276   5.314   2.357   2.776 -0.0294 -0.6130 -0.1278
    1MOL   C277  277   5.316   2.205   2.752 -0.6433  1.0662 -0.1605
    1MOL   O278  278   5.383   2.126   2.826  0.7665  0.2201 -0.1837
    1MOL   O279  279   5.246   2.172   2.645 -0.2918  0.1945  0.3737
    1MOL   C280  280   5.271   2.053   2.580  0.3186  0.1779  0.6810
    1MOL   C281  281   5.398   2.053   2.499 -0.0538  0.0380  0.1166
    1MOL   C282  282   5.440   1.914   2.445  0.2429  0.7244 -0.2935
    1MOL   C283  283   5.561   1.929   2.344 -0.2036  0.0207  0.6630
    1MOL   H284  284   5.515   2.409   2.693  0.2828  1.3703  1.2743
    1MOL   H285  285   5.404   2.394   2.574  0.2448 -1.0428  0.1025
    1MOL   H286  286   5.210   2.384   2.754  0.7192  1.6213 -1.0910
    1MOL   H287  287   5.187   2.031   2.514  1.4859  2.9145 -1.8565
    1MOL   H288  288   5.264   1.969   2.650 -0.4861 -1.6172 -1.4958
    1MOL   H289  289   5.403   2.123   2.416  0.2827 -0.6820 -0.4759
    1MOL   H290  290   5.475   2.095   2.563 -0.0235 -0.4657  0.4150
    1MOL   H291  291   5.364   1.870   2.381  0.9546 -1.6925  0.4635
    1MOL   H292  292   5.460   1.846   2.528  0.1111  1.3167  0.2305
    1MOL   H293  293   5.597   1.836   2.301  1.4092  2.0154 -2.5216
    1MOL   H294  294   5.648   1.978   2.388 -0.9129  2.6650 -0.7541
    1MOL   H295  295   5.526   1.988   2.259  0.4409 -0.7445 -0.1360
    1MOL   C296  296   5.340   2.388   2.927 -0.1098 -0.6000 -0.5617
    1MOL   C297  297   5.251   2.324   3.038  1.1673  0.7099  0.2956
    1MOL   C298  298   5.311   2.345   3.174  0.2009 -1.2770  0.1546
    1MOL   O299  299   5.297   2.453   3.234 -0.7035 -0.2726  0.2166
    1MOL   O300  300   5.382   2.237   3.217  0.1214 -0.3503  0.0303
    1MOL   C301  301   5.447   2.250   3.344 -0.4012  0.7682 -0.7130
    1MOL   C302  302   5.499   2.109   3.382  0.1574  0.0334 -0.1962
    1MOL   C303  303   5.591   2.037   3.278  0.3669 -0.8797  0.2438
    1MOL   C304  304   5.653   1.907   3.333 -1.0768 -0.2940 -1.1583
    1MOL   H305  305   5.337   2.495   2.949  0.8821 -0.5806 -0.5090
    1MOL   H306  306   5.443   2.368   2.954 -0.5501  0.5094  2.0237
    1MOL   H307  307   5.263   2.218   3.016 -2.1442  0.4574 -0.4866
    1MOL   H308  308   5.373   2.273   3.421 -2.7666 -0.8168 -2.4583
    1MOL   H309  309   5.524   2.326   3.341  0.2067  0.1846 -0.2344
    1MOL   H310  310   5.559   2.119   3.473 -1.5531  0.3678  0.9197
    1MOL   H311  311   5.422   2.033   3.394  0.8830 -0.5963  0.5888
    1MOL   H312  312   5.681   2.094   3.254 -0.0522 -1.0607 -1.7767
    1MOL   H313  313   5.528   2.013   3.193  0.4873  1.8099 -0.6556
    1MOL   H314  314   5.715   1.937   3.418  0.6883 -0.4507 -2.3718
    1MOL   H315  315   5.719   1.857   3.263 -0.8809 -1.8246  0.1112
    1MOL   H316  316   5.575   1.843   3.375 -0.7101  0.5938  0.9510
    1MOL   C317  317   5.104   2.375   3.028  0.6664 -0.0636 -0.6913
    1MOL   C318  318   5.007   2.264   2.986 -0.1030  0.8733 -0.0142
    1MOL   C319  319   4.989   2.139   3.074 -0.2480 -0.4053 -0.2663
    1MOL   O320  320   5.010   2.146   3.196  0.3667 -0.5064  0.7459
    1MOL   O321  321   4.948   2.033   2.997 -0.3903 -0.0265 -0.1210
    1MOL   C322  322   4.899   1.920   3.068  0.1825 -0.2553 -0.2289
    1MOL   C323  323   4.750   1.904   3.086 -0.7000 -0.6763 -0.0551
    1MOL   C324  324   4.714   1.906   3.239  0.8319  0.4434 -0.8245
    1MOL   C325  325   4.569   1.898   3.267 -0.8862 -0.1795  0.6492
    1MOL   H326  326   5.098   2.448   2.946 -0.0656  0.0123 -0.5694
    1MOL   H327  327   5.069   2.424   3.119 -1.3576 -1.7522 -0.5290
    1MOL   H328  328   5.063   2.225   2.901  0.7655 -0.5205  1.1670
    1MOL   H329  329   4.948   1.913   3.165  1.8292 -1.6812 -1.1265
    1MOL   H330  330   4.929   1.832   3.010 -0.2947 -0.3210 -0.3732
    1MOL   H331  331   4.694   1.982   3.034  1.0968  0.4190 -0.4160
    1MOL   H332  332   4.720   1.806   3.050  0.1141 -0.6006 -0.9802
    1MOL   H333  333   4.747   1.998   3.288  0.4233  0.6278 -0.8927
    1MOL   H334  334   4.765   1.827   3.292  0.5864  0.4436 -0.5878
    1MOL   H335  335   4.529   1.980   3.208  1.3059  1.5337  1.4577
    1MOL   H336  336   4.540   1.910   3.371 -0.5080  0.0690  0.7293
    1MOL   H337  337   4.533   1.799   3.238 -0.8414  0.0590 -0.2336
    1MOL   C338  338   4.868   2.330   2.965  0.1796 -0.1130  0.5531
    1MOL   C339  339   4.860   2.394   2.820  0.6587  0.1834  0.4960
    1MOL   C340  340   4.845   2.291   2.709 -0.2148 -1.3799 -0.7744
    1MOL   O341  341   4.924   2.294   2.611  0.1349 -0.0420  0.1765
    1MOL   O342  342   4.733   2.220   2.723 -0.0694  0.3153  0.5176
    1MOL   C343  343   4.718   2.101   2.645 -0.4771  0.4143 -0.8214
    1MOL   C344  344   4.802   1.986   2.700 -0.6164  0.2351 -0.8585
    1MOL   C345  345   4.768   1.842   2.647  0.5750 -0.1042  0.0721
    1MOL   C346  346   4.846   1.726   2.709  0.2385  0.3968 -0.2351
    1MOL   H347  347   4.842   2.397   3.047 -1.4200 -1.1871  0.9464
    1MOL   H348  348   4.789   2.255   2.970  1.1999 -1.2284  0.2254
    1MOL   H349  349   4.951   2.449   2.795 -0.4591  1.8668  0.0856
    1MOL   H350  350   4.751   2.120   2.543 -1.0454  0.6738 -0.9583
    1MOL   H351  351   4.612   2.079   2.647 -0.4681  0.4578  0.1454
    1MOL   H352  352   4.905   2.007   2.671 -0.0674  1.2525  1.7061
    1MOL   H353  353   4.789   1.991   2.808  1.8341  0.0592 -0.5486
    1MOL   H354  354   4.793   1.842   2.541  0.0268  0.9464 -0.0648
    1MOL   H355  355   4.661   1.822   2.650  1.0696 -2.9191 -0.2422
    1MOL   H356  356   4.808   1.696   2.806 -0.4320 -0.9664 -0.9053
    1MOL   H357  357   4.950   1.753   2.727  0.1947  0.7986 -0.5876
    1MOL   H358  358   4.850   1.631   2.654  0.2073  0.7673 -0.8768
    1MOL   C359  359   4.729   2.485   2.827 -0.6539  0.0641 -0.3602
    1MOL   C360  360   4.691   2.573   2.698 -0.8645 -0.4669  0.8315
    1MOL   C361  361   4.544   2.627   2.704  0.8973 -0.3770 -0.1691
    1MOL   O362  362   4.492   2.635   2.818 -0.6331 -0.1373 -0.1005
    1MOL   O363  363   4.484   2.649   2.581 -0.1398 -0.1002  0.3363
    1MOL   C364  364   4.359   2.715   2.580 -0.4685  0.3255 -0.1703
    1MOL   C365  365   4.379   2.840   2.490  0.8515  0.2168  0.6064
    1MOL   C366  366   4.417   2.811   2.344  0.0079 -0.7177  0.0887
    1MOL   C367  367   4.467   2.934   2.262  0.1954 -0.4004  0.1455
    1MOL   H368  368   4.740   2.550   2.914 -1.3072 -1.8984  1.2091
    1MOL   H369  369   4.645   2.418   2.846  0.1684 -1.0096 -0.5214
    1MOL   H370  370   4.697   2.507   2.611 -2.6693 -0.4577  0.6684
    1MOL   H371  371   4.312   2.738   2.676 -1.8228 -1.8866 -0.2635
    1MOL   H372  372   4.288   2.658   2.522 -0.1018 -0.1952 -0.1166
    1MOL   H373  373   4.292   2.905   2.483  0.3025 -0.5859 -0.1631
    1MOL   H374  374   4.456   2.905   2.530  1.7163  1.5120 -2.9836
    1MOL   H375  375   4.338   2.760   2.289 -0.1329 -0.6713  0.2463
    1MOL   H376  376   4.493   2.732   2.343  0.6965 -0.0986  1.7759
    1MOL   H377  377   4.511   2.904   2.166  1.1336  0.4312  0.3119
    1MOL   H378  378   4.552   2.978   2.313 -0.0742 -1.1371  1.2475
    1MOL   H379  379   4.394   3.013   2.245 -1.4065 -1.7460  0.6028
    1MOL   C380  380   4.796   2.691   2.677 -0.0642 -0.0480 -1.3996
    1MOL   C381  381   4.787   2.771   2.542  1.0118  0.5929 -0.1962
    1MOL   C382  382   4.867   2.904   2.552 -0.2094 -0.2679  0.0147
    1MOL   O383  383   4.989   2.910   2.539  0.4757  0.0876 -0.7069
    1MOL   O384  384   4.792   3.011   2.588 -0.0500 -0.0900  0.6765
    1MOL   C385  385   4.853   3.138   2.609  0.2865  0.3584  0.1456
    1MOL   C386  386   4.768   3.227   2.701 -0.0305 -0.3310 -0.7274
    1MOL   C387  387   4.821   3.229   2.844  0.2418  0.0836  0.2830
    1MOL   C388  388   4.732   3.312   2.927 -0.0809 -0.7174  0.2724
    1MOL   H389  389   4.893   2.642   2.683 -0.1222 -0.4316 -3.1012
    1MOL   H390  390   4.788   2.756   2.764  0.4942  0.1134 -1.4654
    1MOL   H391  391   4.690   2.807   2.506  0.8013  0.5671  0.3489
    1MOL   H392  392   4.853   3.183   2.510 -0.5616 -1.4109 -0.6883
    1MOL   H393  393   4.956   3.141   2.643  0.3814  2.8514 -0.3023
    1MOL   H394  394   4.766   3.331   2.668 -0.1658 -0.0895  0.0284
    1MOL   H395  395   4.666   3.188   2.704 -0.3869  0.6588  0.6594
    1MOL   H396  396   4.921   3.271   2.835  0.3849 -0.0676  1.0618
    1MOL   H397  397   4.822   3.127   2.882  2.7525 -0.4403 -1.1243
    1MOL   H398  398   4.625   3.296   2.917  0.0506 -0.5378 -1.5728
    1MOL   H399  399   4.757   3.418   2.923  1.9196 -1.1947 -0.4837
    1MOL   H400  400   4.762   3.297   3.031 -2.9773 -1.3616  1.0517
    1MOL   C401  401   4.822   2.690   2.416  0.0656  0.2816 -0.6277
    1MOL   C402  402   4.813   2.752   2.279 -0.5047  0.0797  0.2866
    1MOL   C403  403   4.814   2.645   2.163  0.8388  0.0770  0.1382
    1MOL   O404  404   4.777   2.529   2.177 -0.1357 -0.0976 -0.2039
    1MOL   O405  405   4.856   2.696   2.051 -0.4979  0.0423 -0.1616
    1MOL   C406  406   4.869   2.619   1.931 -0.6396  0.8331 -0.4683
    1MOL   C407  407   5.004   2.546   1.931  0.2451  0.1023 -0.0271
    1MOL   C408  408   5.012   2.438   1.827  0.3988  0.2462 -0.1436
    1MOL   C409  409   5.142   2.360   1.816  0.1510 -0.0823  0.0072
    1MOL   H410  410   4.773   2.592   2.417 -1.9131  1.2488 -0.5560
    1MOL   H411  411   4.928   2.664   2.423 -0.2943 -1.2047 -0.4622
    1MOL   H412  412   4.885   2.830   2.250 -1.3440  0.6175 -0.3819
    1MOL   H413  413   4.853   2.679   1.842  0.2859  0.9027 -0.5930
    1MOL   H414  414   4.782   2.554   1.916 -1.0819  1.0151  1.2019
    1MOL   H415  415   5.080   2.621   1.914  0.4817 -0.1868 -0.2611
    1MOL   H416  416   5.010   2.503   2.031  0.2904  0.9847  0.3552
    1MOL   H417  417   4.991   2.484   1.731  0.3067  0.3769 -0.0610
    1MOL   H418  418   4.931   2.369   1.852  0.3537  1.0750  2.0936
    1MOL   H419  419   5.181   2.335   1.915 -0.9786  0.0286  0.4821
    1MOL   H420  420   5.215   2.415   1.757 -1.3772  2.5490  0.5157
    1MOL   H421  421   5.133   2.271   1.753 -0.2608  0.3887 -0.6016
    1MOL   H422  422   4.723   2.813   2.275 -1.4208 -1.2807  0.1924
    2MOL     C1  423   6.719   0.348   0.353  0.2721  0.0594 -0.2455
    2MOL     C2  424   6.582   0.398   0.414  0.6534  0.1721  0.3047
    2MOL     C3  425   6.591   0.438   0.561  0.6786 -0.4202  0.2306
    2MOL     O4  426   6.575   0.556   0.591 -0.6934  0.5049  0.1522
    2MOL     O5  427   6.603   0.335   0.646  0.1212  0.6009 -0.1891
    2MOL     C6  428   6.605   0.358   0.788 -0.3115 -0.8430  0.0102
    2MOL     C7  429   6.704   0.272   0.854  0.6300 -0.2546 -0.5458
    2MOL     C8  430   6.740   0.312   0.993  0.6372 -0.5012  0.1966
    2MOL     C9  431   6.844   0.217   1.056  0.3451 -0.6571  1.1561
    2MOL    H10  432   6.695   0.276   0.276 -1.2495 -0.5336  0.7659
    2MOL    H11  433   6.763   0.445   0.327  1.0138 -0.3719 -0.5925
    2MOL    H12  434   6.521   0.308   0.418  2.1935 -0.9369 -0.6313
    2MOL    H13  435   6.508   0.332   0.831  0.4838 -2.5914  0.7746
    2MOL    H14  436   6.626   0.465   0.793 -0.0803 -0.8376 -1.0629
    2MOL    H15  437   6.664   0.170   0.857  0.3197 -0.0974  2.5276
    2MOL    H16  438   6.801   0.278   0.805  1.0474  1.6565  0.4468
    2MOL    H17  439   6.652   0.320   1.057  1.6091  2.2633  1.2705
    2MOL    H18  440   6.776   0.414   1.009  1.8071 -1.0886  1.3624
    2MOL    H19  441   6.935   0.247   1.004 -0.9380  0.5929 -0.4438
    2MOL    H20  442   6.822   0.112   1.037 -0.6014 -0.7313  2.6117
    2MOL    H21  443   6.855   0.232   1.163 -1.4251 -1.4604  1.4758
    2MOL    H22  444   6.781   0.294   0.425 -1.3556 -2.4134 -0.6644
    2MOL    C23  445   6.505   0.492   0.318  0.3579  1.0386  0.7220
    2MOL    C24  446   6.378   0.556   0.368 -0.3646 -0.6010  0.0266
    2MOL    C25  447   6.312   0.642   0.257 -0.5038  0.0437 -0.3697
    2MOL    O26  448   6.275   0.758   0.273 -0.0088 -0.2234 -0.4182
    2MOL    O27  449   6.298   0.574   0.139  0.6478  0.4388 -0.0515
    2MOL    C28  450   6.239   0.641   0.024  0.4668 -0.4964 -0.2403
    2MOL    C29  451   6.354   0.688   7.786  0.4909 -0.2149  0.2100
    2MOL    C30  452   6.474   0.584   7.772  0.7292 -0.7585 -0.2203
    2MOL    C31  453   6.585   0.623   7.675 -0.8714 -0.5628 -0.3339
    2MOL    H32  454   6.491   0.436   0.226 -1.6260  0.0998  1.5626
    2MOL    H33  455   6.571   0.574   0.288 -1.1931  1.9600 -0.2492
    2MOL    H34  456   6.405   0.617   0.455  2.1500  0.2940 -1.3292
    2MOL    H35  457   6.167   0.720   0.044 -0.0589 -1.3129  1.0844
    2MOL    H36  458   6.176   0.566   7.829 -0.1193 -0.8696  1.1048
    2MOL    H37  459   6.310   0.699   7.687  3.3863 -0.0664 -1.1129
    2MOL    H38  460   6.400   0.784   7.806  2.7300 -0.7957 -1.9247
    2MOL    H39  461   6.434   0.486   7.746  0.4740 -1.0625  1.2920
    2MOL    H40  462   6.513   0.569   0.019 -1.2999  0.4509  0.7689
    2MOL    H41  463   6.637   0.697   7.734  0.2486 -1.1599 -0.5634
    2MOL    H42  464   6.553   0.679   7.587  0.4898  0.5557 -0.1179
    2MOL    H43  465   6.656   0.543   7.654 -1.5877 -1.2865 -0.0163
    2MOL    C44  466   6.272   0.461   0.425 -0.4019 -0.2436 -0.1766
    2MOL    C45  467   6.180   0.515   0.539  0.3068 -0.7852  0.0692
    2MOL    C46  468   6.258   0.544   0.672 -0.2334  0.2002 -0.1404
    2MOL    O47  469   6.296   0.449   0.739  0.2686  0.4005 -0.3815
    2MOL    O48  470   6.278   0.677   0.690 -0.3418 -0.1154  0.2619
    2MOL    C49  471   6.325   0.734   0.809 -0.0287 -0.1314  0.2599
    2MOL    C50  472   6.209   0.751   0.909  0.2893  0.5689 -1.1956
    2MOL    C51  473   6.246   0.830   1.038  0.1757 -0.1019 -0.6463
    2MOL    C52  474   6.332   0.761   1.149  0.0493 -0.4211 -0.0134
    2MOL    H53  475   6.328   0.381   0.472 -2.9150 -2.0795 -0.2287
    2MOL    H54  476   6.220   0.403   0.349 -0.6560 -0.1903 -0.0420
    2MOL    H55  477   6.121   0.426   0.563 -0.8645 -0.2420 -0.7145
    2MOL    H56  478   6.366   0.832   0.787  2.4496 -1.7104 -2.4987
    2MOL    H57  479   6.402   0.668   0.850  0.2499  0.0520  0.0299
    2MOL    H58  480   6.137   0.814   0.857 -1.7884  1.7148  2.9265
    2MOL    H59  481   6.160   0.659   0.941 -0.8460  1.7947  0.6064
    2MOL    H60  482   6.151   0.853   1.086 -0.5738  0.5044 -2.4035
    2MOL    H61  483   6.282   0.930   1.016  0.1084  0.9521  3.5609
    2MOL    H62  484   6.300   0.660   1.174 -1.0834  0.0635  0.5400
    2MOL    H63  485   6.333   0.826   1.237  1.4141 -1.5929  0.8654
    2MOL    H64  486   6.433   0.745   1.111 -0.3029 -2.5677 -0.0809
    2MOL    C65  487   6.079   0.620   0.502  0.0658 -0.4214 -0.3974
    2MOL    C66  488   5.965   0.630   0.603  0.0817  0.4488 -0.4144
    2MOL    C67  489   5.905   0.768   0.594  0.5926 -0.6247  0.3277
    2MOL    O68  490   5.903   0.839   0.696  0.0872 -0.0834  0.1154
    2MOL    O69  491   5.867   0.797   0.468  0.4988  0.3406  0.9685
    2MOL    C70  492   5.784   0.907   0.438  0.2544  0.1380 -0.5397
    2MOL    C71  493   5.856   1.012   0.350  0.3325 -0.2520 -0.5847
    2MOL    C72  494   5.764   1.127   0.306  0.5991  0.1927 -0.3366
    2MOL    C73  495   5.824   1.227   0.211  0.1428 -0.2408  0.2160
    2MOL    H74  496   6.037   0.593   0.405 -2.1469  2.1934 -0.2273
    2MOL    H75  497   6.136   0.713   0.490 -0.8266  0.2108  0.2192
    2MOL    H76  498   6.010   0.620   0.702 -0.7600  0.0892 -0.0637
    2MOL    H77  499   5.734   0.950   0.524  0.0700  1.2946 -1.2135
    2MOL    H78  500   5.697   0.862   0.390  1.1850 -0.7955 -1.3885
    2MOL    H79  501   5.947   1.047   0.400 -2.3698  1.8767  3.0747
    2MOL    H80  502   5.890   0.962   0.260  0.6525  2.3978 -1.9915
    2MOL    H81  503   5.720   1.172   0.395 -0.2488 -2.6098  0.7068
    2MOL    H82  504   5.686   1.078   0.247 -0.8930  0.7582  1.1366
    2MOL    H83  505   5.905   1.285   0.255  1.0650 -0.2193 -1.4558
    2MOL    H84  506   5.747   1.291   0.167  0.5530 -0.2189 -0.4776
    2MOL    H85  507   5.875   1.172   0.132  1.2870 -0.3767  1.0376
    2MOL    C86  508   5.865   0.517   0.593  0.1225  0.0536 -0.3497
    2MOL    C87  509   5.810   0.453   0.722 -0.2692  1.3947  0.3048
    2MOL    C88  510   5.900   0.343   0.783 -0.0527 -0.3344  0.2982
    2MOL    O89  511   5.890   0.227   0.754 -0.1794  0.2624 -0.4158
    2MOL    O90  512   6.000   0.401   0.871  0.2320  0.4500  0.2646
    2MOL    C91  513   6.085   0.310   0.943 -0.2261  0.1197 -0.1780
    2MOL    C92  514   6.190   0.382   1.030  1.1794  0.9076 -0.0826
    2MOL    C93  515   6.293   0.291   1.106  0.2722 -1.0272  0.2857
    2MOL    C94  516   6.386   0.370   1.193  0.1935  0.5052 -0.0876
    2MOL    H95  517   5.896   0.436   0.527 -0.1644  0.2769 -0.7613
    2MOL    H96  518   5.771   0.547   0.545  0.7757  1.1843 -0.9447
    2MOL    H97  519   5.724   0.396   0.688  0.9798 -0.4704  0.2066
    2MOL    H98  520   6.123   0.242   0.867  1.4244 -0.4253  1.0877
    2MOL    H99  521   6.018   0.249   1.005  0.1799 -0.0612  0.0854
    2MOL   H100  522   6.251   0.439   0.960 -0.6755 -1.3625 -3.6823
    2MOL   H101  523   6.149   0.453   1.103  2.2163 -0.2960  1.7172
    2MOL   H102  524   6.357   0.234   1.038 -0.2416 -2.0160  0.6197
    2MOL   H103  525   6.234   0.220   1.163  0.1401 -1.4927 -0.4152
    2MOL   H104  526   6.338   0.431   1.269  0.5805 -0.6605  1.1098
    2MOL   H105  527   6.445   0.436   1.129  1.1040  0.0557  0.2691
    2MOL   H106  528   6.465   0.311   1.239 -0.9948 -1.2273 -0.2491
    2MOL   C107  529   5.763   0.548   0.839 -0.2962 -0.5054 -0.5785
    2MOL   C108  530   5.696   0.475   0.966 -0.0440  0.8649 -0.4540
    2MOL   C109  531   5.681   0.579   1.081 -0.0630  0.1102  0.7254
    2MOL   O110  532   5.770   0.615   1.158 -0.0244  0.6371 -0.1658
    2MOL   O111  533   5.563   0.637   1.076 -0.2649  0.2347  0.0010
    2MOL   C112  534   5.529   0.737   1.163  0.2035  0.2404  0.0541
    2MOL   C113  535   5.398   0.689   1.241 -0.0517 -0.5187  0.2109
    2MOL   C114  536   5.340   0.802   1.333  0.0714  0.6171  0.3602
    2MOL   C115  537   5.196   0.794   1.377 -0.4864  0.0786 -0.0579
    2MOL   H116  538   5.691   0.616   0.794  0.5861 -0.2290 -1.6017
    2MOL   H117  539   5.841   0.615   0.876 -1.2589 -0.3432  1.2071
    2MOL   H118  540   5.772   0.405   1.000 -1.4620  0.2930  1.6171
    2MOL   H119  541   5.501   0.822   1.100 -1.3778 -1.0836 -1.0790
    2MOL   H120  542   5.605   0.767   1.235 -2.1302  0.7879  2.3506
    2MOL   H121  543   5.314   0.674   1.174  0.4392  0.4794 -0.6527
    2MOL   H122  544   5.414   0.592   1.287 -3.3312 -0.3156  1.9192
    2MOL   H123  545   5.343   0.898   1.281  0.2387  0.6252  0.3844
    2MOL   H124  546   5.398   0.817   1.424 -0.0817  0.5947  0.4617
    2MOL   H125  547   5.128   0.815   1.295 -1.2727 -0.0398  0.5551
    2MOL   H126  548   5.183   0.876   1.448  2.7616  2.9570 -2.6486
    2MOL   H127  549   5.169   0.702   1.430 -0.6186  0.4641  0.5462
    2MOL   C128  550   5.564   0.390   0.944 -0.1535  0.7006 -0.1546
    2MOL   C129  551   5.520   0.316   1.074  0.2265 -0.3458  0.2545
    2MOL   C130  552   5.368   0.282   1.056  0.3628 -0.8895 -0.2362
    2MOL   O131  553   5.328   0.168   1.071  0.8873  0.0529 -0.0913
    2MOL   O132  554   5.292   0.394   1.029  0.2784  0.3027  0.3063
    2MOL   C133  555   5.154   0.390   1.033  0.2590 -0.1117 -0.4467
    2MOL   C134  556   5.110   0.421   1.182 -0.3163 -0.0179 -0.4609
    2MOL   C135  557   4.956   0.430   1.204 -0.1749 -0.8589 -0.3377
    2MOL   C136  558   4.900   0.573   1.169  0.0549  0.2977  0.0173
    2MOL   H137  559   5.593   0.320   0.866  1.3906  0.7739  0.3351
    2MOL   H138  560   5.487   0.448   0.893 -1.3864  0.8013  1.7807
    2MOL   H139  561   5.514   0.388   1.155 -1.0317 -0.1787  0.0101
    2MOL   H140  562   5.120   0.292   0.998 -1.4289  0.0488  0.7371
    2MOL   H141  563   5.134   0.468   0.960 -0.5286 -0.7500 -0.9176
    2MOL   H142  564   5.139   0.340   1.250 -1.4024 -0.2068 -0.2002
    2MOL   H143  565   5.160   0.515   1.204  0.8062 -0.5093 -0.8620
    2MOL   H144  566   4.933   0.415   1.310 -2.3325 -0.9299 -0.8016
    2MOL   H145  567   4.911   0.362   1.132 -0.0487 -1.1434 -0.1476
    2MOL   H146  568   4.952   0.655   1.219  0.8750 -0.2186  0.0155
    2MOL   H147  569   4.795   0.575   1.199 -0.4237 -1.8686 -1.4249
    2MOL   H148  570   4.905   0.591   1.062 -0.6116 -1.4322 -0.3201
    2MOL   C149  571   5.627   0.196   1.104  0.4484 -0.1665 -0.5606
    2MOL   C150  572   5.687   0.197   1.244 -0.4937 -0.6793 -0.0557
    2MOL   C151  573   5.581   0.159   1.353 -0.2568 -0.0407  0.2090
    2MOL   O152  574   5.593   0.052   1.420 -0.0278 -0.6325  0.1360
    2MOL   O153  575   5.491   0.256   1.381 -0.0711  0.1526  0.5343
    2MOL   C154  576   5.402   0.251   1.492  0.9601  0.1663  0.0798
    2MOL   C155  577   5.367   0.388   1.534 -0.3779 -0.1635  0.2290
    2MOL   C156  578   5.477   0.472   1.599  0.0058  0.1024  0.1291
    2MOL   C157  579   5.610   0.498   1.521  0.0963  0.4430 -0.6372
    2MOL   H158  580   5.707   0.203   1.029  0.9072 -1.4149 -0.1965
    2MOL   H159  581   5.581   0.100   1.083  0.7126 -1.1795  3.1495
    2MOL   H160  582   5.703   0.304   1.262  0.1246 -1.2304  3.0328
    2MOL   H161  583   5.460   0.202   1.569 -0.7008 -1.6355  0.2283
    2MOL   H162  584   5.320   0.184   1.466  1.3530 -0.7455  1.1634
    2MOL   H163  585   5.334   0.443   1.447 -0.4632  0.0248  0.3795
    2MOL   H164  586   5.279   0.382   1.598 -0.8316 -0.1889 -0.3934
    2MOL   H165  587   5.517   0.437   1.694 -0.1675 -2.1834 -0.6299
    2MOL   H166  588   5.430   0.569   1.615 -1.1768 -0.6426  1.2581
    2MOL   H167  589   5.683   0.568   1.563  1.1321 -0.7135 -0.5002
    2MOL   H168  590   5.601   0.522   1.415 -1.8909 -2.2560 -1.1122
    2MOL   H169  591   5.669   0.407   1.524  2.6430  2.0514 -0.3922
    2MOL   C170  592   5.824   0.125   1.264 -0.2217 -0.5704 -0.3196
    2MOL   C171  593   5.834   7.823   1.240  0.2668 -0.4244 -0.1652
    2MOL   C172  594   5.864   7.802   1.087  0.2400  0.2163 -0.5256
    2MOL   O173  595   5.968   7.830   1.042 -0.1890 -0.8309 -1.0404
    2MOL   O174  596   5.762   7.746   1.018 -0.4425  0.6670 -0.1435
    2MOL   C175  597   5.765   7.709   0.885 -0.2298 -0.0866  0.0920
    2MOL   C176  598   5.623   7.739   0.828 -0.3959 -0.0265 -0.4547
    2MOL   C177  599   5.596   7.655   0.702 -0.1736 -0.1893 -0.3537
    2MOL   C178  600   5.451   7.670   0.656 -0.2850  1.1178 -0.2712
    2MOL   H179  601   5.859   0.150   1.364  1.0252 -0.2409 -0.8335
    2MOL   H180  602   5.884   0.176   1.190  1.2163 -2.4647 -0.4755
    2MOL   H181  603   5.745   7.768   1.271  0.1011 -0.6246 -0.9695
    2MOL   H182  604   5.802   7.606   0.884  1.1066  0.3735  1.1680
    2MOL   H183  605   5.847   7.757   0.830 -1.6008  2.1979  0.0063
    2MOL   H184  606   5.560   7.711   0.912  2.4364 -1.9057  1.1502
    2MOL   H185  607   5.612   7.846   0.813 -0.1679  0.4146  2.3532
    2MOL   H186  608   5.633   7.554   0.718  0.8943  0.0056 -1.4483
    2MOL   H187  609   5.654   7.702   0.621 -1.2637  0.0572 -0.9947
    2MOL   H188  610   5.376   7.617   0.716  1.4181 -0.8916  0.1381
    2MOL   H189  611   5.448   7.642   0.551 -1.3512 -1.2132  0.3312
    2MOL   H190  612   5.424   7.774   0.672  0.3016  1.2781 -0.3337
    2MOL   C191  613   5.949   7.753   1.315  0.6458  0.2137 -0.1815
    2MOL   C192  614   5.980   7.599   1.300  0.2841 -0.0220  0.3243
    2MOL   C193  615   5.860   7.506   1.317  0.2596  0.4057  0.3202
    2MOL   O194  616   5.832   7.459   1.431 -0.1478  0.0104 -0.3383
    2MOL   O195  617   5.785   7.497   1.203  0.0386  0.2732  0.0785
    2MOL   C196  618   5.674   7.420   1.212  0.0120  0.6378 -0.4854
    2MOL   C197  619   5.580   7.475   1.108  0.0936  0.3985  0.3239
    2MOL   C198  620   5.447   7.406   1.089 -0.0138 -0.1190 -0.3107
    2MOL   C199  621   5.349   7.462   0.986 -0.2571 -0.0609  0.1444
    2MOL   H200  622   5.929   7.765   1.422 -0.4901 -1.8176 -0.1261
    2MOL   H201  623   6.040   7.809   1.299 -0.9858  2.0290 -3.6335
    2MOL   H202  624   6.054   7.578   1.378  1.0080 -0.5787 -0.5013
    2MOL   H203  625   5.630   7.437   1.310  0.9180 -0.8424  0.2018
    2MOL   H204  626   5.702   7.314   1.205  2.2224  1.0721  1.1756
    2MOL   H205  627   5.567   7.583   1.112 -1.3179  0.2364  0.4733
    2MOL   H206  628   5.637   7.460   1.017  0.4280  3.1988  0.0261
    2MOL   H207  629   5.397   7.427   1.184 -2.0575  0.9305 -1.5896
    2MOL   H208  630   5.474   7.301   1.073  0.5758 -0.1909  1.0771
    2MOL   H209  631   5.252   7.413   0.995  0.2785 -1.0790  0.4603
    2MOL   H210  632   5.388   7.453   0.885  1.9319  0.8266  0.8735
    2MOL   H211  633   5.346   7.571   0.986  0.9322 -0.0263 -0.2434
    2MOL   C212  634   6.065   7.568   1.173  0.0402 -0.0916 -0.2233
    2MOL   C213  635   6.145   7.439   1.182  0.3624 -0.1456  0.0578
    2MOL   C214  636   6.093   7.321   1.100 -0.4893  0.5373 -0.9095
    2MOL   O215  637   6.125   7.210   1.133 -0.0129  0.4589 -0.1512
    2MOL   O216  638   6.005   7.352   1.002  0.1751  0.3813 -0.1170
    2MOL   C217  639   5.960   7.247   0.916  0.0215  0.2058  0.0410
    2MOL   C218  640   5.830   7.172   0.969  0.2824 -0.2902 -0.8205
    2MOL   C219  641   5.786   7.051   0.895  0.5901  0.5324 -0.3844
    2MOL   C220  642   5.649   6.996   0.931  0.1018  0.0864 -0.4435
    2MOL   H221  643   6.141   7.647   1.177  0.0237  0.0997 -2.6030
    2MOL   H222  644   6.001   7.587   1.086 -2.9478  0.2232  1.9966
    2MOL   H223  645   6.118   7.403   1.281 -1.9174  1.1223 -0.0679
    2MOL   H224  646   6.038   7.174   0.894  0.6194  0.7341  0.3433
    2MOL   H225  647   5.931   7.293   0.822 -0.7355 -1.2025 -0.4069
    2MOL   H226  648   5.835   7.153   1.077 -0.6760  0.1617 -0.6854
    2MOL   H227  649   5.754   7.250   0.963  0.7498  0.3833  1.3971
    2MOL   H228  650   5.865   6.976   0.902 -1.0045 -1.1413  0.4601
    2MOL   H229  651   5.789   7.083   0.791 -0.6019 -2.1059 -1.2837
    2MOL   H230  652   5.568   7.055   0.889  0.7498 -0.7579 -2.9671
    2MOL   H231  653   5.635   6.984   1.038 -2.1528  1.6307 -0.5319
    2MOL   H232  654   5.634   6.900   0.881  3.1508 -0.7260  0.0576
    2MOL   C233  655   6.304   7.449   1.170  0.5575  0.0092  0.5063
    2MOL   C234  656   6.387   7.333   1.229  0.9320 -0.1511  0.3435
    2MOL   C235  657   6.516   7.337   1.147 -0.0959  0.4829 -1.3803
    2MOL   O236  658   6.536   7.243   1.067 -0.1471 -0.4928  0.2039
    2MOL   O237  659   6.598   7.437   1.188  0.8385  0.0207 -0.3472
    2MOL   C238  660   6.719   7.457   1.121  0.0787  0.0601  0.6261
    2MOL   C239  661   6.745   7.600   1.121  0.4035  0.3045  0.5685
    2MOL   C240  662   6.629   7.686   1.071  0.3022 -0.5922  0.3699
    2MOL   C241  663   6.555   7.776   1.171  0.2271  0.7137  0.5191
    2MOL   H242  664   6.336   7.535   1.228  3.7111 -2.2759  2.3016
    2MOL   H243  665   6.340   7.486   1.074 -0.0996  0.8654  0.5815
    2MOL   H244  666   6.334   7.244   1.195  3.1703  0.0162 -4.0335
    2MOL   H245  667   6.719   7.422   1.018  1.2770 -0.3434  0.7568
    2MOL   H246  668   6.798   7.405   1.176  0.0169  1.0932  1.7261
    2MOL   H247  669   6.790   7.636   1.214  1.3234  1.2706 -0.2517
    2MOL   H248  670   6.831   7.614   1.056  1.1235 -1.5340  1.1050
    2MOL   H249  671   6.561   7.626   1.012  0.3079 -0.6476  0.4198
    2MOL   H250  672   6.673   7.746   0.991 -0.4818 -1.0111 -0.3817
    2MOL   H251  673   6.462   7.808   1.124  0.6431  0.7883 -0.2505
    2MOL   H252  674   6.617   0.002   1.214 -1.6677  2.5359 -0.0535
    2MOL   H253  675   6.510   7.718   1.252 -1.0766  0.3767 -0.4420
    2MOL   C254  676   6.399   7.317   1.382 -0.5258  0.1207 -0.5694
    2MOL   C255  677   6.474   7.185   1.427  0.0149 -0.0107 -0.0062
    2MOL   C256  678   6.504   7.185   1.579 -0.0273 -0.6783  0.3481
    2MOL   O257  679   6.611   7.233   1.617 -0.6484 -0.0730  0.8455
    2MOL   O258  680   6.405   7.125   1.656  0.9504  0.1752 -0.0997
    2MOL   C259  681   6.416   7.136   1.797 -0.0631 -0.3136  0.4483
    2MOL   C260  682   6.488   7.018   1.866  0.3970 -0.2280  0.0935
    2MOL   C261  683   6.433   6.878   1.829  0.1930 -0.4750 -0.3385
    2MOL   C262  684   6.511   6.757   1.882 -0.6699 -0.3602  0.1205
    2MOL   H263  685   6.301   7.339   1.425 -0.6080  1.9481 -1.6374
    2MOL   H264  686   6.455   7.400   1.424 -1.9884  0.6890  0.2747
    2MOL   H265  687   6.568   7.205   1.377  0.1312 -0.1072  0.1716
    2MOL   H266  688   6.318   7.147   1.842  0.0783  0.4441  0.5856
    2MOL   H267  689   6.465   7.231   1.819  0.6129 -0.7166  0.6809
    2MOL   H268  690   6.593   7.022   1.839  0.3139 -0.4943 -0.2774
    2MOL   H269  691   6.479   7.019   1.975 -0.2082 -1.0526  0.0558
    2MOL   H270  692   6.410   6.870   1.723 -0.5879 -1.8465 -0.0786
    2MOL   H271  693   6.336   6.860   1.875  0.1394  0.7801  0.0545
    2MOL   H272  694   6.450   6.670   1.858  0.7810 -1.0120 -1.2914
    2MOL   H273  695   6.528   6.750   1.989 -0.4461 -1.7506 -0.0048
    2MOL   H274  696   6.608   6.748   1.831  0.1511  0.3065  1.5352
    2MOL   C275  697   6.422   7.050   1.372  0.7001 -0.4354 -0.3089
    2MOL   C276  698   6.492   6.918   1.412 -0.2656 -0.0256  0.1628
    2MOL   C277  699   6.394   6.800   1.408 -0.7852 -0.1233 -0.3600
    2MOL   O278  700   6.310   6.791   1.318  0.8397 -0.1689 -0.8011
    2MOL   O279  701   6.423   6.707   1.512 -0.5689 -0.1045 -0.1309
    2MOL   C280  702   6.355   6.591   1.535 -0.4954 -1.6232  0.1165
    2MOL   C281  703   6.241   6.604   1.634  0.2715 -0.4844 -0.0309
    2MOL   C282  704   6.113   6.670   1.568 -0.6848  0.4260  0.1021
    2MOL   C283  705   5.978   6.637   1.648  0.0897  0.0088 -0.5660
    2MOL   H284  706   6.422   7.051   1.263 -1.3553  2.4718 -0.3514
    2MOL   H285  707   6.315   7.044   1.392  0.9068 -1.5035  0.4833
    2MOL   H286  708   6.522   6.939   1.515  0.9963 -0.4322 -0.1166
    2MOL   H287  709   6.427   6.520   1.577 -0.6454 -2.4632 -1.0097
    2MOL   H288  710   6.330   6.546   1.439  0.7124  0.8763 -1.3902
    2MOL   H289  711   6.207   6.503   1.654 -1.2365 -0.2522 -1.3620
    2MOL   H290  712   6.261   6.654   1.729 -0.9895  0.4346 -0.2302
    2MOL   H291  713   6.098   6.621   1.472  0.3044  3.1910 -1.5186
    2MOL   H292  714   6.125   6.777   1.552 -0.6344  0.2030 -1.3967
    2MOL   H293  715   5.900   6.710   1.628 -0.9719 -0.5493  1.3591
    2MOL   H294  716   6.007   6.638   1.754  1.3593  0.0525 -0.8988
    2MOL   H295  717   5.938   6.541   1.616  1.7117 -0.9583  0.1850
    2MOL   C296  718   6.623   6.905   1.331 -0.4023 -0.4873  0.2343
    2MOL   C297  719   6.704   6.775   1.332  0.8452  0.1541 -0.3608
    2MOL   C298  720   6.793   6.760   1.210 -0.1734 -0.7326 -0.4123
    2MOL   O299  721   6.784   6.667   1.133  0.7193 -0.4370  0.2265
    2MOL   O300  722   6.881   6.872   1.198 -0.5040  0.0572 -0.2518
    2MOL   C301  723   6.966   6.855   1.087  0.1366 -0.7504 -0.1457
    2MOL   C302  724   7.102   6.927   1.106  0.2191  0.0347  0.3678
    2MOL   C303  725   7.201   6.888   0.999  0.4858  0.4426 -0.3815
    2MOL   C304  726   7.328   6.976   0.983  0.4869 -0.2826  0.1867
    2MOL   H305  727   6.687   6.992   1.344 -1.0375  0.4504 -2.6451
    2MOL   H306  728   6.590   6.909   1.227 -0.8182  2.9654  0.4298
    2MOL   H307  729   6.639   6.689   1.320 -3.4016  2.9531  1.2137
    2MOL   H308  730   6.917   6.867   0.991 -2.1690 -0.5719  1.0227
    2MOL   H309  731   6.996   6.750   1.081  2.1981 -0.1657 -0.7449
    2MOL   H310  732   7.091   7.034   1.091 -1.2031 -0.1815 -0.2273
    2MOL   H311  733   7.140   6.912   1.208 -1.4300 -0.8286  0.8841
    2MOL   H312  734   7.146   6.888   0.905 -1.4774  0.4094  0.7484
    2MOL   H313  735   7.235   6.788   1.024 -1.8142  0.0950  1.4600
    2MOL   H314  736   7.355   7.004   1.085  1.5957  1.7490 -0.6346
    2MOL   H315  737   7.312   7.072   0.934 -0.1295  0.4372  1.7561
    2MOL   H316  738   7.415   6.920   0.947  1.8248  0.7612  1.7260
    2MOL   C317  739   6.782   6.775   1.466  0.9471 -0.3122  0.0724
    2MOL   C318  740   6.840   6.631   1.500  0.4148 -0.6855  0.6228
    2MOL   C319  741   6.943   6.656   1.607  0.3969 -0.4583  0.3136
    2MOL   O320  742   7.062   6.646   1.579 -0.0288  0.1168 -0.4171
    2MOL   O321  743   6.890   6.677   1.728  0.3557 -0.0961 -0.5544
    2MOL   C322  744   6.976   6.677   1.842  0.2566 -0.8120 -0.6306
    2MOL   C323  745   7.036   6.820   1.875 -0.1770 -0.7088  0.1973
    2MOL   C324  746   6.936   6.922   1.924  0.0384 -0.5558 -0.2217
    2MOL   C325  747   7.003   7.049   1.997 -0.2264 -0.4943 -0.6580
    2MOL   H326  748   6.716   6.819   1.541  1.0557  1.1355 -0.6632
    2MOL   H327  749   6.865   6.845   1.467 -0.4859  1.4468 -1.1355
    2MOL   H328  750   6.885   6.590   1.410  0.0475 -2.7509  1.3580
    2MOL   H329  751   7.052   6.601   1.826  1.5929  0.8898 -2.7372
    2MOL   H330  752   6.910   6.644   1.923  1.0959  0.9662  0.8333
    2MOL   H331  753   7.111   6.800   1.952 -1.7024 -1.2882  1.5522
    2MOL   H332  754   7.081   6.861   1.784 -0.4143  1.7853  1.1699
    2MOL   H333  755   6.868   6.874   1.995 -0.7412  0.5782 -0.1768
    2MOL   H334  756   6.879   6.954   1.836 -1.3448 -2.0390  0.1166
    2MOL   H335  757   7.088   7.025   2.061 -1.1081  2.4457  1.7516
    2MOL   H336  758   6.937   7.106   2.062  0.3474 -0.2664 -0.2673
    2MOL   H337  759   7.040   7.126   1.930  1.3828  0.9161  1.7967
    2MOL   C338  760   6.730   6.519   1.539  0.2611  0.2946 -0.1180
    2MOL   C339  761   6.778   6.372   1.560 -0.4107  0.1743  0.1778
    2MOL   C340  762   6.883   6.330   1.460 -0.1392 -0.1122 -0.3455
    2MOL   O341  763   6.986   6.265   1.489  0.0455 -0.5583  0.2070
    2MOL   O342  764   6.860   6.369   1.332 -0.3635  0.6301 -0.2164
    2MOL   C343  765   6.954   6.349   1.219  0.2302  0.3635  0.1256
    2MOL   C344  766   7.069   6.445   1.221  0.0377 -0.2129  0.9204
    2MOL   C345  767   7.161   6.417   1.106 -0.5685 -0.0468  0.0576
    2MOL   C346  768   7.297   6.484   1.103 -0.8262  0.5006  0.0624
    2MOL   H347  769   6.642   6.525   1.475  1.2614 -2.1586 -1.8094
    2MOL   H348  770   6.676   6.551   1.628 -2.0269 -0.1553 -1.3054
    2MOL   H349  771   6.698   6.298   1.558 -0.8098  0.5311  1.8965
    2MOL   H350  772   6.900   6.369   1.126 -0.8258 -0.6872  0.4960
    2MOL   H351  773   6.980   6.243   1.212  0.1656  0.4699 -2.1651
    2MOL   H352  774   7.041   6.550   1.215 -0.6092 -0.4983 -1.7696
    2MOL   H353  775   7.118   6.444   1.318  0.8467  0.3538  0.5270
    2MOL   H354  776   7.116   6.453   1.013  0.3725  1.7934  0.3029
    2MOL   H355  777   7.172   6.311   1.081  0.4895  0.5083 -1.8627
    2MOL   H356  778   7.360   6.450   1.021  1.8378  0.9320  1.8533
    2MOL   H357  779   7.350   6.475   1.198 -0.8423  0.3088  0.0518
    2MOL   H358  780   7.293   6.593   1.100  0.8348  0.6273  1.5018
    2MOL   C359  781   6.838   6.343   1.706 -0.4195 -0.7945  0.6280
    2MOL   C360  782   6.747   6.379   1.830  0.6413  0.0335  0.0248
    2MOL   C361  783   6.609   6.322   1.821 -0.4272  0.0189 -0.2997
    2MOL   O362  784   6.507   6.394   1.842  0.0624 -0.3751 -0.4802
    2MOL   O363  785   6.604   6.200   1.769  0.5105  0.2877 -0.6738
    2MOL   C364  786   6.476   6.145   1.747  0.6000  0.3977  0.1829
    2MOL   C365  787   6.493   6.049   1.628 -0.5706  0.0785  0.6702
    2MOL   C366  788   6.363   5.981   1.584 -1.1392  0.0393  0.7293
    2MOL   C367  789   6.372   5.860   1.494 -0.1654 -0.3630 -0.0564
    2MOL   H368  790   6.935   6.391   1.714 -0.4993 -0.5587  0.1900
    2MOL   H369  791   6.862   6.238   1.722 -0.7202 -1.0684 -0.6499
    2MOL   H370  792   6.731   6.487   1.826 -0.4091 -0.1006  0.3398
    2MOL   H371  793   6.396   6.215   1.724 -0.8169 -0.3416  2.6951
    2MOL   H372  794   6.436   6.084   1.828  1.0360 -0.4071 -0.2098
    2MOL   H373  795   6.540   6.107   1.549  0.6232  1.7808  2.5716
    2MOL   H374  796   6.566   5.971   1.649  0.4963  0.2934 -2.0893
    2MOL   H375  797   6.284   6.050   1.556 -1.6807 -1.1470 -0.7207
    2MOL   H376  798   6.326   5.934   1.675 -1.3031 -0.3423  0.4630
    2MOL   H377  799   6.472   5.817   1.504  0.5365  1.6480  1.9634
    2MOL   H378  800   6.379   5.893   1.390  0.4350 -2.9072 -0.8770
    2MOL   H379  801   6.298   5.782   1.514  0.2478 -1.3316 -2.1189
    2MOL   C380  802   6.820   6.341   1.954  0.4853  0.1992  0.1573
    2MOL   C381  803   6.753   6.390   2.089 -0.2074  0.3028  0.0654
    2MOL   C382  804   6.711   6.275   2.176  1.0266 -0.2630 -0.2655
    2MOL   O383  805   6.794   6.206   2.231 -0.1781  0.2509 -0.0305
    2MOL   O384  806   6.585   6.255   2.182  0.2201 -0.3987  0.2732
    2MOL   C385  807   6.524   6.148   2.260 -0.0511  0.6489 -0.2094
    2MOL   C386  808   6.392   6.101   2.200  0.2524  0.2248  0.5490
    2MOL   C387  809   6.310   5.997   2.284  0.2000 -0.3995  0.3485
    2MOL   C388  810   6.158   5.998   2.241 -0.6628 -0.1454 -0.1930
    2MOL   H389  811   6.928   6.354   1.955  0.8722 -2.6917 -1.3534
    2MOL   H390  812   6.814   6.233   1.956 -0.4186  0.2542  0.4580
    2MOL   H391  813   6.663   6.444   2.060 -0.6791 -0.7465 -0.4559
    2MOL   H392  814   6.507   6.190   2.360 -1.1958 -0.9219  0.2654
    2MOL   H393  815   6.597   6.072   2.288 -1.8422 -1.0621 -0.0878
    2MOL   H394  816   6.329   6.190   2.198  1.2613  0.9346 -1.5359
    2MOL   H395  817   6.398   6.067   2.097 -0.3961  0.5425  0.4052
    2MOL   H396  818   6.323   6.022   2.389 -1.6463 -1.6947  0.9098
    2MOL   H397  819   6.353   5.900   2.258 -2.2234 -1.8084  1.4418
    2MOL   H398  820   6.109   5.912   2.288  0.6504 -1.4526 -1.1702
    2MOL   H399  821   6.152   5.996   2.133  2.6292  0.4022 -0.4557
    2MOL   H400  822   6.122   6.094   2.278  0.5737  0.3791 -0.3237
    2MOL   C401  823   6.850   6.488   2.167 -0.1332 -0.9663  0.9715
    2MOL   C402  824   6.786   6.559   2.281 -0.0623 -0.0166  0.7383
    2MOL   C403  825   6.679   6.651   2.240  0.2421 -0.5435  0.5800
    2MOL   O404  826   6.557   6.620   2.232 -0.2832  0.4783 -0.0537
    2MOL   O405  827   6.725   6.774   2.219 -0.0574  0.6243 -0.3205
    2MOL   C406  828   6.642   6.887   2.194  0.2000 -0.0728  0.0169
    2MOL   C407  829   6.699   7.005   2.275  0.3187 -0.2526 -0.3498
    2MOL   C408  830   6.594   7.115   2.291  0.2327 -0.3057  0.2603
    2MOL   C409  831   6.486   7.097   2.400  0.3168  0.7614 -0.1830
    2MOL   H410  832   6.895   6.565   2.105 -2.4408 -0.2252  0.1735
    2MOL   H411  833   6.932   6.424   2.201 -0.0433 -1.4474 -0.1202
    2MOL   H412  834   6.846   6.607   2.359 -1.5985  1.9414  0.7247
    2MOL   H413  835   6.543   6.864   2.234  0.3300  0.3621  0.5919
    2MOL   H414  836   6.648   6.916   2.089  0.0226  1.8802  0.5317
    2MOL   H415  837   6.740   6.962   2.366 -1.4904  0.4559  0.8081
    2MOL   H416  838   6.777   7.059   2.221 -0.8212  1.4080 -0.3783
    2MOL   H417  839   6.554   7.141   2.193  1.2870  2.5473  0.5177
    2MOL   H418  840   6.663   7.196   2.316 -2.3924  2.1000  0.0813
    2MOL   H419  841   6.425   7.187   2.402 -1.6316 -0.5538  1.9157
    2MOL   H420  842   6.530   7.073   2.497  2.0750  1.4489 -0.7966
    2MOL   H421  843   6.412   7.020   2.378  1.3389  0.1246 -1.4788
    2MOL   H422  844   6.742   6.481   2.343 -0.9831  0.9545  1.2976
    3MOL     C1  845   2.119   1.055   7.672  0.0868  0.7907  0.4608
    3MOL     C2  846   2.036   1.145   7.763  0.1143 -0.8472 -0.1302
    3MOL     C3  847   1.928   1.066   7.841  0.2998 -0.8130  0.3073
    3MOL     O4  848   1.886   0.963   7.794 -0.0342 -0.0911 -0.0612
    3MOL     O5  849   1.879   1.121   0.103  0.2542 -0.2550  0.1413
    3MOL     C6  850   1.763   1.078   0.170  0.3014  0.0862  0.4742
    3MOL     C7  851   1.648   1.157   0.112 -0.5467  0.3967 -0.3930
    3MOL     C8  852   1.508   1.115   0.169  0.2037 -1.0854 -0.1319
    3MOL     C9  853   1.395   1.206   0.115  0.2360  0.0130  0.3563
    3MOL    H10  854   2.207   1.094   7.620  1.0195 -1.3645  0.3783
    3MOL    H11  855   2.147   0.962   7.721  2.8168  0.9680 -0.6210
    3MOL    H12  856   1.978   1.212   7.699  3.0741  1.2511 -0.7261
    3MOL    H13  857   1.764   1.103   0.276 -1.1589  1.9064  0.0826
    3MOL    H14  858   1.739   0.972   0.157 -0.4217  0.4763 -1.4270
    3MOL    H15  859   1.668   1.261   0.139 -1.2623  0.5799 -0.5432
    3MOL    H16  860   1.655   1.133   0.006 -1.7064  3.7151 -1.2951
    3MOL    H17  861   1.510   1.113   0.278 -0.7132 -0.6618 -0.0978
    3MOL    H18  862   1.486   1.015   0.130  0.8630 -0.1918 -2.8938
    3MOL    H19  863   1.442   1.300   0.088  0.7002 -0.8328 -1.9766
    3MOL    H20  864   1.312   1.220   0.184  1.1098  1.0372  1.2166
    3MOL    H21  865   1.360   1.172   0.017  3.6667 -0.8907 -0.6155
    3MOL    H22  866   2.064   1.028   7.582 -1.7508  2.1408  1.1682
    3MOL    C23  867   2.124   1.235   7.846  0.0226 -0.1666  0.1012
    3MOL    C24  868   2.213   1.167   0.106  0.8224 -0.2438 -0.4707
    3MOL    C25  869   2.337   1.102   0.048  0.0882  0.4765  0.7880
    3MOL    O26  870   2.432   1.170   0.010  0.3283 -0.4238 -0.8178
    3MOL    O27  871   2.337   0.966   0.045  0.2335 -0.1960  0.4130
    3MOL    C28  872   2.441   0.891   7.839 -0.0962  0.4036 -0.6955
    3MOL    C29  873   2.457   0.755   0.066 -0.5015  0.2296  0.0424
    3MOL    C30  874   2.493   0.766   0.212 -1.3292 -0.3340  1.1832
    3MOL    C31  875   2.511   0.632   0.284 -0.3075 -0.1887  0.2107
    3MOL    H32  876   2.066   1.312   0.044  0.9000 -0.4046  1.4717
    3MOL    H33  877   2.185   1.303   7.786 -0.0646 -0.6357 -0.5261
    3MOL    H34  878   2.137   1.096   0.138 -0.1309  1.4067  0.9986
    3MOL    H35  879   2.536   0.945   7.847 -0.4777  0.8705  0.8054
    3MOL    H36  880   2.430   0.885   7.731  0.6347  0.8516 -0.7989
    3MOL    H37  881   2.356   0.715   0.056 -1.5219  2.4811  0.8946
    3MOL    H38  882   2.539   0.697   0.023  0.9419  2.2039  0.0645
    3MOL    H39  883   2.440   0.847   0.260 -1.9016 -0.2902  0.4959
    3MOL    H40  884   2.596   0.801   0.205 -1.1216 -1.3569 -1.6195
    3MOL    H41  885   2.517   0.642   0.392  1.9548 -0.7854  0.1673
    3MOL    H42  886   2.604   0.578   0.263 -0.8747 -1.2971  0.5322
    3MOL    H43  887   2.418   0.579   0.265  0.7648 -1.4749 -1.7517
    3MOL    C44  888   2.267   1.261   0.223  0.4872  0.1521 -0.1344
    3MOL    C45  889   2.154   1.306   0.321  0.3367  0.4021  0.2716
    3MOL    C46  890   2.093   1.181   0.399  0.4912 -1.1638  0.2745
    3MOL    O47  891   1.974   1.177   0.419 -0.4686  0.1819  0.2258
    3MOL    O48  892   2.184   1.088   0.435  0.3512 -0.0328 -0.3104
    3MOL    C49  893   2.141   0.982   0.511 -0.0655  0.5902  0.6476
    3MOL    C50  894   2.228   0.863   0.489 -0.1348 -0.0646  0.1363
    3MOL    C51  895   2.160   0.737   0.544  0.1356  0.3141 -0.0196
    3MOL    C52  896   2.237   0.606   0.515  0.2150 -0.0256 -0.4756
    3MOL    H53  897   2.306   1.352   0.177 -0.0054 -0.7351 -2.3858
    3MOL    H54  898   2.352   1.210   0.266  0.9151 -2.0101 -3.3904
    3MOL    H55  899   2.073   1.360   0.271  0.3927  1.6181  1.4613
    3MOL    H56  900   2.035   0.961   0.499  0.2330 -0.1527 -0.7051
    3MOL    H57  901   2.158   1.005   0.616 -0.3538 -1.7719  1.2261
    3MOL    H58  902   2.253   0.856   0.383  0.4390  0.9584  0.2001
    3MOL    H59  903   2.322   0.885   0.540  0.3888 -2.2048  0.1297
    3MOL    H60  904   2.058   0.729   0.506 -0.2619  0.7205  0.9409
    3MOL    H61  905   2.158   0.737   0.653 -3.9379 -0.2990 -0.0259
    3MOL    H62  906   2.242   0.568   0.412 -0.0954  2.5185 -1.4593
    3MOL    H63  907   2.195   0.530   0.581  2.2738 -2.8824 -2.3379
    3MOL    H64  908   2.337   0.619   0.555 -0.0127  1.4422 -0.3805
    3MOL    C65  909   2.194   1.411   0.433 -1.0667  0.4954 -0.5798
    3MOL    C66  910   2.276   1.540   0.386 -0.2480  0.0208 -0.3281
    3MOL    C67  911   2.209   1.617   0.275  0.4443  0.1383  0.8348
    3MOL    O68  912   2.246   1.603   0.159  0.2758  0.4280 -0.0249
    3MOL    O69  913   2.116   1.696   0.320  0.1020 -0.6938 -0.2812
    3MOL    C70  914   2.041   1.773   0.232  0.0317 -0.4709 -0.4143
    3MOL    C71  915   2.071   1.917   0.254 -0.4311 -0.2195 -0.2293
    3MOL    C72  916   1.950   2.000   0.211  0.5136 -0.5354  0.1292
    3MOL    C73  917   1.992   2.144   0.170 -0.3364 -0.5696 -0.0077
    3MOL    H74  918   2.259   1.356   0.501 -3.3871 -1.8967 -0.1939
    3MOL    H75  919   2.113   1.450   0.495 -0.1366  0.0557  0.9212
    3MOL    H76  920   2.367   1.500   0.340  1.9519  2.0222  2.0690
    3MOL    H77  921   1.934   1.758   0.245  0.2764 -0.7982  1.3198
    3MOL    H78  922   2.066   1.733   0.134 -1.3240 -2.6563  0.0843
    3MOL    H79  923   2.089   1.944   0.358  1.5392  2.6776 -1.2450
    3MOL    H80  924   2.160   1.954   0.202  0.9339  0.7662  2.7174
    3MOL    H81  925   1.864   2.022   0.276  0.2352  1.6888 -0.9361
    3MOL    H82  926   1.898   1.955   0.126  2.1608 -4.5252  1.1387
    3MOL    H83  927   2.066   2.182   0.240  0.0825  0.5333 -1.0444
    3MOL    H84  928   1.906   2.210   0.163  1.0535  1.3978  1.0466
    3MOL    H85  929   2.046   2.142   0.076 -1.9565  0.8784 -1.0019
    3MOL    C86  930   2.307   1.631   0.513  0.2154  0.4173  1.1419
    3MOL    C87  931   2.437   1.706   0.483 -0.6850 -0.3191 -0.8476
    3MOL    C88  932   2.412   1.856   0.429  0.2397  0.4645 -0.2142
    3MOL    O89  933   2.438   1.896   0.313 -0.2188 -0.0966  0.1543
    3MOL    O90  934   2.349   1.940   0.526  0.0973  0.6893  0.3146
    3MOL    C91  935   2.322   2.076   0.502  0.7541  0.6721  0.5405
    3MOL    C92  936   2.313   2.153   0.635 -0.2746 -0.0115  0.8312
    3MOL    C93  937   2.183   2.124   0.714 -0.2475  0.0429 -0.3336
    3MOL    C94  938   2.160   2.232   0.825 -0.1013  0.1695  0.1505
    3MOL    H95  939   2.322   1.565   0.599  2.7275 -0.2795  0.2280
    3MOL    H96  940   2.217   1.688   0.535 -0.2421  0.7971 -1.5591
    3MOL    H97  941   2.497   1.649   0.412 -0.2860 -1.7888  0.6240
    3MOL    H98  942   2.227   2.093   0.450  0.0403 -2.1805  0.8398
    3MOL    H99  943   2.395   2.121   0.435  0.1110  2.0678  0.7489
    3MOL   H100  944   2.404   2.125   0.688  0.0685  0.7292  0.6448
    3MOL   H101  945   2.297   2.260   0.617 -3.3926 -0.6731 -0.7367
    3MOL   H102  946   2.181   2.025   0.760 -0.1862  1.2723  2.3666
    3MOL   H103  947   2.104   2.117   0.639 -0.8798  3.3969 -0.0602
    3MOL   H104  948   2.068   2.211   0.880 -0.0075 -1.5591 -0.3448
    3MOL   H105  949   2.168   2.334   0.787 -0.7364  0.0924 -0.2009
    3MOL   H106  950   2.239   2.211   0.897 -1.6236 -1.4698  1.3890
    3MOL   C107  951   2.524   1.708   0.612  0.5452  0.5084 -0.1686
    3MOL   C108  952   2.655   1.801   0.621  0.2864 -0.2046 -0.1458
    3MOL   C109  953   2.730   1.768   0.754  0.2968  0.5911  0.2637
    3MOL   O110  954   2.730   1.837   0.849  0.2029  0.2704  0.2085
    3MOL   O111  955   2.784   1.642   0.748 -0.0582  0.2786  0.3432
    3MOL   C112  956   2.837   1.586   0.869 -0.3151 -0.7434  0.5865
    3MOL   C113  957   2.730   1.519   0.959 -0.5374 -0.1292  0.4011
    3MOL   C114  958   2.776   1.480   1.103 -0.0985 -0.5318 -0.2716
    3MOL   C115  959   2.825   1.603   1.178  0.6023  0.5340 -0.3728
    3MOL   H116  960   2.554   1.605   0.632 -0.5613  0.6518  2.5486
    3MOL   H117  961   2.459   1.728   0.697  1.5419 -0.0418  0.7461
    3MOL   H118  962   2.611   1.898   0.643  1.1268 -0.1158  1.1969
    3MOL   H119  963   2.893   1.661   0.925 -1.5856  0.6681  0.0358
    3MOL   H120  964   2.902   1.503   0.843 -0.1720 -0.0048 -1.5811
    3MOL   H121  965   2.642   1.582   0.973  0.2569  0.8784  0.8677
    3MOL   H122  966   2.691   1.430   0.910 -1.9448  0.0857  1.1052
    3MOL   H123  967   2.856   1.407   1.096  0.5537  0.1644 -0.1049
    3MOL   H124  968   2.694   1.435   1.159  0.6753 -0.0771  1.2583
    3MOL   H125  969   2.757   1.688   1.181 -1.1738 -0.9062  1.3473
    3MOL   H126  970   2.919   1.638   1.136  0.9282  1.7308  1.3064
    3MOL   H127  971   2.851   1.588   1.283 -1.9200  3.1549  0.6877
    3MOL   C128  972   2.744   1.805   0.496  0.3702 -0.0914 -0.0607
    3MOL   C129  973   2.834   1.932   0.487  0.4977  1.3740  0.0880
    3MOL   C130  974   2.964   1.914   0.568  0.1677  0.8505  0.0652
    3MOL   O131  975   2.958   1.931   0.688 -1.1014 -0.1633 -0.5012
    3MOL   O132  976   3.062   1.873   0.494 -0.9803  0.1520 -0.6678
    3MOL   C133  977   3.183   1.844   0.565 -0.0193 -0.3341  0.1476
    3MOL   C134  978   3.298   1.831   0.467 -0.1473  0.0708 -0.0758
    3MOL   C135  979   3.436   1.831   0.537  0.3814 -0.3534  0.3883
    3MOL   C136  980   3.473   1.700   0.611  0.2262 -0.5385 -0.5109
    3MOL   H137  981   2.676   1.815   0.412 -1.2190  0.1288  1.2249
    3MOL   H138  982   2.796   1.710   0.479  0.4496 -0.1872  0.6831
    3MOL   H139  983   2.792   2.016   0.542  0.4940  0.5654  1.3304
    3MOL   H140  984   3.169   1.750   0.619  1.3264 -0.9764 -0.5940
    3MOL   H141  985   3.221   1.923   0.629 -0.0733  0.5372 -0.8887
    3MOL   H142  986   3.286   1.738   0.411  0.3594 -0.0668  0.0367
    3MOL   H143  987   3.279   1.901   0.386 -0.9935 -1.0286 -0.8491
    3MOL   H144  988   3.435   1.912   0.609  1.7066 -1.5452  1.7670
    3MOL   H145  989   3.517   1.849   0.466  0.3213  1.9610  0.8759
    3MOL   H146  990   3.501   1.615   0.549  2.8544 -1.1424  1.3978
    3MOL   H147  991   3.393   1.670   0.679  2.9475 -1.6229  2.3334
    3MOL   H148  992   3.554   1.719   0.682 -1.1565 -1.5552  1.3749
    3MOL   C149  993   2.854   1.978   0.340  0.2651 -0.2682  0.3542
    3MOL   C150  994   2.949   2.107   0.322  1.0958 -0.3698  0.8662
    3MOL   C151  995   3.037   2.093   0.198  0.2261  0.8014 -0.1245
    3MOL   O152  996   3.154   2.112   0.221 -0.0029  0.5183  0.1043
    3MOL   O153  997   2.972   2.070   0.083 -0.3497 -0.4850  0.9712
    3MOL   C154  998   3.048   2.067   7.821  0.8315 -0.7480  0.2107
    3MOL   C155  999   3.119   1.932   7.800 -0.0752 -0.1610  0.1681
    3MOL   C156 1000   3.022   1.809   7.817  0.1824  0.5997 -0.1078
    3MOL   C157 1001   3.095   1.681   7.790  0.6008 -0.6823 -0.4140
    3MOL   H158 1002   2.748   1.999   0.324  0.0532 -1.4553  0.1739
    3MOL   H159 1003   2.888   1.895   0.279 -1.6940 -0.3414 -0.6685
    3MOL   H160 1004   3.017   2.117   0.406  0.6219  0.9522  1.1072
    3MOL   H161 1005   3.123   2.146   7.821 -1.8725  1.9261  0.8568
    3MOL   H162 1006   2.984   2.083   7.733  1.7613  2.2451  0.0006
    3MOL   H163 1007   3.160   1.932   7.699 -1.6192 -0.1018 -0.4837
    3MOL   H164 1008   3.202   1.903   0.012 -1.2659 -2.0568  0.9173
    3MOL   H165 1009   2.931   1.806   7.758  0.1063 -1.7981  0.0886
    3MOL   H166 1010   2.984   1.810   0.066  2.6961 -0.0769  0.8653
    3MOL   H167 1011   3.021   1.607   7.761 -1.8018  2.6988 -3.4434
    3MOL   H168 1012   3.158   1.640   0.016  1.7712 -0.8398 -1.4209
    3MOL   H169 1013   3.150   1.689   7.696 -0.6954 -2.8707 -1.3984
    3MOL   C170 1014   2.855   2.232   0.318 -0.8116  0.2235 -0.1076
    3MOL   C171 1015   2.926   2.372   0.326 -0.3188 -0.2739 -0.4445
    3MOL   C172 1016   2.841   2.495   0.269  0.3559  0.1101 -0.2433
    3MOL   O173 1017   2.795   2.585   0.338 -0.1279  0.2513 -0.2486
    3MOL   O174 1018   2.832   2.486   0.132  0.6121  0.5260  1.1562
    3MOL   C175 1019   2.742   2.569   0.059  0.0740 -0.2293 -0.3520
    3MOL   C176 1020   2.732   2.545   7.766 -0.6542 -0.0283 -0.3490
    3MOL   C177 1021   2.685   2.672   7.694  0.2212 -0.6920 -0.1605
    3MOL   C178 1022   2.586   2.634   7.580  0.6857  0.1188 -0.7578
    3MOL   H179 1023   2.794   2.234   0.408 -0.7347  1.5193 -0.0737
    3MOL   H180 1024   2.776   2.227   0.243  0.0073  1.2649 -1.0563
    3MOL   H181 1025   3.008   2.374   0.254 -0.7975  0.0826 -0.9816
    3MOL   H182 1026   2.776   2.672   0.071  0.7048 -0.2846 -1.5817
    3MOL   H183 1027   2.642   2.557   0.101  0.1961  2.1174  0.7364
    3MOL   H184 1028   2.831   2.523   7.727  0.6103  1.5419  1.8352
    3MOL   H185 1029   2.672   2.458   7.739 -2.1058  0.2654  1.7880
    3MOL   H186 1030   2.772   2.719   7.650  0.2475 -0.9271 -0.3594
    3MOL   H187 1031   2.635   2.734   7.769  1.3939  0.8838 -0.6731
    3MOL   H188 1032   2.641   2.591   7.496  1.5558 -0.9351  0.3240
    3MOL   H189 1033   2.543   2.732   7.558  0.6393  0.5760  1.2460
    3MOL   H190 1034   2.501   2.569   7.603 -0.4874  0.6951 -3.2873
    3MOL   C191 1035   2.999   2.402   0.464  0.6086 -0.2839  0.3495
    3MOL   C192 1036   3.157   2.410   0.449 -0.2714 -0.2626  0.7897
    3MOL   C193 1037   3.199   2.554   0.418  0.0863  0.7359  0.3985
    3MOL   O194 1038   3.232   2.632   0.505 -0.2617  0.3475  0.0845
    3MOL   O195 1039   3.183   2.579   0.289 -0.0919  0.3568 -0.2299
    3MOL   C196 1040   3.223   2.704   0.244  0.3642  0.2884  0.4704
    3MOL   C197 1041   3.133   2.744   0.130 -0.2051  0.1480 -0.5448
    3MOL   C198 1042   3.172   2.648   0.011  0.2810  0.1815 -0.0513
    3MOL   C199 1043   3.113   2.708   7.728  0.2109  0.0853 -0.0906
    3MOL   H200 1044   2.989   2.315   0.529  0.3480  1.0312  2.1163
    3MOL   H201 1045   2.956   2.485   0.519 -2.9347 -1.2337 -0.8644
    3MOL   H202 1046   3.185   2.346   0.365  1.9715 -0.5283  1.7058
    3MOL   H203 1047   3.327   2.698   0.212 -0.0246  0.1423 -0.7689
    3MOL   H204 1048   3.201   2.777   0.322 -0.0568  2.4284 -1.6186
    3MOL   H205 1049   3.029   2.732   0.160 -0.6151  1.3891 -1.4028
    3MOL   H206 1050   3.147   2.847   0.095  1.3568  0.0388 -0.3014
    3MOL   H207 1051   3.139   2.544   0.021 -0.3708  0.3258 -0.7303
    3MOL   H208 1052   3.281   2.636   0.006  0.1472 -1.7328  0.8949
    3MOL   H209 1053   3.123   2.638   7.646 -1.6411 -1.8476  1.2603
    3MOL   H210 1054   3.170   2.797   7.704 -0.7954  0.9145  0.5378
    3MOL   H211 1055   3.008   2.735   7.738  0.4432  2.1080 -2.6904
    3MOL   C212 1056   3.229   2.357   0.578  0.0469  0.7142  0.1064
    3MOL   C213 1057   3.378   2.339   0.577 -0.9562  0.0607  0.8503
    3MOL   C214 1058   3.433   2.316   0.719  0.5284  0.0725 -0.6836
    3MOL   O215 1059   3.525   2.381   0.773 -0.5143  0.4663 -0.5038
    3MOL   O216 1060   3.369   2.218   0.785 -0.4427  0.3506 -0.4009
    3MOL   C217 1061   3.380   2.201   0.924  0.7932  0.2252  0.0378
    3MOL   C218 1062   3.299   2.075   0.960 -0.0211 -0.6382 -0.2949
    3MOL   C219 1063   3.150   2.087   0.926  0.0137 -0.3928  0.1451
    3MOL   C220 1064   3.075   1.954   0.955  0.2219  0.5752 -0.0279
    3MOL   H221 1065   3.172   2.274   0.619 -1.1554  0.1607 -2.5884
    3MOL   H222 1066   3.210   2.423   0.662 -0.3720 -2.6698  2.7663
    3MOL   H223 1067   3.422   2.432   0.540 -0.8983 -0.6492 -0.9006
    3MOL   H224 1068   3.336   2.282   0.983 -1.7134 -1.2916  0.3229
    3MOL   H225 1069   3.485   2.188   0.950  0.7647  1.1226  0.6231
    3MOL   H226 1070   3.337   1.986   0.909  0.7221 -0.3347 -0.2783
    3MOL   H227 1071   3.305   2.050   1.066  0.8002  1.7734  0.2600
    3MOL   H228 1072   3.152   2.116   0.821  0.8079  0.6798  0.4416
    3MOL   H229 1073   3.111   2.171   0.984  0.2997  0.7214 -1.2227
    3MOL   H230 1074   2.973   1.969   0.920  0.3229  0.1209 -0.5223
    3MOL   H231 1075   3.076   1.937   1.063 -0.8086  0.3398 -0.0530
    3MOL   H232 1076   3.099   1.863   0.901 -3.1933 -0.1988 -0.3881
    3MOL   C233 1077   3.431   2.217   0.497 -0.0776 -0.1334 -0.4983
    3MOL   C234 1078   3.472   2.253   0.351  0.1237 -0.1023  0.2364
    3MOL   C235 1079   3.570   2.372   0.330  0.2601 -0.1075 -0.2185
    3MOL   O236 1080   3.530   2.483   0.291  0.1338  0.1294 -0.5456
    3MOL   O237 1081   3.697   2.345   0.380 -0.5772  0.6609  0.2523
    3MOL   C238 1082   3.799   2.441   0.391  0.0540  0.6559  0.4964
    3MOL   C239 1083   3.820   2.486   0.536  0.3776  0.1814 -0.2985
    3MOL   C240 1084   3.924   2.599   0.536  0.0097  0.1645 -0.8386
    3MOL   C241 1085   3.974   2.627   0.673 -0.1222 -0.3718  0.4092
    3MOL   H242 1086   3.343   2.153   0.488 -0.8730  0.7579  0.7278
    3MOL   H243 1087   3.505   2.161   0.554 -0.2470  0.0424 -0.1037
    3MOL   H244 1088   3.378   2.284   0.305  0.2244  0.4290  0.3956
    3MOL   H245 1089   3.769   2.522   0.325  2.1493  0.6706 -0.4781
    3MOL   H246 1090   3.893   2.407   0.348 -0.4976  2.3094 -2.1116
    3MOL   H247 1091   3.724   2.523   0.571  0.4220  0.2356 -0.2332
    3MOL   H248 1092   3.851   2.403   0.598  0.9223  0.5813 -0.0248
    3MOL   H249 1093   3.876   2.689   0.497  0.4971  0.3019 -1.1243
    3MOL   H250 1094   4.012   2.575   0.476  0.2712  0.0632 -0.4107
    3MOL   H251 1095   4.056   2.697   0.656 -1.4278  1.0129 -0.3688
    3MOL   H252 1096   4.004   2.530   0.713  2.9581  0.7909  1.0522
    3MOL   H253 1097   3.907   2.670   0.747 -0.4494  1.6016 -1.0058
    3MOL   C254 1098   3.514   2.127   0.274 -0.8138 -0.1296  0.4215
    3MOL   C255 1099   3.546   2.149   0.121 -0.3021 -0.4612  0.5527
    3MOL   C256 1100   3.644   2.031   0.079  0.1260 -0.7011 -0.1715
    3MOL   O257 1101   3.609   1.922   0.105  1.0435  0.5007 -0.2191
    3MOL   O258 1102   3.735   2.069   7.838  0.4329  0.4523  0.0320
    3MOL   C259 1103   3.822   1.967   7.786 -1.0714 -0.2492 -0.1028
    3MOL   C260 1104   3.917   2.027   7.686  0.6259  0.1777  0.1965
    3MOL   C261 1105   3.857   2.083   7.559  0.2869  0.1695  0.0401
    3MOL   C262 1106   3.773   1.984   7.474  0.0360 -0.4940 -1.2635
    3MOL   H263 1107   3.436   2.054   0.296 -0.4922 -0.1657  1.4866
    3MOL   H264 1108   3.602   2.094   0.329 -1.0639  0.0178  0.9169
    3MOL   H265 1109   3.614   2.234   0.110 -1.9331  0.8638  0.4802
    3MOL   H266 1110   3.760   1.891   7.738 -0.7630  0.7979 -2.2144
    3MOL   H267 1111   3.874   1.938   0.025 -0.8290  1.2267  0.2337
    3MOL   H268 1112   3.955   2.116   7.736  0.3133  2.4763 -3.3867
    3MOL   H269 1113   4.000   1.958   7.669  0.9159  0.3395  0.9282
    3MOL   H270 1114   3.937   2.115   7.493  1.5110 -0.9267  0.9646
    3MOL   H271 1115   3.793   2.170   7.572  0.6168  0.5733 -1.0482
    3MOL   H272 1116   3.684   1.954   7.530  0.7575  1.0507  0.7484
    3MOL   H273 1117   3.830   1.899   7.437  0.2762 -0.4513 -0.9962
    3MOL   H274 1118   3.745   2.038   7.384 -1.9368  0.9363  0.1579
    3MOL   C275 1119   3.423   2.159   0.026 -0.0138 -0.2800 -0.0645
    3MOL   C276 1120   3.457   2.237   7.752  0.8391 -0.7312 -0.2046
    3MOL   C277 1121   3.376   2.190   7.638  0.1064  0.0821 -0.3003
    3MOL   O278 1122   3.269   2.244   7.611  0.2864 -0.4614  0.1746
    3MOL   O279 1123   3.433   2.090   7.569  0.1223  0.0529  0.0340
    3MOL   C280 1124   3.363   2.013   7.472 -0.5726 -0.0894  0.0367
    3MOL   C281 1125   3.419   2.042   7.328 -0.1889 -0.1473 -0.1076
    3MOL   C282 1126   3.422   2.192   7.291 -0.2061  0.4965  0.2485
    3MOL   C283 1127   3.445   2.210   7.139  0.5186 -1.1205 -0.6439
    3MOL   H284 1128   3.352   2.224   0.077 -0.6562 -1.4231  0.4959
    3MOL   H285 1129   3.378   2.063   0.003 -0.1286 -0.0675 -0.7350
    3MOL   H286 1130   3.561   2.209   7.734 -0.1328 -4.6012 -0.2796
    3MOL   H287 1131   3.255   2.031   7.469 -0.9386 -2.1313 -0.1246
    3MOL   H288 1132   3.378   1.908   7.496 -3.5519 -0.3607  0.9567
    3MOL   H289 1133   3.516   1.995   7.319 -0.6865 -1.0403 -0.9334
    3MOL   H290 1134   3.360   1.980   7.261 -0.8055  0.3238 -0.0125
    3MOL   H291 1135   3.501   2.246   7.344 -0.1987 -0.0087  0.7626
    3MOL   H292 1136   3.334   2.250   7.318  1.0815  2.0426  1.2271
    3MOL   H293 1137   3.352   2.188   7.087 -0.6509  0.1804  0.8583
    3MOL   H294 1138   3.528   2.150   7.100  1.0727 -0.3651 -0.6458
    3MOL   H295 1139   3.471   2.313   7.116  0.5478 -0.8877  0.4437
    3MOL   C296 1140   3.455   2.393   7.769 -0.1309 -0.2317  0.7499
    3MOL   C297 1141   3.537   2.461   7.656  1.0905 -0.1434 -0.0612
    3MOL   C298 1142   3.501   2.604   7.646  0.1810 -0.8731  0.2298
    3MOL   O299 1143   3.449   2.652   7.548  0.3489  0.0891  0.8518
    3MOL   O300 1144   3.552   2.678   7.751 -0.8841  0.2242 -0.1257
    3MOL   C301 1145   3.548   2.818   7.748 -0.0856  0.1958  0.1611
    3MOL   C302 1146   3.700   2.861   7.721  0.3079  0.8140 -0.9429
    3MOL   C303 1147   3.810   2.845   7.836  0.4581  0.4504 -0.3932
    3MOL   C304 1148   3.923   2.944   7.810  0.4039  0.2533  0.4873
    3MOL   H305 1149   3.491   2.423   0.014  2.5126  0.5965 -0.4154
    3MOL   H306 1150   3.348   2.412   7.765 -0.0542  0.0384 -0.3415
    3MOL   H307 1151   3.499   2.434   7.558 -2.1903  1.7459  0.5987
    3MOL   H308 1152   3.504   2.852   7.842 -0.2531  0.5827 -0.0555
    3MOL   H309 1153   3.483   2.865   7.674 -0.3342  1.9802  1.4575
    3MOL   H310 1154   3.748   2.828   7.629 -1.2243 -1.8063 -0.8527
    3MOL   H311 1155   3.681   2.968   7.721 -2.0387  0.4153 -1.5638
    3MOL   H312 1156   3.850   2.744   7.836 -0.4247  0.0638  1.3901
    3MOL   H313 1157   3.761   2.858   0.080 -0.6682  1.4128 -1.0720
    3MOL   H314 1158   4.009   2.917   0.018 -0.2070 -0.9388  0.8218
    3MOL   H315 1159   3.887   3.045   7.829  1.1105  0.1983  2.2150
    3MOL   H316 1160   3.958   2.938   7.707 -2.5367  3.1934 -0.7779
    3MOL   C317 1161   3.684   2.441   7.666  0.4540  0.0728 -0.3574
    3MOL   C318 1162   3.778   2.518   7.569 -0.2345 -0.7771 -0.0058
    3MOL   C319 1163   3.924   2.528   7.613  0.5062 -0.3465 -0.1125
    3MOL   O320 1164   3.981   2.441   7.678 -0.4213 -0.1690  0.1226
    3MOL   O321 1165   3.973   2.644   7.580  0.0172  0.4552 -0.5989
    3MOL   C322 1166   4.105   2.678   7.634  0.2985 -0.0231 -0.8232
    3MOL   C323 1167   4.191   2.772   7.541  0.2105  0.0859  0.1087
    3MOL   C324 1168   4.331   2.816   7.591  0.1399  0.3559  1.1255
    3MOL   C325 1169   4.349   2.906   7.705 -0.0740 -0.4345  0.2716
    3MOL   H326 1170   3.711   2.337   7.652  2.4781  0.2142  2.1088
    3MOL   H327 1171   3.719   2.459   7.768  0.2896  1.5372 -0.5408
    3MOL   H328 1172   3.754   2.624   7.556  1.1975 -0.3620  0.6943
    3MOL   H329 1173   4.165   2.590   7.654 -0.0136  0.3632  2.0487
    3MOL   H330 1174   4.101   2.708   7.739  3.5373 -2.1525 -0.0237
    3MOL   H331 1175   4.203   2.716   7.448  0.4287  0.8173 -0.3126
    3MOL   H332 1176   4.125   2.853   7.508 -0.2394  0.0836  0.9915
    3MOL   H333 1177   4.378   2.866   7.506 -0.8037  1.6120  1.3299
    3MOL   H334 1178   4.382   2.722   7.612  0.0298  0.4481  1.7952
    3MOL   H335 1179   4.301   3.003   7.697  0.3081 -0.3182 -0.7246
    3MOL   H336 1180   4.456   2.926   7.714 -0.1612  1.2515 -2.0994
    3MOL   H337 1181   4.319   2.844   7.790 -2.2965  0.2546  0.0288
    3MOL   C338 1182   3.764   2.463   7.423  0.2451  0.4688 -0.4653
    3MOL   C339 1183   3.817   2.557   7.311  0.4704 -0.2540  0.0749
    3MOL   C340 1184   3.946   2.496   7.254 -0.2248 -0.5063 -0.0113
    3MOL   O341 1185   4.043   2.479   7.324 -0.1050 -0.0957  0.5387
    3MOL   O342 1186   3.939   2.443   7.127 -0.4288  0.1306  0.1151
    3MOL   C343 1187   4.037   2.363   7.077  0.1432 -0.3780  0.3950
    3MOL   C344 1188   4.034   2.212   7.121 -0.5602  0.1301 -0.0827
    3MOL   C345 1189   4.152   2.136   7.064 -0.2634 -0.4658  0.7183
    3MOL   C346 1190   4.165   1.991   7.109 -0.2306  0.4591 -0.0115
    3MOL   H347 1191   3.657   2.449   7.410  0.2691  1.6170 -2.0951
    3MOL   H348 1192   3.810   2.365   7.419 -0.0374  0.3180  0.0324
    3MOL   H349 1193   3.850   2.650   7.357 -1.7221  2.0437 -2.7906
    3MOL   H350 1194   4.137   2.388   7.112  0.7310 -0.7829 -0.9616
    3MOL   H351 1195   4.046   2.372   6.969 -0.8648  0.5906  0.3833
    3MOL   H352 1196   4.028   2.207   7.229 -0.3072 -0.6243 -0.0987
    3MOL   H353 1197   3.938   2.177   7.083  0.3167 -1.7179 -0.6608
    3MOL   H354 1198   4.248   2.181   7.089 -0.7268  0.8158  0.2165
    3MOL   H355 1199   4.151   2.152   6.956  0.4317  1.6889  1.0170
    3MOL   H356 1200   4.258   1.943   7.077 -0.2466 -0.3802  1.1654
    3MOL   H357 1201   4.077   1.933   7.084  0.2542  0.5603 -2.1023
    3MOL   H358 1202   4.165   1.989   7.218 -2.2018  0.5832 -0.0018
    3MOL   C359 1203   3.713   2.587   7.197  0.3036 -0.4342  0.1426
    3MOL   C360 1204   3.592   2.678   7.236 -0.0145  0.3640 -0.7888
    3MOL   C361 1205   3.645   2.813   7.288 -0.2872 -0.0840 -0.1737
    3MOL   O362 1206   3.593   2.865   7.386 -0.4049 -0.1041  0.5581
    3MOL   O363 1207   3.745   2.866   7.213 -0.0003  0.2644 -0.2401
    3MOL   C364 1208   3.800   2.991   7.238  0.2690  0.3197  0.4478
    3MOL   C365 1209   3.894   2.991   7.359  0.6346 -0.5726  0.0884
    3MOL   C366 1210   3.954   3.129   7.381 -0.1950  0.2076 -0.3175
    3MOL   C367 1211   4.028   3.150   7.509  0.5897 -0.0667 -0.2317
    3MOL   H368 1212   3.671   2.492   7.165  0.6451 -0.7217  0.5302
    3MOL   H369 1213   3.759   2.637   7.111  0.3641 -2.2273 -0.8791
    3MOL   H370 1214   3.539   2.637   7.322  0.4082  0.2415 -0.5857
    3MOL   H371 1215   3.716   3.056   7.263 -1.0272 -1.9071  2.1698
    3MOL   H372 1216   3.849   3.025   7.148 -0.4253  1.7189  0.5911
    3MOL   H373 1217   3.844   2.943   7.444  0.4017 -0.0429  0.2530
    3MOL   H374 1218   3.977   2.927   7.332  0.8833  0.4649 -1.6258
    3MOL   H375 1219   3.868   3.196   7.374 -0.5063 -0.0257  1.1669
    3MOL   H376 1220   4.012   3.161   7.295  1.5493 -0.5783  0.5544
    3MOL   H377 1221   4.092   3.067   7.539  0.9931  0.4967  0.4976
    3MOL   H378 1222   3.962   3.161   7.595 -0.3296 -0.4755 -0.8775
    3MOL   H379 1223   4.091   3.239   7.513 -1.5950  1.4755  1.0852
    3MOL   C380 1224   3.507   2.700   7.110  0.0018  0.3528 -0.7136
    3MOL   C381 1225   3.368   2.766   7.127  0.4181  0.2502  0.0747
    3MOL   C382 1226   3.308   2.780   6.986  1.2240 -0.1690  0.3067
    3MOL   O383 1227   3.333   2.703   6.890  0.2949  0.7654 -0.6004
    3MOL   O384 1228   3.218   2.882   6.975  0.8648 -0.2427 -0.3935
    3MOL   C385 1229   3.163   2.902   6.844 -0.0417 -0.2279 -0.0769
    3MOL   C386 1230   3.030   2.984   6.828 -0.6216 -0.6168 -0.3124
    3MOL   C387 1231   3.023   3.121   6.899  0.3873  0.5489  0.6552
    3MOL   C388 1232   3.097   3.236   6.834  0.5276  0.4372  0.0990
    3MOL   H389 1233   3.499   2.598   7.072  1.7645 -0.3424  0.7136
    3MOL   H390 1234   3.558   2.756   7.032 -1.1626 -2.1851 -3.3914
    3MOL   H391 1235   3.380   2.870   7.157 -0.2596  0.5219 -0.5997
    3MOL   H392 1236   3.134   2.810   6.794 -0.8405  1.0124 -1.9536
    3MOL   H393 1237   3.231   2.964   6.786  0.3450 -1.8391 -1.3629
    3MOL   H394 1238   3.024   2.998   6.720  2.3812  0.6505 -0.3627
    3MOL   H395 1239   2.941   2.931   6.862 -0.6254 -0.9335 -0.8226
    3MOL   H396 1240   3.064   3.115   7.000 -1.5686  1.6125  1.5391
    3MOL   H397 1241   2.917   3.145   6.908  0.1506  1.1473 -2.9367
    3MOL   H398 1242   3.091   3.339   6.870  0.0104  0.4321  0.0412
    3MOL   H399 1243   3.055   3.242   6.733 -0.0416 -2.8695  0.0827
    3MOL   H400 1244   3.201   3.212   6.814  0.4087 -0.0875  0.0887
    3MOL   C401 1245   3.277   2.689   7.228  0.4079 -0.8834  0.0727
    3MOL   C402 1246   3.265   2.535   7.208 -0.6632 -0.9782 -0.5970
    3MOL   C403 1247   3.145   2.494   7.123 -0.0151  0.0338  0.4916
    3MOL   O404 1248   3.034   2.539   7.140 -0.6182  0.7387  0.2424
    3MOL   O405 1249   3.183   2.412   7.026 -0.4826  0.4263  0.6815
    3MOL   C406 1250   3.096   2.351   6.924 -0.0057 -0.4452  0.0308
    3MOL   C407 1251   3.080   2.462   6.814 -0.8543  1.5201  0.3796
    3MOL   C408 1252   2.998   2.405   6.697 -0.8618  0.2504 -0.4951
    3MOL   C409 1253   2.970   2.495   6.578 -1.4945 -0.1597 -0.0608
    3MOL   H410 1254   3.185   2.748   7.224  1.4918  0.7682 -2.3797
    3MOL   H411 1255   3.325   2.706   7.324 -0.7293  2.0128  0.1624
    3MOL   H412 1256   3.250   2.489   7.306 -2.7774 -0.0698 -0.4580
    3MOL   H413 1257   2.999   2.318   6.961 -0.3702 -1.2708 -1.5872
    3MOL   H414 1258   3.150   2.264   6.886 -0.1735 -0.3727 -0.3791
    3MOL   H415 1259   3.029   2.547   6.859 -1.7094  0.8364  0.7026
    3MOL   H416 1260   3.177   2.506   6.788 -1.6830  1.8947 -2.2776
    3MOL   H417 1261   2.905   2.366   6.738  0.5213 -2.8357 -0.0643
    3MOL   H418 1262   3.049   2.312   6.670 -1.3401  0.1244 -0.9777
    3MOL   H419 1263   3.061   2.508   6.520  1.4777  0.3094  4.4394
    3MOL   H420 1264   2.931   2.592   6.609 -1.2696  0.4592 -1.6433
    3MOL   H421 1265   2.889   2.448   6.522 -1.7781 -0.8239  0.8876
    3MOL   H422 1266   3.365   2.508   7.177 -0.1120 -0.1614  0.4100
    4MOL     C1 1267   4.198   0.394   1.465 -0.6414 -0.4525 -0.0724
    4MOL     C2 1268   4.248   0.257   1.405 -0.1052  0.2247  0.1723
    4MOL     C3 1269   4.395   0.265   1.366 -0.3328  0.0020  0.0559
    4MOL     O4 1270   4.480   0.217   1.438 -0.3316  0.4715 -0.0810
    4MOL     O5 1271   4.412   0.332   1.250  0.2597  0.0035  0.0557
    4MOL     C6 1272   4.536   0.322   1.175  0.1399  0.0038  0.4722
    4MOL     C7 1273   4.522   0.314   1.024  0.2778  0.0537  0.0516
    4MOL     C8 1274   4.435   0.197   0.979 -0.9304  0.8208 -0.3599
    4MOL     C9 1275   4.435   0.173   0.826  0.0451  0.6464 -0.0009
    4MOL    H10 1276   4.091   0.381   1.477 -0.8585  2.5426  1.8657
    4MOL    H11 1277   4.255   0.415   1.555  0.7871  0.9136 -1.2547
    4MOL    H12 1278   4.199   0.247   1.309 -0.6070 -1.8416  0.6211
    4MOL    H13 1279   4.579   0.226   1.203 -0.3097 -0.4377 -0.3391
    4MOL    H14 1280   4.599   0.405   1.209 -2.1530  0.6287  3.3227
    4MOL    H15 1281   4.495   0.413   0.987  0.7595 -0.4719 -1.7179
    4MOL    H16 1282   4.624   0.311   0.987  0.2400 -0.7746  0.0175
    4MOL    H17 1283   4.336   0.219   1.020 -0.6443 -2.4533  2.3388
    4MOL    H18 1284   4.474   0.110   1.031  1.5703  2.8349  1.2979
    4MOL    H19 1285   4.388   0.259   0.778  3.3977  1.1034 -2.6458
    4MOL    H20 1286   4.368   0.090   0.805  0.9681 -0.1207  0.0068
    4MOL    H21 1287   4.533   0.152   0.783 -1.0285 -1.7978 -1.3426
    4MOL    H22 1288   4.217   0.482   1.403  2.2596 -1.0775 -0.1718
    4MOL    C23 1289   4.228   0.136   1.494  0.2981  0.5087 -0.0875
    4MOL    C24 1290   4.079   0.086   1.490  0.5124  0.2420 -0.1092
    4MOL    C25 1291   4.040   0.034   1.349 -0.1301  0.2141 -0.4948
    4MOL    O26 1292   3.976   0.094   1.264 -0.4571  0.4247 -0.0875
    4MOL    O27 1293   4.091   7.761   1.333  0.3106  0.0435 -0.4056
    4MOL    C28 1294   4.071   7.696   1.209 -0.9456 -0.1332  0.9632
    4MOL    C29 1295   4.083   7.539   1.224 -0.4000 -0.5662  0.3141
    4MOL    C30 1296   4.059   7.471   1.086 -0.0967 -0.6534  0.2393
    4MOL    C31 1297   4.058   7.314   1.105 -0.0328 -0.1217  0.4877
    4MOL    H32 1298   4.262   0.153   1.597  0.4852 -1.5739  0.2316
    4MOL    H33 1299   4.285   0.051   1.456  2.1141  1.6094  0.0702
    4MOL    H34 1300   4.016   0.172   1.510 -0.5968 -0.5715 -0.0127
    4MOL    H35 1301   4.150   7.740   1.149 -1.7860  0.5549  0.3481
    4MOL    H36 1302   3.973   7.722   1.170  0.3563  2.6832 -0.5265
    4MOL    H37 1303   4.182   7.510   1.256 -0.2365 -1.7234 -1.1467
    4MOL    H38 1304   4.011   7.505   1.299  0.1600  0.3990  1.2971
    4MOL    H39 1305   4.143   7.502   1.024 -1.1513  2.0630  0.0513
    4MOL    H40 1306   3.974   7.509   1.028  1.5249  2.6642 -0.1020
    4MOL    H41 1307   4.153   7.272   1.139  0.1456  0.2981  0.5137
    4MOL    H42 1308   4.058   7.261   1.009 -0.1071 -0.2160  0.5397
    4MOL    H43 1309   3.977   7.273   1.166 -0.1028 -0.3553  0.2395
    4MOL    C44 1310   4.036   7.835   1.600  0.5545 -0.2817 -0.0924
    4MOL    C45 1311   4.010   0.042   1.733 -0.7952  0.3074  0.0051
    4MOL    C46 1312   3.865   0.032   1.786 -0.3449  0.3945  0.5615
    4MOL    O47 1313   3.830   7.839   1.894 -0.0891 -0.2639  0.6446
    4MOL    O48 1314   3.781   0.076   1.702 -0.1822 -0.3149  0.2024
    4MOL    C49 1315   3.642   0.105   1.742 -0.2836 -0.6741 -0.1696
    4MOL    C50 1316   3.524   0.052   1.654 -0.3604 -0.7209 -0.0493
    4MOL    C51 1317   3.517   0.108   1.512 -0.1384 -0.2018 -0.2959
    4MOL    C52 1318   3.375   0.081   1.458 -0.5125  0.2511 -0.5056
    4MOL    H53 1319   4.111   7.756   1.602  0.5768 -0.2956 -1.4847
    4MOL    H54 1320   3.946   7.784   1.566  0.1319  1.3208 -1.4233
    4MOL    H55 1321   4.023   0.150   1.727  1.0353  0.1086  0.1970
    4MOL    H56 1322   3.641   0.214   1.750  0.6764 -0.6901  0.2805
    4MOL    H57 1323   3.617   0.078   1.845  0.6806  1.5621  0.7021
    4MOL    H58 1324   3.536   7.797   1.654 -1.6289 -0.8993  1.9726
    4MOL    H59 1325   3.434   0.084   1.707  0.8303 -1.3042  2.4135
    4MOL    H60 1326   3.586   0.052   1.450 -0.4139 -0.6064 -0.2350
    4MOL    H61 1327   3.555   0.210   1.508  3.2814 -1.4592 -2.0925
    4MOL    H62 1328   3.364   0.113   1.354 -1.1505 -1.0809 -0.8624
    4MOL    H63 1329   3.308   0.138   1.523  0.3202 -0.1370  0.6946
    4MOL    H64 1330   3.350   7.828   1.459  0.4554 -0.0041 -1.8973
    4MOL    C65 1331   4.122   0.001   1.842 -0.1948 -0.1201  0.0597
    4MOL    C66 1332   4.139   7.699   1.885  0.3513 -0.1035  0.2057
    4MOL    C67 1333   4.230   7.619   1.805  0.0788 -0.3079 -0.2799
    4MOL    O68 1334   4.344   7.652   1.788 -0.3110  0.0970 -0.2678
    4MOL    O69 1335   4.171   7.507   1.752  0.2600  0.1126 -0.0303
    4MOL    C70 1336   4.247   7.409   1.683 -0.7103  0.2970 -0.5250
    4MOL    C71 1337   4.253   7.431   1.534  0.0330 -0.4933 -0.0101
    4MOL    C72 1338   4.340   7.330   1.462  0.2131 -0.1459 -0.3602
    4MOL    C73 1339   4.485   7.321   1.506 -0.4642 -0.3377  0.0851
    4MOL    H74 1340   4.104   0.064   1.929  2.3827 -1.3624  1.5431
    4MOL    H75 1341   4.223   0.032   1.818 -0.3727  1.3161  1.0981
    4MOL    H76 1342   4.040   7.660   1.860  1.5616 -2.2506 -1.3877
    4MOL    H77 1343   4.201   7.313   1.704  0.6307 -0.6826 -1.9862
    4MOL    H78 1344   4.343   7.396   1.732  0.0462  0.1184 -2.0161
    4MOL    H79 1345   4.154   7.428   1.488 -0.0095  1.1978 -0.0465
    4MOL    H80 1346   4.286   7.532   1.510  4.7383 -2.1337 -0.9392
    4MOL    H81 1347   4.334   7.345   1.354  2.6624  1.1690 -0.3455
    4MOL    H82 1348   4.288   7.236   1.485  0.8318 -1.1126 -2.7285
    4MOL    H83 1349   4.487   7.333   1.614  1.3459  0.8416 -0.0529
    4MOL    H84 1350   4.553   7.399   1.472 -0.6257 -0.5100 -0.6451
    4MOL    H85 1351   4.532   7.226   1.482  2.4745  0.8984  0.6367
    4MOL    C86 1352   4.169   7.677   2.035 -0.3758  0.3089 -0.1226
    4MOL    C87 1353   4.077   7.741   2.137 -0.3198  0.0209  0.2216
    4MOL    C88 1354   4.012   7.631   2.226  0.4087  0.1387  0.9280
    4MOL    O89 1355   3.903   7.579   2.194  0.3156  0.5560  0.0362
    4MOL    O90 1356   4.089   7.592   2.325  0.1998  0.0462 -0.1891
    4MOL    C91 1357   4.058   7.487   2.410 -0.1269 -0.5786 -0.4349
    4MOL    C92 1358   3.978   7.535   2.529  0.0712  0.7327 -0.4809
    4MOL    C93 1359   4.054   7.631   2.622  0.5917 -0.2809 -0.3677
    4MOL    C94 1360   3.965   7.695   2.723 -0.7656 -0.8172  0.1282
    4MOL    H95 1361   4.266   7.723   2.055 -1.0178  1.5864  0.1351
    4MOL    H96 1362   4.182   7.569   2.046  0.2186  0.4397  0.5405
    4MOL    H97 1363   3.992   7.774   2.076 -1.5562 -2.0749  0.7378
    4MOL    H98 1364   4.156   7.446   2.433 -0.2360  0.0916  1.3053
    4MOL    H99 1365   4.008   7.404   2.361  0.4193 -0.6976 -0.7924
    4MOL   H100 1366   3.892   7.589   2.490 -1.8840 -2.2335 -0.5190
    4MOL   H101 1367   3.940   7.449   2.586  1.4406  0.4020 -0.0435
    4MOL   H102 1368   4.102   7.711   2.565 -2.4703 -0.0380 -2.6967
    4MOL   H103 1369   4.126   7.574   2.681  2.0347  0.3616 -1.4650
    4MOL   H104 1370   4.031   7.747   2.791 -0.7905 -0.2148 -0.3009
    4MOL   H105 1371   3.901   7.623   2.774 -0.8883  0.3296  1.6203
    4MOL   H106 1372   3.910   7.777   2.676 -0.0486 -0.6720 -0.4679
    4MOL   C107 1373   4.146   7.852   2.220  0.9578  0.1151  0.2801
    4MOL   C108 1374   4.036   0.080   2.295  0.2332 -0.0605  0.1879
    4MOL   C109 1375   4.106   0.172   2.396 -0.3297 -0.2784  0.1489
    4MOL   O110 1376   4.065   0.175   2.515 -0.0343  0.5888 -0.7951
    4MOL   O111 1377   4.199   0.253   2.343 -0.2345  0.4736  0.1100
    4MOL   C112 1378   4.254   0.352   2.431  0.8462 -0.4463  0.6356
    4MOL   C113 1379   4.385   0.416   2.374  0.1318  0.5432  0.0740
    4MOL   C114 1380   4.481   0.307   2.323  0.3208 -0.1160 -0.1267
    4MOL   C115 1381   4.623   0.343   2.269 -0.7467 -0.3114  0.1451
    4MOL   H116 1382   4.203   0.065   2.154 -0.1031 -1.1199 -1.9447
    4MOL   H117 1383   4.219   7.817   2.292  1.6765  0.1807 -0.4120
    4MOL   H118 1384   3.981   0.003   2.349  2.1541 -1.5743  0.0467
    4MOL   H119 1385   4.270   0.320   2.534 -0.7102  0.5509  1.1993
    4MOL   H120 1386   4.175   0.426   2.435  1.9094  0.6077  2.8575
    4MOL   H121 1387   4.362   0.474   2.285  2.4976 -0.3053 -1.1482
    4MOL   H122 1388   4.427   0.474   2.456  0.8246  1.2359 -0.7645
    4MOL   H123 1389   4.435   0.259   2.237 -2.4248  2.0903  0.0585
    4MOL   H124 1390   4.502   0.244   2.410  2.7311  3.3954  1.9972
    4MOL   H125 1391   4.684   0.254   2.253  0.8034  0.4896  1.5135
    4MOL   H126 1392   4.659   0.413   2.344  1.5306 -0.7403 -0.5024
    4MOL   H127 1393   4.629   0.395   2.174 -0.1580 -3.6085 -1.7152
    4MOL   C128 1394   3.926   0.160   2.221  0.0364  0.3436 -0.0675
    4MOL   C129 1395   3.795   0.194   2.295  0.4997 -0.1039 -0.7686
    4MOL   C130 1396   3.767   0.350   2.305  0.3032 -0.2936 -0.0863
    4MOL   O131 1397   3.678   0.395   2.234 -0.6141 -0.5963  0.2704
    4MOL   O132 1398   3.861   0.422   2.385  0.4936  0.0913  0.0931
    4MOL   C133 1399   3.849   0.561   2.366  0.1857  0.2120  0.3647
    4MOL   C134 1400   3.947   0.607   2.257  0.0034  0.6012  0.1557
    4MOL   C135 1401   3.932   0.750   2.212  0.4885 -0.2243 -0.1425
    4MOL   C136 1402   4.022   0.795   2.108 -0.4433  0.0955 -0.6118
    4MOL   H137 1403   3.896   0.095   2.139 -2.7968  0.1663  1.0783
    4MOL   H138 1404   3.978   0.241   2.169 -1.9397  0.9370 -1.1804
    4MOL   H139 1405   3.801   0.165   2.399 -0.1603  2.1672 -0.0671
    4MOL   H140 1406   3.877   0.595   2.466  0.8409  0.5130  0.0741
    4MOL   H141 1407   3.746   0.596   2.357  0.7380  1.6963 -0.2974
    4MOL   H142 1408   4.051   0.592   2.287  0.4172  1.5767 -0.7824
    4MOL   H143 1409   3.924   0.551   2.167  0.3436  0.0989  0.3747
    4MOL   H144 1410   3.952   0.811   2.300  1.5534  0.2921 -0.7441
    4MOL   H145 1411   3.830   0.771   2.179  0.2718  0.3428  0.8700
    4MOL   H146 1412   4.118   0.743   2.106 -2.5875 -4.1625  0.9532
    4MOL   H147 1413   4.046   0.900   2.125 -0.8070 -0.0189  0.6514
    4MOL   H148 1414   3.986   0.773   2.008  1.4125 -3.0842 -0.6829
    4MOL   C149 1415   3.681   0.117   2.236 -0.1128 -0.8096  0.3164
    4MOL   C150 1416   3.683   7.820   2.255  0.5340  0.0849  0.3256
    4MOL   C151 1417   3.670   7.769   2.398  0.1913 -0.5523 -0.1536
    4MOL   O152 1418   3.681   7.846   2.498  0.2353  0.2773  0.0051
    4MOL   O153 1419   3.638   7.639   2.413 -0.0378 -0.0518 -0.0891
    4MOL   C154 1420   3.596   7.591   2.536  0.1998 -0.1553 -0.7416
    4MOL   C155 1421   3.548   7.446   2.527 -0.2928  1.0554  0.5597
    4MOL   C156 1422   3.647   7.357   2.451 -0.1226  0.0640  0.4300
    4MOL   C157 1423   3.605   7.204   2.450  0.2918  0.3196  0.0201
    4MOL   H158 1424   3.663   0.142   2.131 -3.0950 -1.8869  0.4985
    4MOL   H159 1425   3.592   0.156   2.285  0.8776 -0.0682  1.5362
    4MOL   H160 1426   3.780   7.787   2.217 -0.0888 -1.1923 -0.1539
    4MOL   H161 1427   3.519   7.645   2.590  1.2774 -0.5427  1.2191
    4MOL   H162 1428   3.684   7.585   2.600  0.0682 -0.6813 -0.6045
    4MOL   H163 1429   3.535   7.400   2.625 -2.2220  1.0539  0.3293
    4MOL   H164 1430   3.444   7.445   2.494  0.2156  1.8255 -1.0805
    4MOL   H165 1431   3.746   7.376   2.494  1.0080 -0.1542 -1.9606
    4MOL   H166 1432   3.644   7.404   2.353 -0.3880  0.2197  0.5146
    4MOL   H167 1433   3.499   7.194   2.473 -0.0677  0.4638 -1.5046
    4MOL   H168 1434   3.648   7.146   2.531 -1.5331  2.2887  2.5106
    4MOL   H169 1435   3.611   7.161   2.350 -1.2681 -0.7672  0.3750
    4MOL   C170 1436   3.577   7.752   2.153 -0.5113 -0.1944 -0.0576
    4MOL   C171 1437   3.424   7.786   2.176 -0.1562 -0.9519  0.1954
    4MOL   C172 1438   3.373   0.024   2.061 -0.1556  0.9873 -0.3555
    4MOL   O173 1439   3.328   7.824   1.960  0.4997  0.2126  0.4159
    4MOL   O174 1440   3.395   0.154   2.081  0.2190 -0.8850 -0.2297
    4MOL   C175 1441   3.358   0.258   1.987 -0.5097 -0.2566 -0.2605
    4MOL   C176 1442   3.277   0.368   2.059  0.5259  0.1019 -0.1383
    4MOL   C177 1443   3.355   0.430   2.180  0.8519 -0.7426 -0.7802
    4MOL   C178 1444   3.275   0.539   2.247  0.1170  0.8098 -0.1105
    4MOL   H179 1445   3.588   7.644   2.162 -1.2410 -0.1682  1.3146
    4MOL   H180 1446   3.607   7.781   2.052  0.0444 -0.1461  0.1205
    4MOL   H181 1447   3.417   7.848   2.265  1.2786  2.2858 -1.8185
    4MOL   H182 1448   3.304   0.211   1.905 -0.1712 -0.7485 -0.2029
    4MOL   H183 1449   3.453   0.293   1.945 -0.9798  2.5683  0.9105
    4MOL   H184 1450   3.275   0.445   1.982 -1.8004  0.7697  0.5567
    4MOL   H185 1451   3.176   0.338   2.086  0.5921 -1.2825 -1.4061
    4MOL   H186 1452   3.447   0.483   2.158 -0.4732  1.4606 -1.2053
    4MOL   H187 1453   3.382   0.361   2.260  1.0799 -0.7657 -0.8786
    4MOL   H188 1454   3.189   0.494   2.297 -0.1217 -0.2377 -1.4650
    4MOL   H189 1455   3.245   0.615   2.175 -0.4345  0.6803 -0.0218
    4MOL   H190 1456   3.334   0.592   2.322  0.6365 -1.7278  1.3551
    4MOL   C191 1457   3.350   7.655   2.203  0.0127  0.3224  0.4735
    4MOL   C192 1458   3.200   7.680   2.252 -1.5269 -0.2799 -0.1797
    4MOL   C193 1459   3.195   7.787   2.369 -0.2556  0.5465  0.0990
    4MOL   O194 1460   3.232   7.764   2.482 -0.0833 -0.3822 -0.6030
    4MOL   O195 1461   3.143   0.055   2.326  0.1171 -0.5165  0.3757
    4MOL   C196 1462   3.122   0.168   2.416  0.7950 -0.1722  0.7572
    4MOL   C197 1463   2.990   0.156   2.496 -0.0401  0.2709 -0.3430
    4MOL   C198 1464   2.864   0.198   2.415  0.8438  0.5201 -0.3547
    4MOL   C199 1465   2.728   0.171   2.476  0.2697 -0.0468  0.1382
    4MOL   H200 1466   3.400   7.600   2.283 -0.6753  0.7125  1.1819
    4MOL   H201 1467   3.345   7.597   2.111  2.1989 -0.5863  0.8901
    4MOL   H202 1468   3.168   7.587   2.300 -0.6633  0.2117  1.4105
    4MOL   H203 1469   3.107   0.253   2.350 -0.1748 -0.3225  0.7775
    4MOL   H204 1470   3.209   0.192   2.477  0.9007  1.8195 -0.1574
    4MOL   H205 1471   2.998   0.062   2.550 -1.0335 -0.6490 -1.7795
    4MOL   H206 1472   2.994   0.230   2.577  0.0521 -0.0168 -0.0822
    4MOL   H207 1473   2.877   0.142   2.322 -1.0081 -0.6211  0.0583
    4MOL   H208 1474   2.872   0.304   2.392  2.4815  0.4030 -0.4423
    4MOL   H209 1475   2.732   0.193   2.583  0.1780 -2.5069  0.6770
    4MOL   H210 1476   2.696   0.067   2.477  0.0377  0.0238  0.8798
    4MOL   H211 1477   2.655   0.227   2.417  1.6901  3.0130  1.1859
    4MOL   C212 1478   3.100   7.713   2.137  0.4897 -0.4285  0.2514
    4MOL   C213 1479   2.961   7.668   2.181  0.8989  0.2800  0.7729
    4MOL   C214 1480   2.859   7.746   2.100  0.4053  0.4446 -0.3645
    4MOL   O215 1481   2.766   7.811   2.154  0.0947 -0.2289 -0.5971
    4MOL   O216 1482   2.882   7.736   1.968  0.3601 -0.7437 -0.2802
    4MOL   C217 1483   2.791   7.804   1.886 -0.4167  0.1655  0.0329
    4MOL   C218 1484   2.841   7.808   1.744 -0.0314 -0.6989 -0.8289
    4MOL   C219 1485   2.948   0.065   1.731 -0.5864  0.1441  0.0742
    4MOL   C220 1486   3.002   0.070   1.591  0.2391  0.3513 -0.0469
    4MOL   H221 1487   3.111   7.659   2.042 -2.7045  0.2707 -0.5767
    4MOL   H222 1488   3.102   7.818   2.109 -0.9301 -0.1948  0.9777
    4MOL   H223 1489   2.944   7.695   2.285  0.1263 -0.4030  0.8359
    4MOL   H224 1490   2.779   0.054   1.919  2.9732 -0.0365  2.1296
    4MOL   H225 1491   2.689   7.765   1.884 -0.0426 -0.7788 -0.9669
    4MOL   H226 1492   2.881   7.710   1.718 -0.0622 -1.4395  1.7823
    4MOL   H227 1493   2.757   7.810   1.674 -0.4801  0.2846 -0.2742
    4MOL   H228 1494   3.028   0.050   1.804  0.1667  1.1493 -0.5363
    4MOL   H229 1495   2.901   0.156   1.767 -0.9079 -0.3379  0.8930
    4MOL   H230 1496   2.925   0.111   1.526  0.6119 -0.1119 -0.7834
    4MOL   H231 1497   3.023   7.821   1.559 -1.2410 -0.7526  2.3423
    4MOL   H232 1498   3.100   0.118   1.592 -0.1391  1.1357  0.9911
    4MOL   C233 1499   2.932   7.522   2.174  0.0717  0.5158  0.4700
    4MOL   C234 1500   2.798   7.471   2.235  0.3498  0.3161 -0.3909
    4MOL   C235 1501   2.757   7.335   2.177 -0.8415 -0.1433  0.6540
    4MOL   O236 1502   2.658   7.322   2.116 -0.3313 -0.1945 -0.4664
    4MOL   O237 1503   2.824   7.234   2.229 -0.1530 -0.0138  0.0642
    4MOL   C238 1504   2.779   7.106   2.202 -0.3725 -0.0111  0.6699
    4MOL   C239 1505   2.871   7.013   2.278  0.2258 -0.2764  0.5020
    4MOL   C240 1506   2.849   7.007   2.430 -0.1496 -0.4068  0.3120
    4MOL   C241 1507   2.938   6.910   2.503  0.4308  0.6405 -0.1459
    4MOL   H242 1508   3.014   7.474   2.228 -0.8954 -0.2311  1.2946
    4MOL   H243 1509   2.934   7.491   2.069  1.4624  1.8813  0.0706
    4MOL   H244 1510   2.724   7.537   2.189 -1.8555 -1.3378  0.6911
    4MOL   H245 1511   2.779   7.088   2.094 -1.4008  0.0919  0.6503
    4MOL   H246 1512   2.678   7.081   2.234 -0.3393  1.1765  1.6988
    4MOL   H247 1513   2.855   6.914   2.236  2.2607 -0.9378  1.2023
    4MOL   H248 1514   2.976   7.040   2.265  0.1261 -1.0777 -2.1651
    4MOL   H249 1515   2.743   6.988   2.447 -0.3431  0.5230  0.1784
    4MOL   H250 1516   2.859   7.107   2.471 -0.7746  0.2052 -0.9907
    4MOL   H251 1517   2.907   6.901   2.607  0.2900  0.8110 -0.1728
    4MOL   H252 1518   3.040   6.947   2.499  0.8144 -0.3770  0.0276
    4MOL   H253 1519   2.925   6.814   2.453 -0.4185  1.0902 -0.8069
    4MOL   C254 1520   2.781   7.476   2.389  0.1109  0.2425  0.0647
    4MOL   C255 1521   2.636   7.490   2.432  0.2279  0.1734  0.3519
    4MOL   C256 1522   2.626   7.430   2.571  0.1455 -0.2427  0.2602
    4MOL   O257 1523   2.627   7.490   2.678  0.1110 -0.1252 -0.6096
    4MOL   O258 1524   2.614   7.298   2.561 -0.6516 -0.0502 -0.0245
    4MOL   C259 1525   2.608   7.214   2.672  0.5584 -0.2821 -0.1036
    4MOL   C260 1526   2.459   7.205   2.722  0.4026 -0.3416  0.2877
    4MOL   C261 1527   2.454   7.157   2.865 -0.3215  1.0143  0.0887
    4MOL   C262 1528   2.308   7.129   2.916 -0.1156 -0.5995  0.0513
    4MOL   H263 1529   2.832   7.562   2.430 -0.9425  1.6877 -1.5651
    4MOL   H264 1530   2.837   7.397   2.439 -1.5238 -0.9159  0.1205
    4MOL   H265 1531   2.588   7.417   2.367 -0.2391 -0.3295  1.2597
    4MOL   H266 1532   2.673   7.264   2.744 -0.6175  1.4949 -0.2252
    4MOL   H267 1533   2.637   7.112   2.647  1.8293 -0.4868  2.1360
    4MOL   H268 1534   2.411   7.303   2.723  1.0152 -0.0300  3.0505
    4MOL   H269 1535   2.400   7.139   2.658 -1.0932  1.5377 -0.3209
    4MOL   H270 1536   2.487   7.245   2.920  0.3488  0.4686  0.5643
    4MOL   H271 1537   2.524   7.075   2.884 -3.9887 -1.7754  2.3934
    4MOL   H272 1538   2.248   7.218   2.896  2.0456  0.7138 -0.8302
    4MOL   H273 1539   2.298   7.103   3.022 -2.3520  1.1250  0.3046
    4MOL   H274 1540   2.272   7.053   2.848  0.2623 -1.2327  0.5463
    4MOL   C275 1541   2.580   7.635   2.421 -0.3319  0.1202 -0.4585
    4MOL   C276 1542   2.426   7.648   2.442 -0.3174  0.6546  0.2241
    4MOL   C277 1543   2.393   7.775   2.521 -1.0803 -0.1201 -0.1618
    4MOL   O278 1544   2.320   0.013   2.479  0.1184  0.2436  0.3248
    4MOL   O279 1545   2.457   7.783   2.636 -0.0658 -0.4927 -0.0938
    4MOL   C280 1546   2.446   0.055   2.707 -0.0741  0.3196  0.8435
    4MOL   C281 1547   2.331   0.060   2.805 -0.7342 -0.1327  0.3262
    4MOL   C282 1548   2.313   0.195   2.877 -0.0715  0.2777 -0.4475
    4MOL   C283 1549   2.252   0.196   3.015  0.1915 -0.4878 -0.9083
    4MOL   H284 1550   2.598   7.683   2.325 -2.2222 -0.2954 -1.0381
    4MOL   H285 1551   2.636   7.698   2.491 -1.6687 -0.8876  1.5783
    4MOL   H286 1552   2.388   7.562   2.497 -0.2559  0.6523  0.2613
    4MOL   H287 1553   2.446   0.145   2.646  3.8940 -0.4182 -0.4046
    4MOL   H288 1554   2.537   0.065   2.765  0.6119 -0.8188 -0.0189
    4MOL   H289 1555   2.231   0.031   2.775 -1.0208 -0.0716  1.2003
    4MOL   H290 1556   2.359   7.847   2.887 -2.7769  1.3772  2.3143
    4MOL   H291 1557   2.255   0.269   2.822 -1.5366  0.3256  1.0837
    4MOL   H292 1558   2.410   0.236   2.904 -0.4787 -1.2853  3.8907
    4MOL   H293 1559   2.315   0.141   3.085  1.5151  1.2273 -0.7089
    4MOL   H294 1560   2.153   0.151   3.017 -1.0524  2.2136 -0.4172
    4MOL   H295 1561   2.237   0.295   3.057  0.5719 -0.4685 -0.8158
    4MOL   C296 1562   2.356   7.651   2.303 -0.2041  0.3774 -0.7695
    4MOL   C297 1563   2.372   7.526   2.217 -0.1894 -0.5606  0.7586
    4MOL   C298 1564   2.310   7.404   2.292 -0.0406  0.5598  0.0926
    4MOL   O299 1565   2.198   7.407   2.336 -0.0423 -0.1465  0.2383
    4MOL   O300 1566   2.394   7.306   2.297  0.2266  0.1249 -0.0950
    4MOL   C301 1567   2.362   7.190   2.376 -0.1993 -0.1852  0.3147
    4MOL   C302 1568   2.287   7.094   2.282  0.0677 -0.6883 -0.0577
    4MOL   C303 1569   2.368   7.057   2.160 -0.1872  0.5540  0.0553
    4MOL   C304 1570   2.290   6.988   2.054 -0.2284 -0.3605 -0.2914
    4MOL   H305 1571   2.398   7.736   2.250 -1.0032  1.2060 -0.0834
    4MOL   H306 1572   2.252   7.677   2.323 -1.1794 -1.7966 -2.8164
    4MOL   H307 1573   2.474   7.494   2.200 -0.1795 -1.1497  1.8632
    4MOL   H308 1574   2.296   7.221   2.456 -0.8076  0.5054 -0.4502
    4MOL   H309 1575   2.457   7.164   2.422  0.3042  0.6481 -0.2312
    4MOL   H310 1576   2.247   7.004   2.329 -1.6819 -0.1066 -0.3949
    4MOL   H311 1577   2.190   7.141   2.263 -0.8495 -1.8165  1.6522
    4MOL   H312 1578   2.442   6.983   2.191  0.3423  1.4138  0.8712
    4MOL   H313 1579   2.424   7.139   2.115  2.3885  1.1105  3.9452
    4MOL   H314 1580   2.250   7.070   1.995  2.2101 -0.4391 -2.1229
    4MOL   H315 1581   2.206   6.930   2.093 -0.5499  0.5599  0.4069
    4MOL   H316 1582   2.352   6.920   1.995  1.4257 -0.9856  2.0877
    4MOL   C317 1583   2.314   7.539   2.072 -0.4755 -0.1413 -0.4982
    4MOL   C318 1584   2.361   7.443   1.959 -0.0814  0.1795 -0.3742
    4MOL   C319 1585   2.237   7.395   1.877  0.1614 -0.6635 -0.0966
    4MOL   O320 1586   2.220   7.422   1.762 -0.2175 -0.2492 -0.3154
    4MOL   O321 1587   2.161   7.306   1.949 -0.6270 -0.1686 -0.0240
    4MOL   C322 1588   2.045   7.248   1.889  0.1417 -0.8618 -0.5245
    4MOL   C323 1589   1.913   7.269   1.965  0.1501 -0.7758  0.5576
    4MOL   C324 1590   1.870   7.415   1.969 -0.4186  0.2227 -0.1243
    4MOL   C325 1591   1.727   7.441   2.024 -0.2250  0.3433  0.3108
    4MOL   H326 1592   2.331   7.641   2.038 -1.3104 -0.7970 -2.9999
    4MOL   H327 1593   2.208   7.521   2.094 -0.7151  1.1572 -0.5564
    4MOL   H328 1594   2.394   7.355   2.014  0.2109  0.1357 -0.6170
    4MOL   H329 1595   2.055   7.139   1.888 -3.6975 -1.2580 -2.9090
    4MOL   H330 1596   2.038   7.289   1.788  0.1923 -1.8271 -0.9272
    4MOL   H331 1597   1.852   7.200   1.908  1.5544 -0.6099 -1.1941
    4MOL   H332 1598   1.900   7.221   2.063 -0.1894  0.3908  1.0936
    4MOL   H333 1599   1.886   7.466   1.873  0.2211  0.0420 -0.1158
    4MOL   H334 1600   1.943   7.451   2.041  1.5123  0.3012 -2.0534
    4MOL   H335 1601   1.711   7.416   2.129 -2.0007  0.4196  0.0726
    4MOL   H336 1602   1.659   7.379   1.966  0.5069  0.5900 -0.8248
    4MOL   H337 1603   1.695   7.544   2.039  0.8288  0.2745  3.3388
    4MOL   C338 1604   2.480   7.510   1.884  0.9249 -0.7279  0.3893
    4MOL   C339 1605   2.570   7.408   1.809 -0.1708  0.0151  0.0449
    4MOL   C340 1606   2.511   7.382   1.666 -0.0454 -0.1030 -0.3811
    4MOL   O341 1607   2.507   7.272   1.620 -0.6477 -0.0772  0.2911
    4MOL   O342 1608   2.489   7.489   1.596 -0.1600 -0.2993 -0.6448
    4MOL   C343 1609   2.420   7.469   1.471  0.1314  0.2038  0.4184
    4MOL   C344 1610   2.370   7.600   1.412  0.2572  0.2875 -0.1899
    4MOL   C345 1611   2.291   7.674   1.524 -0.1104  0.1087  0.3411
    4MOL   C346 1612   2.224   7.806   1.480  0.3860 -0.2234  0.2085
    4MOL   H347 1613   2.537   7.548   1.969 -0.9389  1.5519  0.6740
    4MOL   H348 1614   2.442   7.594   1.827 -1.2268 -0.6615  1.8623
    4MOL   H349 1615   2.574   7.319   1.871 -1.3586  0.5786  0.9586
    4MOL   H350 1616   2.330   7.412   1.494  0.3386 -0.6468 -0.8445
    4MOL   H351 1617   2.488   7.415   1.406 -0.3931 -1.5185  1.2704
    4MOL   H352 1618   2.459   7.651   1.375  0.6713 -0.4346 -0.1907
    4MOL   H353 1619   2.302   7.584   1.329  0.3374  1.7943 -0.5585
    4MOL   H354 1620   2.347   7.691   1.616  1.8279 -1.4127 -0.5166
    4MOL   H355 1621   2.212   7.607   1.559  0.2976  0.0836  1.2350
    4MOL   H356 1622   2.158   7.797   1.394  0.5550  2.8882 -0.2907
    4MOL   H357 1623   2.303   0.019   1.445  0.7308 -0.1681  1.0690
    4MOL   H358 1624   2.161   0.001   1.555 -1.0264 -1.3420 -0.2327
    4MOL   C359 1625   2.717   7.458   1.804 -0.6886  0.3862  0.1917
    4MOL   C360 1626   2.818   7.358   1.746  0.4212 -0.1982  0.6962
    4MOL   C361 1627   2.944   7.437   1.699 -0.3137  0.0854 -0.8319
    4MOL   O362 1628   2.954   7.466   1.580  0.4129 -0.5340  0.0455
    4MOL   O363 1629   3.028   7.476   1.803  0.4601  0.4298 -0.0949
    4MOL   C364 1630   3.141   7.558   1.777 -0.8060  0.2527 -0.1796
    4MOL   C365 1631   3.272   7.467   1.793  0.5661  0.4041  0.2130
    4MOL   C366 1632   3.292   7.352   1.696  0.9610  0.2466 -0.6285
    4MOL   C367 1633   3.294   7.393   1.553  0.1930  0.4481 -0.2401
    4MOL   H368 1634   2.761   7.494   1.897  1.7631 -0.4397 -0.6194
    4MOL   H369 1635   2.712   7.551   1.748 -0.0709  0.0159 -0.4866
    4MOL   H370 1636   2.775   7.328   1.651 -0.1726 -1.0950  1.2433
    4MOL   H371 1637   3.142   7.634   1.855  0.8395  1.1509 -1.0430
    4MOL   H372 1638   3.140   7.603   1.678 -0.2908  2.4166  0.7624
    4MOL   H373 1639   3.352   7.540   1.782  1.3216 -0.5259 -0.5066
    4MOL   H374 1640   3.288   7.430   1.895  4.1447  1.8119  0.2058
    4MOL   H375 1641   3.212   7.278   1.702  0.9842  0.2065 -0.8368
    4MOL   H376 1642   3.385   7.302   1.721  0.7821  0.3357  0.2280
    4MOL   H377 1643   3.197   7.423   1.514 -0.3370  0.1617  0.8265
    4MOL   H378 1644   3.335   7.317   1.488  0.4438 -0.5373  1.0399
    4MOL   H379 1645   3.365   7.476   1.546 -1.0065  1.4578 -0.6210
    4MOL   C380 1646   2.844   7.238   1.838 -0.0930  1.0872 -0.5167
    4MOL   C381 1647   2.898   7.118   1.765  0.1785 -0.2103  0.8684
    4MOL   C382 1648   3.041   7.086   1.798 -0.2477  0.3426 -0.4734
    4MOL   O383 1649   3.097   7.119   1.903 -0.9773  0.3095  0.4500
    4MOL   O384 1650   3.110   7.013   1.708  0.0777  0.2527  0.2715
    4MOL   C385 1651   3.245   6.969   1.742  0.3171 -0.3343  0.8100
    4MOL   C386 1652   3.250   6.818   1.720 -0.1371 -0.2813 -0.5750
    4MOL   C387 1653   3.166   6.738   1.816 -0.6007 -0.5415 -0.0974
    4MOL   C388 1654   3.190   6.585   1.822  0.3161  0.0512 -0.5639
    4MOL   H389 1655   2.752   7.212   1.889 -0.0238 -1.1649 -1.4714
    4MOL   H390 1656   2.911   7.280   1.914  1.5832 -1.0095 -0.7734
    4MOL   H391 1657   2.876   7.129   1.659 -1.1556 -0.8202  1.0704
    4MOL   H392 1658   3.267   6.993   1.846 -0.0348 -2.1655  1.3174
    4MOL   H393 1659   3.324   7.016   1.683  1.3545 -2.0851  0.7747
    4MOL   H394 1660   3.232   6.802   1.614  2.3673  0.9262 -1.2319
    4MOL   H395 1661   3.357   6.795   1.724 -0.5352 -2.0353  0.6240
    4MOL   H396 1662   3.060   6.760   1.805 -0.3111  2.2906  2.2500
    4MOL   H397 1663   3.184   6.784   1.913 -0.8753  0.7060 -0.6277
    4MOL   H398 1664   3.161   6.540   1.727  3.7784 -2.8253 -0.3540
    4MOL   H399 1665   3.135   6.532   1.900  0.6051  0.8194  0.1672
    4MOL   H400 1666   3.293   6.565   1.851  0.5411  0.6973 -0.9148
    4MOL   C401 1667   2.822   6.983   1.798  0.4670 -0.0183 -0.0197
    4MOL   C402 1668   2.681   6.980   1.740 -0.1467  0.2355  0.2154
    4MOL   C403 1669   2.672   6.926   1.598 -0.0191  1.0741 -0.0123
    4MOL   O404 1670   2.764   6.921   1.521  0.4237 -0.6866 -0.5892
    4MOL   O405 1671   2.546   6.890   1.576 -0.7052 -0.5519 -0.7451
    4MOL   C406 1672   2.510   6.858   1.446  0.0834 -0.1179  0.0362
    4MOL   C407 1673   2.363   6.891   1.425 -0.0899 -0.4488  0.2674
    4MOL   C408 1674   2.318   7.030   1.471  0.6217  1.0852  0.6554
    4MOL   C409 1675   2.177   7.088   1.424 -0.3109 -0.4265 -0.2958
    4MOL   H410 1676   2.811   6.969   1.906  1.6058 -0.7732  0.0065
    4MOL   H411 1677   2.879   6.895   1.768  0.9249 -0.3075  1.6252
    4MOL   H412 1678   2.646   7.084   1.740  0.7152  0.5625 -1.4748
    4MOL   H413 1679   2.521   6.752   1.423  0.8036  0.2694 -1.4959
    4MOL   H414 1680   2.564   6.922   1.376 -0.0869 -0.3831 -0.3376
    4MOL   H415 1681   2.331   6.867   1.323  0.3655 -0.4591  0.1264
    4MOL   H416 1682   2.306   6.819   1.484  1.7831 -1.1593  1.2250
    4MOL   H417 1683   2.387   7.100   1.425  3.9137 -1.1671  2.0135
    4MOL   H418 1684   2.331   7.043   1.578  1.0460 -1.3814  0.9322
    4MOL   H419 1685   2.120   7.110   1.514 -1.5953  2.4054 -1.7278
    4MOL   H420 1686   2.116   7.026   1.358 -1.7621 -0.8098  1.3729
    4MOL   H421 1687   2.188   7.180   1.365 -0.0992 -0.6259 -0.5675
    4MOL   H422 1688   2.621   6.911   1.797 -0.4509  0.0249 -0.3563
    5MOL     C1 1689   0.150   4.771   6.314 -0.0508  0.0271  0.3093
    5MOL     C2 1690   0.217   4.868   6.214 -0.7263 -0.4130  0.0970
    5MOL     C3 1691   0.153   5.013   6.208  0.4685  0.1835  0.3469
    5MOL     O4 1692   0.092   5.062   6.111  0.1694  0.2070 -0.3247
    5MOL     O5 1693   0.161   5.080   6.331 -0.5038 -0.0401 -0.3443
    5MOL     C6 1694   0.093   5.205   6.347  0.3674 -0.1846  0.2923
    5MOL     C7 1695   0.068   5.246   6.495 -0.1222 -0.0624 -0.2395
    5MOL     C8 1696   0.025   5.397   6.509 -0.0626  0.3411 -0.0150
    5MOL     C9 1697   0.046   5.448   6.658  0.1224  0.4802 -0.5638
    5MOL    H10 1698   0.214   4.685   6.334  1.8517  1.6065  1.1840
    5MOL    H11 1699   0.127   4.821   6.408 -0.4026 -0.2247  0.3576
    5MOL    H12 1700   0.200   4.834   6.112  1.5732  3.1011 -1.5905
    5MOL    H13 1701   7.849   5.196   6.299 -0.3468  3.5843  0.8702
    5MOL    H14 1702   0.172   5.269   6.306 -1.3794  1.8016 -0.0842
    5MOL    H15 1703   0.006   5.177   6.553 -1.8165  0.5936 -1.2130
    5MOL    H16 1704   0.163   5.243   6.548  0.5152  2.1809 -1.2083
    5MOL    H17 1705   7.773   5.416   6.488 -0.4521  0.3089  1.7614
    5MOL    H18 1706   0.070   5.466   6.438 -1.0322 -0.9839 -1.9723
    5MOL    H19 1707   7.845   5.384   6.728  1.3766 -1.0646 -0.9780
    5MOL    H20 1708   0.004   5.546   6.681  1.0556  0.8082 -0.2489
    5MOL    H21 1709   0.152   5.449   6.683 -0.2978 -2.7363  1.6293
    5MOL    H22 1710   0.053   4.741   6.276 -1.1886  1.1561  2.2182
    5MOL    C23 1711   0.378   4.886   6.238 -0.1918  0.4337  0.1384
    5MOL    C24 1712   0.432   4.912   6.387 -0.7469  0.2013 -0.1988
    5MOL    C25 1713   0.461   4.797   6.475  0.0185  0.0892 -0.0670
    5MOL    O26 1714   0.376   4.756   6.552 -0.3439 -0.4472  0.4137
    5MOL    O27 1715   0.573   4.732   6.452 -0.0352 -0.3666 -0.0684
    5MOL    C28 1716   0.624   4.640   6.547  0.2054 -0.4492 -0.6990
    5MOL    C29 1717   0.775   4.650   6.541 -0.1026  0.3381 -0.9663
    5MOL    C30 1718   0.851   4.607   6.678  0.3942 -0.2007 -0.1223
    5MOL    C31 1719   1.002   4.603   6.661 -0.2469  0.1664  0.6810
    5MOL    H32 1720   0.416   4.965   6.174  0.5254  1.4944  1.8249
    5MOL    H33 1721   0.423   4.793   6.204  0.6539  0.1870  1.8569
    5MOL    H34 1722   0.349   4.971   6.426  0.8419  1.7370  0.9768
    5MOL    H35 1723   0.594   4.538   6.523 -0.3901 -0.5383  0.3656
    5MOL    H36 1724   0.576   4.664   6.642  1.1578  2.4520 -0.9125
    5MOL    H37 1725   0.806   4.597   6.451 -2.8914 -0.8775 -1.2774
    5MOL    H38 1726   0.804   4.755   6.536  3.8567 -0.5698  1.2769
    5MOL    H39 1727   0.816   4.511   6.716  0.6122  0.9768  3.2463
    5MOL    H40 1728   0.822   4.674   6.759  0.7963 -0.4659  0.2461
    5MOL    H41 1729   1.027   4.518   6.599 -0.4147  2.9227 -3.3587
    5MOL    H42 1730   1.060   4.587   6.752  3.3279 -0.7200 -1.6485
    5MOL    H43 1731   1.030   4.696   6.611  0.0200 -0.9266 -1.2399
    5MOL    C44 1732   0.557   5.011   6.379  0.1571 -0.2388 -0.0389
    5MOL    C45 1733   0.570   5.092   6.517  0.5572  0.1072  0.6443
    5MOL    C46 1734   0.711   5.171   6.506  0.0127  0.1310  0.8432
    5MOL    O47 1735   0.720   5.298   6.512  0.2456  0.6751 -0.2368
    5MOL    O48 1736   0.818   5.087   6.482 -0.5397  0.2514  0.6164
    5MOL    C49 1737   0.949   5.135   6.474 -0.7323 -0.4708  0.6597
    5MOL    C50 1738   1.009   5.141   6.613  0.1028  0.0658 -0.1411
    5MOL    C51 1739   1.147   5.219   6.606 -0.2010  0.5021 -0.2368
    5MOL    C52 1740   1.218   5.263   6.728  0.0281 -0.4853  0.3268
    5MOL    H53 1741   0.539   5.070   6.289 -2.9214  0.0502  0.7254
    5MOL    H54 1742   0.647   4.952   6.363 -0.2053 -0.4519 -1.3370
    5MOL    H55 1743   0.583   5.020   6.597 -0.2875 -0.2543  0.4573
    5MOL    H56 1744   0.950   5.237   6.436 -1.4740 -0.6231  0.2179
    5MOL    H57 1745   1.002   5.076   6.400  1.1449  2.1848 -0.2048
    5MOL    H58 1746   0.940   5.198   6.676  0.0596  1.1297 -1.1336
    5MOL    H59 1747   1.027   5.039   6.645 -0.3912 -1.3558 -4.1459
    5MOL    H60 1748   1.131   5.306   6.541 -2.0156 -0.5111 -1.1948
    5MOL    H61 1749   1.220   5.158   6.552  1.7720  2.0068  0.6500
    5MOL    H62 1750   1.207   5.188   6.807 -0.9028 -0.9093 -0.1938
    5MOL    H63 1751   1.177   5.355   6.769  0.5300  0.7034 -1.7745
    5MOL    H64 1752   1.325   5.282   6.717  0.1596  0.2928  2.5902
    5MOL    C65 1753   0.445   5.194   6.543  0.1911  0.1129  0.8492
    5MOL    C66 1754   0.402   5.226   6.689 -0.2991  0.1004  0.3091
    5MOL    C67 1755   0.343   5.100   6.757 -0.0144 -1.0497 -0.7595
    5MOL    O68 1756   0.406   4.999   6.773 -0.2282 -0.1286 -0.5460
    5MOL    O69 1757   0.225   5.131   6.790 -0.5301  0.3565  0.1884
    5MOL    C70 1758   0.142   5.037   6.867 -0.2868  0.2406  0.4370
    5MOL    C71 1759   0.017   5.095   6.929 -0.0083  0.1606  0.2584
    5MOL    C72 1760   7.820   5.016   7.050  0.5902 -0.2348  0.3147
    5MOL    C73 1761   7.721   5.098   7.130  0.0037  0.1276  0.2797
    5MOL    H74 1762   0.362   5.136   6.503  1.4904 -1.0880 -0.1737
    5MOL    H75 1763   0.457   5.281   6.479  0.1234  0.2134  0.9741
    5MOL    H76 1764   0.320   5.298   6.684 -1.3501 -1.0803  0.1841
    5MOL    H77 1765   0.207   5.022   6.954  3.4055  0.5422 -2.1362
    5MOL    H78 1766   0.129   4.941   6.817  0.0433  1.0828 -1.2945
    5MOL    H79 1767   0.048   5.196   6.956  0.0381  0.1329  0.3100
    5MOL    H80 1768   7.789   5.099   6.857 -0.0329  1.0968  0.3383
    5MOL    H81 1769   0.049   4.982   7.113 -0.6724  0.5812  2.4643
    5MOL    H82 1770   7.764   4.932   7.009 -1.0388  1.0013 -0.0547
    5MOL    H83 1771   7.744   5.203   7.113  1.4754 -0.5843 -2.4912
    5MOL    H84 1772   7.721   5.087   7.238 -2.2930  2.4426  0.5370
    5MOL    H85 1773   7.622   5.086   7.087  0.5176  0.8003 -1.1291
    5MOL    C86 1774   0.530   5.282   6.776  0.2553  0.1352  0.6983
    5MOL    C87 1775   0.482   5.343   6.913  1.1582  0.3186  0.9977
    5MOL    C88 1776   0.598   5.345   7.017 -0.2848  0.4584  1.0803
    5MOL    O89 1777   0.583   5.300   7.132 -0.6024 -0.4741  0.2473
    5MOL    O90 1778   0.713   5.408   6.972 -0.1244 -0.1150 -0.3367
    5MOL    C91 1779   0.819   5.422   7.058  0.6271 -0.2899 -0.1956
    5MOL    C92 1780   0.901   5.292   7.051 -1.0430  0.2610  0.5350
    5MOL    C93 1781   1.045   5.302   7.103  0.0568 -0.5462 -0.6834
    5MOL    C94 1782   1.062   5.343   7.248  0.4648  0.2828  0.3394
    5MOL    H95 1783   0.583   5.351   6.711 -0.9869 -0.4694 -0.9838
    5MOL    H96 1784   0.592   5.196   6.800 -1.0100 -1.3354 -1.1185
    5MOL    H97 1785   0.412   5.274   6.959  0.5491 -0.8272 -1.5426
    5MOL    H98 1786   0.781   5.453   7.156 -1.7626 -1.1453 -0.8258
    5MOL    H99 1787   0.886   5.507   7.040 -1.1600  1.2056  0.0921
    5MOL   H100 1788   0.846   5.210   7.097  0.6636 -0.9547  0.4169
    5MOL   H101 1789   0.913   5.251   6.950  1.0570  0.0908  0.8356
    5MOL   H102 1790   1.099   5.379   7.048 -1.0817 -0.0763 -1.1664
    5MOL   H103 1791   1.105   5.212   7.089 -0.0661 -0.5823 -0.9600
    5MOL   H104 1792   1.003   5.273   7.307 -0.0487  0.0056 -0.4887
    5MOL   H105 1793   1.018   5.441   7.269 -1.5050 -0.5024 -0.0340
    5MOL   H106 1794   1.164   5.353   7.286  0.5058  0.3500  0.2124
    5MOL   C107 1795   0.404   5.481   6.893 -0.0683 -0.0362 -0.0033
    5MOL   C108 1796   0.333   5.536   7.020  0.6568 -0.1704  0.6558
    5MOL   C109 1797   0.244   5.437   7.093  0.3610  0.3217 -0.1744
    5MOL   O110 1798   0.128   5.419   7.065  0.5287  0.1023  0.3128
    5MOL   O111 1799   0.307   5.366   7.182  0.4175  0.3677 -0.1830
    5MOL   C112 1800   0.249   5.251   7.235  0.3530  0.4228 -0.2101
    5MOL   C113 1801   0.245   5.261   7.385 -0.1546  0.3423 -0.2124
    5MOL   C114 1802   0.193   5.132   7.462 -0.5113 -0.7726 -0.4730
    5MOL   C115 1803   0.186   5.152   7.618  0.4345 -0.7798 -0.4899
    5MOL   H116 1804   0.332   5.474   6.812  0.3687 -0.6639 -0.3397
    5MOL   H117 1805   0.473   5.552   6.850 -0.0009  0.0755  0.2886
    5MOL   H118 1806   0.262   5.608   6.980 -1.1357 -2.5861 -0.6329
    5MOL   H119 1807   0.313   5.167   7.209  0.8609  0.6796  0.2057
    5MOL   H120 1808   0.145   5.236   7.207  0.4306 -0.3010 -0.1188
    5MOL   H121 1809   0.348   5.277   7.418 -0.8606 -0.9999  2.7915
    5MOL   H122 1810   0.186   5.349   7.408 -0.9677 -0.4330  0.7009
    5MOL   H123 1811   0.260   5.047   7.446  0.6063 -0.1049  0.5846
    5MOL   H124 1812   0.096   5.098   7.425 -0.7965  0.6161 -1.0421
    5MOL   H125 1813   0.147   5.064   7.669  1.4501 -1.1858 -0.3979
    5MOL   H126 1814   0.136   5.242   7.652  0.7454 -0.2865 -1.3149
    5MOL   H127 1815   0.289   5.158   7.653  0.0316  0.1605  0.5466
    5MOL   C128 1816   0.421   5.615   7.122  0.0173  0.0353  1.2118
    5MOL   C129 1817   0.494   5.743   7.079  0.3508 -0.2372  0.0114
    5MOL   C130 1818   0.395   5.844   7.014  0.3251  0.4272 -0.3126
    5MOL   O131 1819   0.346   5.942   7.072 -0.6938  0.5166  0.3015
    5MOL   O132 1820   0.366   5.813   6.890 -0.4835  0.4072  0.1303
    5MOL   C133 1821   0.252   5.868   6.826  0.1579  0.1551 -0.6117
    5MOL   C134 1822   0.259   5.825   6.682  0.4299 -0.0244 -0.2169
    5MOL   C135 1823   0.375   5.882   6.612 -0.1702 -0.3049  0.1530
    5MOL   C136 1824   0.389   5.810   6.473 -0.4850 -0.4573  0.7297
    5MOL   H137 1825   0.492   5.548   7.172 -0.1423 -1.3295 -0.3596
    5MOL   H138 1826   0.355   5.661   7.195  1.4617  1.6689  1.5255
    5MOL   H139 1827   0.568   5.710   7.005  1.7549  1.7264  0.4772
    5MOL   H140 1828   0.265   5.976   6.827 -2.1677  0.4614 -0.8064
    5MOL   H141 1829   0.165   5.851   6.889  0.5103 -2.1859 -0.7148
    5MOL   H142 1830   0.277   5.717   6.676  2.1751  0.0539  2.8962
    5MOL   H143 1831   0.172   5.861   6.627  1.7502  1.6326 -1.2699
    5MOL   H144 1832   0.464   5.878   6.675 -1.6088 -2.3730  2.1344
    5MOL   H145 1833   0.346   5.985   6.591 -2.1693 -0.7129  0.8695
    5MOL   H146 1834   0.444   5.856   6.390 -1.1744 -0.5334  0.2241
    5MOL   H147 1835   0.289   5.793   6.431 -0.4354 -0.5658  0.6547
    5MOL   H148 1836   0.434   5.712   6.486 -0.3527 -0.4650  0.2417
    5MOL   C149 1837   0.569   5.805   7.198 -0.5071 -0.0725 -1.0376
    5MOL   C150 1838   0.691   5.729   7.261 -0.2272  0.2139  0.8481
    5MOL   C151 1839   0.823   5.744   7.175  0.3594 -0.8951 -0.0831
    5MOL   O152 1840   0.819   5.790   7.063 -0.1770  0.3228  0.4199
    5MOL   O153 1841   0.929   5.692   7.242  0.1214 -0.4271 -0.5250
    5MOL   C154 1842   1.064   5.717   7.208  0.4939 -0.4890  0.1379
    5MOL   C155 1843   1.165   5.736   7.326  0.3213 -0.1927  0.3029
    5MOL   C156 1844   1.162   5.873   7.395 -0.2653 -0.0965 -0.1906
    5MOL   C157 1845   1.219   5.877   7.541  0.3968 -0.0683 -0.3797
    5MOL   H158 1846   0.496   5.830   7.276  0.8416 -0.3543  0.3328
    5MOL   H159 1847   0.596   5.904   7.161 -4.8273  1.2134 -1.0351
    5MOL   H160 1848   0.680   5.621   7.257 -0.7189  0.3433 -2.5699
    5MOL   H161 1849   1.071   5.815   7.162  3.4169  0.5117  2.5986
    5MOL   H162 1850   1.105   5.643   7.140  0.3947 -0.6177  0.2157
    5MOL   H163 1851   1.147   5.655   7.397  2.8500 -0.7577  0.3654
    5MOL   H164 1852   1.269   5.720   7.296  0.0588  1.8499 -1.8016
    5MOL   H165 1853   1.061   5.916   7.394 -0.0567  0.3973 -0.7874
    5MOL   H166 1854   1.221   5.941   7.334 -0.7203 -0.4777 -1.0633
    5MOL   H167 1855   1.318   5.830   7.545  0.2479 -0.2828  0.9088
    5MOL   H168 1856   1.157   5.826   7.614 -0.8346  0.6679 -0.8976
    5MOL   H169 1857   1.231   5.981   7.568  0.8130 -0.3016  0.3497
    5MOL   C170 1858   0.714   5.773   7.406 -0.3221  0.3910  0.0940
    5MOL   C171 1859   0.591   5.739   7.507 -0.6429 -0.5455 -0.0326
    5MOL   C172 1860   0.536   5.597   7.490 -0.7177  0.2854 -0.5152
    5MOL   O173 1861   0.416   5.570   7.468 -0.3080 -0.2350 -0.0020
    5MOL   O174 1862   0.630   5.494   7.513  0.1384 -1.0734 -0.3825
    5MOL   C175 1863   0.587   5.362   7.484 -0.1159 -0.2717 -0.0503
    5MOL   C176 1864   0.704   5.258   7.490 -0.4783  0.4595 -0.1358
    5MOL   C177 1865   0.655   5.123   7.434 -0.1975  0.8521 -0.6233
    5MOL   C178 1866   0.776   5.024   7.417 -0.4088  0.0435 -0.0333
    5MOL   H179 1867   0.730   5.881   7.398  1.1699  0.2137  0.5032
    5MOL   H180 1868   0.806   5.731   7.446  0.8152  1.6724 -1.1142
    5MOL   H181 1869   0.504   5.800   7.482 -0.3254  0.0607  0.3165
    5MOL   H182 1870   0.538   5.356   7.386 -0.0469 -1.8957  0.0071
    5MOL   H183 1871   0.517   5.326   7.560 -0.4413  0.7677  0.1563
    5MOL   H184 1872   0.795   5.288   7.439  0.9919 -1.9913  0.9408
    5MOL   H185 1873   0.744   5.246   7.591  0.3546  0.3754 -0.4780
    5MOL   H186 1874   0.607   5.144   7.339 -1.1718  0.7382 -0.1624
    5MOL   H187 1875   0.581   5.086   7.505  0.2518  2.3313  0.6602
    5MOL   H188 1876   0.752   4.920   7.394  0.2095 -0.3374  1.0426
    5MOL   H189 1877   0.840   5.012   7.504 -0.4430 -1.3448 -0.2005
    5MOL   H190 1878   0.844   5.047   7.335  1.5968 -1.0997  1.2947
    5MOL   C191 1879   0.638   5.764   7.654  0.1301  0.3526 -1.0623
    5MOL   C192 1880   0.525   5.756   7.762 -0.3381 -0.0072 -0.2546
    5MOL   C193 1881   0.571   5.811   0.046  0.2744  0.7322  0.7640
    5MOL   O194 1882   0.588   5.735   0.141  0.1232  0.3432  0.0857
    5MOL   O195 1883   0.587   5.947   0.039 -0.3363  0.1572  0.3610
    5MOL   C196 1884   0.653   6.012   0.144  0.0128 -0.2073  0.0731
    5MOL   C197 1885   0.694   6.143   0.082  0.8870 -0.0311  0.6391
    5MOL   C198 1886   0.746   6.245   0.190  0.3795 -0.1900 -0.2783
    5MOL   C199 1887   0.763   6.389   0.142 -0.2780  0.2233 -0.7377
    5MOL   H200 1888   0.685   5.863   7.657 -0.1151  0.4633 -0.8407
    5MOL   H201 1889   0.715   5.695   7.686 -0.6000 -0.6822 -1.4861
    5MOL   H202 1890   0.508   5.650   7.782  1.1079 -0.4430 -1.2086
    5MOL   H203 1891   0.733   5.945   0.177 -1.9821 -1.4979  2.4418
    5MOL   H204 1892   0.596   6.030   0.235  1.8880  0.6835  1.1052
    5MOL   H205 1893   0.760   6.114   7.853 -0.8195 -0.5364 -0.5625
    5MOL   H206 1894   0.607   6.188   0.035 -0.0849  0.2619  2.6585
    5MOL   H207 1895   0.838   6.202   0.228 -0.2584 -0.4177  1.0559
    5MOL   H208 1896   0.667   6.252   0.265  0.0228  2.7667 -0.8684
    5MOL   H209 1897   0.808   6.452   0.219 -0.7818  0.1707 -0.4003
    5MOL   H210 1898   0.663   6.419   0.111  0.1036 -0.0658 -2.2983
    5MOL   H211 1899   0.829   6.387   0.055 -0.7999  1.5683 -1.1746
    5MOL   C212 1900   0.385   5.816   7.723  0.2072 -0.4212 -0.9665
    5MOL   C213 1901   0.272   5.798   7.834 -0.7781  0.3626 -0.0738
    5MOL   C214 1902   0.159   5.893   7.817 -0.1916 -0.1123 -0.2112
    5MOL   O215 1903   0.090   5.941   0.056 -0.3545  0.3404 -0.1820
    5MOL   O216 1904   0.142   5.910   7.685 -0.4290 -0.3297  0.3689
    5MOL   C217 1905   0.047   6.005   7.642 -0.5012  0.0892  0.0292
    5MOL   C218 1906   0.025   5.985   7.489  0.8642  0.1500  0.4772
    5MOL   C219 1907   7.814   6.104   7.426 -0.3361  0.5429 -0.1989
    5MOL   C220 1908   7.678   6.138   7.504 -0.4386  0.2282  0.4583
    5MOL   H221 1909   0.350   5.792   7.623  1.7348  0.3321 -1.7065
    5MOL   H222 1910   0.405   5.923   7.717 -0.2695 -0.2812 -0.1016
    5MOL   H223 1911   0.317   5.814   0.079 -0.3458  1.6477 -0.4599
    5MOL   H224 1912   0.082   6.107   7.661 -0.4056  0.5836 -2.5334
    5MOL   H225 1913   7.810   5.999   7.704  0.0486  0.5102  0.8831
    5MOL   H226 1914   0.123   5.974   7.442  0.5542 -1.1762  0.1330
    5MOL   H227 1915   7.810   5.902   7.473 -0.0157  0.8676  0.4700
    5MOL   H228 1916   7.790   6.087   7.321  0.4362 -1.5017 -0.0717
    5MOL   H229 1917   0.023   6.193   7.435 -0.0936  0.4088 -0.5499
    5MOL   H230 1918   7.625   6.052   7.545 -0.5357  0.7010  1.3348
    5MOL   H231 1919   7.614   6.205   7.446 -0.0029  0.1108 -0.1586
    5MOL   H232 1920   7.713   6.193   7.591  1.0005 -0.6902  0.4760
    5MOL   C233 1921   0.220   5.655   7.836 -0.2738  0.2196  0.0247
    5MOL   C234 1922   0.278   5.557   0.085  0.3288  0.1211  0.0928
    5MOL   C235 1923   0.211   5.591   0.219  0.1734  0.3937  0.1652
    5MOL   O236 1924   0.256   5.672   0.296  0.3342  0.2798 -0.4509
    5MOL   O237 1925   0.086   5.537   0.241 -0.6199 -0.8133 -0.8624
    5MOL   C238 1926   0.031   5.553   0.370  0.1020 -0.3553  0.5990
    5MOL   C239 1927   7.794   5.431   0.405  0.7242  0.7967 -0.1917
    5MOL   C240 1928   7.710   5.458   0.525  0.3572 -0.7942 -0.3867
    5MOL   C241 1929   7.622   5.343   0.560  0.6944 -0.7294 -0.5458
    5MOL   H242 1930   0.224   5.611   7.736  2.4972 -1.9482  1.0215
    5MOL   H243 1931   0.112   5.652   7.851 -0.2854 -1.1530 -0.2343
    5MOL   H244 1932   0.384   5.572   0.107  0.7262 -1.0059 -1.0134
    5MOL   H245 1933   7.834   5.650   0.377  1.4290  0.4529 -0.8518
    5MOL   H246 1934   0.109   5.552   0.446  1.0745  0.8697 -0.3629
    5MOL   H247 1935   7.732   5.405   0.320  0.2214  0.5824  0.2410
    5MOL   H248 1936   0.014   5.350   0.417  0.6614  0.3402 -2.5003
    5MOL   H249 1937   7.652   5.547   0.498  2.4736  0.5026 -0.7510
    5MOL   H250 1938   7.775   5.495   0.605  2.0333  1.1256 -2.5759
    5MOL   H251 1939   7.565   5.385   0.644  1.0858  0.7744 -1.0080
    5MOL   H252 1940   7.684   5.258   0.587  2.2849  0.9100  1.1709
    5MOL   H253 1941   7.555   5.316   0.479 -1.1522 -1.1344  1.0804
    5MOL   C254 1942   0.265   5.411   0.033  0.6306  0.0964 -0.4659
    5MOL   C255 1943   0.285   5.297   0.133  0.7685 -0.3073 -0.1204
    5MOL   C256 1944   0.192   5.179   0.109 -0.8271 -0.1280  0.0026
    5MOL   O257 1945   0.230   5.075   0.064  0.4182  0.0405  0.7356
    5MOL   O258 1946   0.068   5.200   0.128  0.6454  0.0452 -0.3245
    5MOL   C259 1947   7.822   5.111   0.078 -0.6214 -0.1995  0.5586
    5MOL   C260 1948   7.684   5.172   0.099 -0.2922 -0.0724 -0.5733
    5MOL   C261 1949   7.651   5.283   7.850 -0.2123 -0.5944  0.7635
    5MOL   C262 1950   7.503   5.335   0.002  0.3563 -0.0633  0.2755
    5MOL   H263 1951   0.324   5.386   7.798 -0.8932 -1.5180 -1.0612
    5MOL   H264 1952   0.163   5.403   7.848  0.3227 -0.0415  0.3812
    5MOL   H265 1953   0.245   5.327   0.230  1.0813  2.5370 -0.8458
    5MOL   H266 1954   7.833   5.006   0.105  0.3293 -0.4822 -0.9085
    5MOL   H267 1955   7.824   5.111   7.823  1.6300 -0.5775  0.5708
    5MOL   H268 1956   7.612   5.089   0.094 -1.0668  0.4600  1.3972
    5MOL   H269 1957   7.672   5.204   0.202 -0.4671 -1.7203 -0.0579
    5MOL   H270 1958   7.670   5.249   7.748  2.4475 -0.8666  1.3122
    5MOL   H271 1959   7.721   5.363   0.018  0.0598 -0.6615  0.1349
    5MOL   H272 1960   7.436   5.252   7.829 -0.6646  0.8043  0.0880
    5MOL   H273 1961   7.475   5.414   7.786  0.0258  0.1641  0.6648
    5MOL   H274 1962   7.472   5.361   0.103  1.3292  1.1753  0.2593
    5MOL   C275 1963   0.434   5.243   0.136 -0.1278 -0.3451 -0.0788
    5MOL   C276 1964   0.530   5.339   0.209  0.0526 -0.2632 -0.2768
    5MOL   C277 1965   0.488   5.380   0.352  0.0465  0.0114  0.0979
    5MOL   O278 1966   0.399   5.319   0.411  0.6090 -0.5535 -0.4227
    5MOL   O279 1967   0.551   5.489   0.401 -0.3634  0.5837 -0.5494
    5MOL   C280 1968   0.514   5.559   0.518  0.0100  0.1319 -0.4251
    5MOL   C281 1969   0.557   5.487   0.647 -0.9958  0.2987 -0.5859
    5MOL   C282 1970   0.518   5.580   0.761 -0.7335  0.5515 -1.1915
    5MOL   C283 1971   0.504   5.508   0.904 -0.5462  0.3923  0.4001
    5MOL   H284 1972   0.462   5.214   0.035 -0.7995 -2.4171  0.2955
    5MOL   H285 1973   0.441   5.150   0.193  0.7947 -1.0346 -1.3064
    5MOL   H286 1974   0.525   5.432   0.153 -0.1424  0.3522  0.7462
    5MOL   H287 1975   0.405   5.567   0.515 -0.0111 -0.4079 -1.1249
    5MOL   H288 1976   0.553   5.661   0.513 -0.6057  0.4279  0.5517
    5MOL   H289 1977   0.503   5.393   0.655 -1.6547  0.8234  1.4786
    5MOL   H290 1978   0.662   5.459   0.650 -1.2265 -0.6864 -1.4796
    5MOL   H291 1979   0.414   5.612   0.747 -1.3747 -0.7588  0.4006
    5MOL   H292 1980   0.594   5.658   0.762  1.7200 -1.8021 -1.0180
    5MOL   H293 1981   0.588   5.458   0.952  1.4274  1.2871 -2.0414
    5MOL   H294 1982   0.430   5.429   0.897 -0.7324  0.6291 -0.3181
    5MOL   H295 1983   0.462   5.575   0.979 -0.5314  0.3959  0.4058
    5MOL   C296 1984   0.680   5.286   0.224  0.3045 -0.2688  0.4167
    5MOL   C297 1985   0.766   5.276   0.097  0.7700  0.5283 -0.6095
    5MOL   C298 1986   0.826   5.411   0.053  0.1086 -0.4276 -0.2880
    5MOL   O299 1987   0.773   5.524   0.089 -0.1753  0.0920 -0.1905
    5MOL   O300 1988   0.928   5.394   7.816 -0.1850 -0.5064 -0.8308
    5MOL   C301 1989   0.962   5.501   7.730  1.4554  0.2486  0.3792
    5MOL   C302 1990   1.064   5.450   7.630  0.2893 -0.4963  0.0725
    5MOL   C303 1991   1.203   5.428   7.700  0.3021  0.3229  0.4741
    5MOL   C304 1992   1.309   5.402   7.592  0.0904  0.2503 -0.3569
    5MOL   H305 1993   0.683   5.188   0.271  0.3888  0.9926  3.1169
    5MOL   H306 1994   0.726   5.346   0.302  2.2432 -1.5511  0.3045
    5MOL   H307 1995   0.702   5.230   0.022  0.4409 -0.1622  0.0832
    5MOL   H308 1996   1.011   5.585   7.779 -0.2346  1.2697  0.3611
    5MOL   H309 1997   0.869   5.528   7.680  0.1362  2.3074  3.7552
    5MOL   H310 1998   1.030   5.357   7.584  1.3249 -0.6992 -0.2945
    5MOL   H311 1999   1.080   5.524   7.552 -0.4986 -0.6033 -0.1947
    5MOL   H312 2000   1.204   5.333   7.754 -0.5559  1.3285  2.3199
    5MOL   H313 2001   1.235   5.498   7.777  0.4165 -1.7258  2.3303
    5MOL   H314 2002   1.272   5.336   7.514 -0.9003  0.2904  0.0650
    5MOL   H315 2003   1.401   5.358   7.630  0.1062  1.4280  1.0062
    5MOL   H316 2004   1.323   5.502   7.549 -1.2245  0.6943  0.2302
    5MOL   C317 2005   0.882   5.166   0.119  0.1968 -0.5892  0.7231
    5MOL   C318 2006   0.968   5.191   0.243 -0.6193 -0.2650  0.5685
    5MOL   C319 2007   0.931   5.092   0.353 -0.7177 -0.4957 -0.5339
    5MOL   O320 2008   0.956   4.970   0.342 -0.5347  0.5181  0.2171
    5MOL   O321 2009   0.876   5.152   0.453 -0.2321 -0.2576  0.1416
    5MOL   C322 2010   0.827   5.083   0.559  0.7358  0.4654  0.7403
    5MOL   C323 2011   0.697   5.165   0.608  0.1381  0.1063  0.4370
    5MOL   C324 2012   0.608   5.073   0.706 -0.5024  0.2541  0.9200
    5MOL   C325 2013   0.485   5.142   0.755 -0.0598 -1.1767 -0.1892
    5MOL   H326 2014   0.946   5.163   0.031 -0.8859 -1.2765 -0.0460
    5MOL   H327 2015   0.839   5.066   0.120 -0.0354 -0.5113 -0.7687
    5MOL   H328 2016   0.956   5.295   0.272  0.3802  0.1999 -0.6690
    5MOL   H329 2017   0.885   5.048   0.644 -1.7859  1.9039  3.1493
    5MOL   H330 2018   0.779   4.993   0.520  0.7301  0.5687  0.5096
    5MOL   H331 2019   0.731   5.263   0.643 -1.7329  0.6829  0.6849
    5MOL   H332 2020   0.635   5.198   0.525  2.8350  1.5090 -1.1023
    5MOL   H333 2021   0.664   5.042   0.794 -0.7101 -1.9663  0.3082
    5MOL   H334 2022   0.577   4.976   0.667 -0.5712  0.5334  0.2710
    5MOL   H335 2023   0.410   5.155   0.676 -0.4985  1.6369  0.6567
    5MOL   H336 2024   0.501   5.235   0.809 -2.4389 -1.5108  1.1504
    5MOL   H337 2025   0.431   5.077   0.823  1.1676 -0.5019  1.4405
    5MOL   C338 2026   1.120   5.170   0.197 -0.0765  0.0449 -0.5706
    5MOL   C339 2027   1.236   5.165   0.295 -0.3387  0.7903  0.0085
    5MOL   C340 2028   1.371   5.121   0.237 -0.3751 -0.5705  0.2639
    5MOL   O341 2029   1.400   5.158   0.126  0.0801  0.1891 -0.3093
    5MOL   O342 2030   1.452   5.051   0.321  0.1820  0.0734 -0.0518
    5MOL   C343 2031   1.592   5.059   0.294  0.1425  0.8359  0.5915
    5MOL   C344 2032   1.673   4.979   0.394  0.0954  0.6996  0.1441
    5MOL   C345 2033   1.645   4.826   0.392 -0.7270  0.1963  0.1014
    5MOL   C346 2034   1.725   4.738   0.493  0.6563  0.3393 -0.1092
    5MOL   H347 2035   1.142   5.255   0.132 -0.6090  1.5235  1.1540
    5MOL   H348 2036   1.126   5.089   0.125  0.5102 -1.3191  0.9862
    5MOL   H349 2037   1.203   5.094   0.371  0.3669  0.7228  0.2499
    5MOL   H350 2038   1.630   5.160   0.283 -0.1639  0.7954 -0.9217
    5MOL   H351 2039   1.597   5.017   0.194 -0.9823 -3.6507  2.2833
    5MOL   H352 2040   1.778   4.992   0.366  0.5498 -1.5547  0.7616
    5MOL   H353 2041   1.654   5.023   0.492  1.1803  0.0551  0.6521
    5MOL   H354 2042   1.676   4.796   0.291  0.3876  1.6634 -0.0076
    5MOL   H355 2043   1.543   4.798   0.417 -0.8883  0.1404 -0.5903
    5MOL   H356 2044   1.683   4.758   0.591 -1.3973  0.4261 -0.9923
    5MOL   H357 2045   1.833   4.754   0.485  0.7227  0.3680  0.7354
    5MOL   H358 2046   1.699   4.635   0.468  2.0221 -0.3904  1.3516
    5MOL   C359 2047   1.264   5.291   0.383  0.1855  0.3889 -0.6486
    5MOL   C360 2048   1.318   5.426   0.315 -0.1429  0.3693  0.3605
    5MOL   C361 2049   1.195   5.508   0.271 -0.5015 -0.3039 -0.1731
    5MOL   O362 2050   1.181   5.531   0.148  0.1432 -0.4780  0.3444
    5MOL   O363 2051   1.124   5.560   0.369  0.4195 -0.1059 -0.1873
    5MOL   C364 2052   1.002   5.618   0.343 -0.1894  0.0563 -0.1808
    5MOL   C365 2053   0.894   5.576   0.443 -0.5304 -0.7225 -0.5804
    5MOL   C366 2054   0.917   5.618   0.586 -0.0291  0.1646  0.0248
    5MOL   C367 2055   1.017   5.535   0.662 -0.0105  0.0380  0.7454
    5MOL   H368 2056   1.337   5.266   0.459 -0.4690  0.2128 -0.0681
    5MOL   H369 2057   1.169   5.311   0.433  0.3012 -1.1461  0.1939
    5MOL   H370 2058   1.368   5.397   0.223 -2.2214 -0.6181 -0.4852
    5MOL   H371 2059   0.986   5.602   0.236  3.6599 -1.4517 -0.6032
    5MOL   H372 2060   1.021   5.724   0.363  1.8253 -0.2353 -0.4341
    5MOL   H373 2061   0.806   5.622   0.399  0.1780  1.1209 -0.0753
    5MOL   H374 2062   0.879   5.469   0.425  1.0723 -0.5381 -3.2277
    5MOL   H375 2063   0.822   5.633   0.638 -0.3306  0.1145 -0.5013
    5MOL   H376 2064   0.952   5.721   0.595 -0.0921  0.3296 -1.5160
    5MOL   H377 2065   1.119   5.547   0.626  0.0500 -0.7700  0.6484
    5MOL   H378 2066   1.015   5.427   0.652  0.4747  0.0659  0.3431
    5MOL   H379 2067   1.015   5.548   0.770  0.2902  0.6932  0.6726
    5MOL   C380 2068   1.407   5.506   0.409 -0.0675  0.0485 -0.5349
    5MOL   C381 2069   1.460   5.646   0.362 -0.9563  0.3785 -0.0566
    5MOL   C382 2070   1.489   5.733   0.486  0.7672  0.0683 -0.0174
    5MOL   O383 2071   1.494   5.684   0.599 -0.7132 -0.1274  0.8977
    5MOL   O384 2072   1.496   5.873   0.455 -0.3235 -0.0212  0.1027
    5MOL   C385 2073   1.512   5.972   0.559 -0.7827 -0.5144  0.5658
    5MOL   C386 2074   1.511   6.112   0.488  0.4191  0.4687  0.1185
    5MOL   C387 2075   1.640   6.126   0.399  0.1033  0.1806  0.6548
    5MOL   C388 2076   1.657   6.255   0.318  0.6944 -0.0870 -0.1367
    5MOL   H389 2077   1.495   5.448   0.437  0.4423  1.5684  1.0865
    5MOL   H390 2078   1.344   5.520   0.497 -0.7834  0.0637 -1.0479
    5MOL   H391 2079   1.379   5.694   0.307 -2.9048 -1.9536  0.6674
    5MOL   H392 2080   1.608   5.960   0.610  0.9684  1.1637 -2.1603
    5MOL   H393 2081   1.433   5.952   0.631 -2.3951  1.0050 -0.7310
    5MOL   H394 2082   1.426   6.130   0.421  0.0795  2.2175  1.0110
    5MOL   H395 2083   1.514   6.189   0.565 -0.2409  1.1740 -0.5571
    5MOL   H396 2084   1.650   6.039   0.333  1.0263  1.2878 -0.7094
    5MOL   H397 2085   1.726   6.111   0.464  1.6033  1.6751 -0.9219
    5MOL   H398 2086   1.705   6.312   0.398  0.6579 -1.0952  0.6161
    5MOL   H399 2087   1.563   6.302   0.288  0.6597 -0.2469 -0.2760
    5MOL   H400 2088   1.725   6.237   0.235 -1.2320 -0.4050 -1.6688
    5MOL   C401 2089   1.573   5.631   0.263 -0.1955  0.1720  0.2579
    5MOL   C402 2090   1.617   5.759   0.189 -0.0080  0.1681 -0.3847
    5MOL   C403 2091   1.532   5.810   0.080  0.0579  0.8410  0.1066
    5MOL   O404 2092   1.440   5.747   0.031 -0.0503 -0.1084 -0.3936
    5MOL   O405 2093   1.573   5.928   0.042 -0.1930 -0.4909 -0.3605
    5MOL   C406 2094   1.525   6.003   7.784  0.1377 -0.2480  0.0995
    5MOL   C407 2095   1.592   6.147   7.775 -0.1831 -0.3615  0.0342
    5MOL   C408 2096   1.745   6.144   7.780  0.3770 -1.0015  0.5144
    5MOL   C409 2097   1.811   6.275   7.795 -0.0821 -0.5325 -1.0384
    5MOL   H410 2098   1.536   5.558   0.191  0.7370  0.0741 -0.1343
    5MOL   H411 2099   1.661   5.587   0.310  0.1528  0.5659 -0.0308
    5MOL   H412 2100   1.719   5.738   0.156  0.0746 -0.5500  0.3198
    5MOL   H413 2101   1.419   6.026   7.792 -0.2167 -0.6214 -2.9857
    5MOL   H414 2102   1.546   5.938   7.700 -3.1627 -0.9497 -0.2332
    5MOL   H415 2103   1.561   6.185   7.678  0.5510 -2.8854 -1.2049
    5MOL   H416 2104   1.550   6.210   0.001  0.8575 -0.5591  0.7691
    5MOL   H417 2105   1.775   6.107   7.682  0.8853  1.2351 -0.1988
    5MOL   H418 2106   1.781   6.061   7.841 -0.8201 -0.5847  1.8473
    5MOL   H419 2107   1.917   6.255   7.806 -0.0763  1.0049  2.3485
    5MOL   H420 2108   1.770   6.330   0.027 -0.6452 -0.7015 -1.1941
    5MOL   H421 2109   1.804   6.339   7.707 -0.3453  0.1506 -0.5259
    5MOL   H422 2110   1.632   5.842   0.259 -1.1843  0.0571  0.0148
    6MOL     C1 2111   1.861   2.465   7.765 -0.4814  0.0491  0.2565
    6MOL     C2 2112   1.874   2.411   7.620 -0.4257 -0.1435 -0.3359
    6MOL     C3 2113   1.882   2.531   7.516 -0.3935  0.3524  0.0696
    6MOL     O4 2114   1.779   2.571   7.457 -0.1736  0.7031  0.2739
    6MOL     O5 2115   2.013   2.575   7.507  0.4638 -0.3728 -0.1960
    6MOL     C6 2116   2.048   2.668   7.408  0.1857 -0.6652  0.3657
    6MOL     C7 2117   2.100   2.597   7.281  0.5325 -0.7346  0.3370
    6MOL     C8 2118   2.233   2.525   7.291 -0.4672 -0.5472 -0.0202
    6MOL     C9 2119   2.283   2.457   7.159  0.2163  0.1818 -0.6023
    6MOL    H10 2120   1.767   2.519   7.780  0.3136  1.2177  1.1709
    6MOL    H11 2121   1.871   2.384   7.837  0.6530  0.8459  1.0213
    6MOL    H12 2122   1.780   2.360   7.601 -0.0412 -0.9278 -0.1542
    6MOL    H13 2123   2.115   2.738   7.458  0.5529 -0.4271 -0.4525
    6MOL    H14 2124   1.968   2.735   7.378  2.8419  1.6820 -1.7467
    6MOL    H15 2125   2.014   2.536   7.253 -0.6006  0.4545  1.1718
    6MOL    H16 2126   2.104   2.661   7.192  1.5157 -0.9722  0.2089
    6MOL    H17 2127   2.228   2.458   7.377  1.9123 -0.5285  0.1558
    6MOL    H18 2128   2.303   2.598   7.333 -1.7971  0.2522  0.8540
    6MOL    H19 2129   2.203   2.394   7.122 -1.7028  1.1448  1.7844
    6MOL    H20 2130   2.383   2.413   7.157  0.0972 -0.2389  1.5684
    6MOL    H21 2131   2.285   2.536   7.084 -0.6794  0.4744 -0.3176
    6MOL    H22 2132   1.941   2.537   7.784 -0.9127  1.0702 -1.6634
    6MOL    C23 2133   1.986   2.305   7.597  0.5708 -0.1737  0.1324
    6MOL    C24 2134   2.002   2.248   7.449 -0.2562 -0.3192 -0.3359
    6MOL    C25 2135   2.120   2.149   7.446 -0.6415  0.1913 -0.1524
    6MOL    O26 2136   2.138   2.070   7.538 -0.1465  0.3742 -0.5540
    6MOL    O27 2137   2.212   2.164   7.348 -0.2253  0.3379  0.4784
    6MOL    C28 2138   2.333   2.089   7.343 -0.3340 -0.5022  0.2401
    6MOL    C29 2139   2.389   2.108   7.201 -0.0735  0.2913  0.1721
    6MOL    C30 2140   2.497   2.002   7.162 -0.2784 -0.3395 -0.2803
    6MOL    C31 2141   2.542   2.014   7.014 -0.1394  0.6872  0.0880
    6MOL    H32 2142   1.970   2.229   7.673 -0.6754  0.9266  0.9981
    6MOL    H33 2143   2.081   2.352   7.623  1.0004 -0.5782 -0.7008
    6MOL    H34 2144   2.041   2.326   7.384 -0.6436  0.5561  0.4804
    6MOL    H35 2145   2.320   1.987   7.380 -0.5480 -0.3626  0.5466
    6MOL    H36 2146   2.407   2.134   7.408 -0.0274 -0.0082 -0.4393
    6MOL    H37 2147   2.299   2.095   7.141  0.1566 -1.1450  0.1198
    6MOL    H38 2148   2.437   2.205   7.188 -0.7674  0.6113 -0.0645
    6MOL    H39 2149   2.472   1.899   7.187  0.9009 -0.1572  1.7566
    6MOL    H40 2150   2.582   2.011   7.231 -1.1918 -1.2482  0.9783
    6MOL    H41 2151   2.575   1.927   6.957 -0.4896  0.0698  0.8132
    6MOL    H42 2152   2.616   2.091   6.997 -0.5979  0.7805 -1.5267
    6MOL    H43 2153   2.457   2.038   6.950  0.1976 -1.0257 -1.0512
    6MOL    C44 2154   1.872   2.184   7.392 -0.3154  0.0708 -0.6570
    6MOL    C45 2155   1.865   2.145   7.237 -0.2038  0.0239 -0.0446
    6MOL    C46 2156   1.903   2.001   7.193 -0.5348 -0.6739 -0.2208
    6MOL    O47 2157   1.872   1.900   7.257 -0.2018  0.4735  0.2391
    6MOL    O48 2158   1.978   2.000   7.081 -0.0793 -0.0683 -0.4212
    6MOL    C49 2159   2.040   1.878   7.047 -0.5438 -0.2555 -0.0609
    6MOL    C50 2160   2.069   1.872   6.904  0.1786  0.1034  0.1633
    6MOL    C51 2161   1.942   1.865   6.815 -0.3238 -0.0217 -0.5447
    6MOL    C52 2162   1.972   1.858   6.661  0.9465  0.5137  0.3103
    6MOL    H53 2163   1.789   2.253   7.403 -1.3196 -1.2828  0.4382
    6MOL    H54 2164   1.834   2.104   7.456 -0.9692 -0.0028 -1.1362
    6MOL    H55 2165   1.936   2.207   7.181 -1.0979 -0.6227 -1.9243
    6MOL    H56 2166   1.964   1.805   7.074  0.0403 -0.9012 -0.1791
    6MOL    H57 2167   2.132   1.868   7.103  0.5477 -1.3183 -1.9948
    6MOL    H58 2168   2.126   1.955   6.862 -0.6986 -0.2792 -1.8586
    6MOL    H59 2169   2.137   1.788   6.888 -0.8578 -0.6091 -0.5595
    6MOL    H60 2170   1.872   1.944   6.840 -2.1792 -1.3836 -1.3802
    6MOL    H61 2171   1.892   1.771   6.838  0.7369  0.0399  2.2023
    6MOL    H62 2172   1.887   1.839   6.595  1.6260  1.6606 -0.9032
    6MOL    H63 2173   2.037   1.772   6.647  0.4820  0.3411 -0.8295
    6MOL    H64 2174   2.031   1.935   6.613  1.5961 -0.3713 -0.3126
    6MOL    C65 2175   1.736   2.183   7.159  0.0929 -0.5378 -0.3046
    6MOL    C66 2176   1.732   2.334   7.109  0.5032 -0.0057 -0.4924
    6MOL    C67 2177   1.835   2.357   6.997 -0.3277  0.4890  0.2159
    6MOL    O68 2178   1.950   2.403   7.022 -0.2279  0.2373 -0.3763
    6MOL    O69 2179   1.795   2.313   6.876  0.1917  0.4201 -0.2396
    6MOL    C70 2180   1.885   2.300   6.772 -0.4443  0.8105  0.3292
    6MOL    C71 2181   1.827   2.212   6.660 -0.5363  0.9905  0.8359
    6MOL    C72 2182   1.928   2.212   6.542  0.4236 -0.4093 -0.6289
    6MOL    C73 2183   1.891   2.119   6.418 -0.1784 -0.1689  0.5249
    6MOL    H74 2184   1.657   2.141   7.222  0.0144 -0.6092 -0.4505
    6MOL    H75 2185   1.722   2.124   7.069  0.0287 -0.3503 -0.4182
    6MOL    H76 2186   1.771   2.391   7.193 -1.1994 -0.0424  0.3415
    6MOL    H77 2187   1.979   2.259   6.811  1.5580  2.0317 -3.0611
    6MOL    H78 2188   1.891   2.400   6.730 -0.0650  0.0652 -1.4050
    6MOL    H79 2189   1.804   2.109   6.689 -0.7616 -0.3807 -3.8650
    6MOL    H80 2190   1.733   2.260   6.634 -0.5708  0.8488  0.6968
    6MOL    H81 2191   2.025   2.188   6.585  0.1925  1.2610  0.8938
    6MOL    H82 2192   1.948   2.312   6.502 -0.1086 -0.3647 -0.7863
    6MOL    H83 2193   1.986   2.083   6.378 -1.1195 -1.0404 -0.9485
    6MOL    H84 2194   1.831   2.171   6.344 -0.9756 -1.5232  0.1943
    6MOL    H85 2195   1.833   2.029   6.442  1.0048 -0.4556  2.4126
    6MOL    C86 2196   1.588   2.380   7.074  0.1210 -0.2511  0.0645
    6MOL    C87 2197   1.504   2.457   7.180  0.0610  0.3637 -0.2250
    6MOL    C88 2198   1.501   2.601   7.131 -0.3975 -0.2850 -0.3412
    6MOL    O89 2199   1.401   2.669   7.120  0.0062 -0.0733 -0.0921
    6MOL    O90 2200   1.628   2.648   7.085 -0.6276 -0.3137 -0.2488
    6MOL    C91 2201   1.636   2.770   7.009  0.1174 -0.1409  0.2443
    6MOL    C92 2202   1.758   2.854   7.048 -0.3588 -1.2212  0.3892
    6MOL    C93 2203   1.892   2.767   7.052 -0.3041 -0.3953  0.0497
    6MOL    C94 2204   1.955   2.760   6.913  0.0134 -0.0947  0.3546
    6MOL    H95 2205   1.541   2.288   7.037  2.0737 -1.2769  0.0606
    6MOL    H96 2206   1.586   2.427   6.976 -1.8101 -0.1879  0.1085
    6MOL    H97 2207   1.546   2.449   7.280 -0.7814  1.6055  0.2500
    6MOL    H98 2208   1.544   2.827   7.015  1.1446  1.3781  2.0736
    6MOL    H99 2209   1.658   2.757   6.903  0.0471 -0.3090  0.2499
    6MOL   H100 2210   1.767   2.945   6.989 -0.6283 -2.0080 -0.8751
    6MOL   H101 2211   1.740   2.899   7.146  2.5749  0.5236  0.1786
    6MOL   H102 2212   1.884   2.667   7.093  0.1644 -0.1860  0.6530
    6MOL   H103 2213   1.970   2.821   7.106  0.4280 -0.1093 -1.2617
    6MOL   H104 2214   1.901   2.684   6.855  2.6984 -0.9622 -1.1164
    6MOL   H105 2215   2.053   2.712   6.915  0.8421  1.5561 -0.1848
    6MOL   H106 2216   1.976   2.852   6.859 -2.4324  1.3975  1.8554
    6MOL   C107 2217   1.364   2.396   7.194 -0.1934  0.5656  0.4130
    6MOL   C108 2218   1.372   2.254   7.258  0.2876  0.0111 -0.3814
    6MOL   C109 2219   1.406   2.258   7.408 -0.0941 -0.9342 -0.5374
    6MOL   O110 2220   1.493   2.185   7.463 -0.4779 -0.1984 -0.3714
    6MOL   O111 2221   1.325   2.347   7.475 -0.4435  0.1983 -0.0901
    6MOL   C112 2222   1.327   2.339   7.618  0.4618 -0.2461 -0.3066
    6MOL   C113 2223   1.233   2.448   7.673  0.0126 -0.1711 -0.6765
    6MOL   C114 2224   1.226   2.457   7.832 -0.3546  0.1526  0.6237
    6MOL   C115 2225   1.109   2.540   0.039 -0.3515  0.4991 -0.1723
    6MOL   H116 2226   1.327   2.391   7.091 -1.4434  0.3845  0.8613
    6MOL   H117 2227   1.291   2.458   7.245  0.9342  0.1137  2.6003
    6MOL   H118 2228   1.452   2.204   7.204 -0.2955 -0.1344 -1.1172
    6MOL   H119 2229   1.425   2.360   7.659 -0.3913 -2.5245  3.1661
    6MOL   H120 2230   1.293   2.239   7.644 -3.0408  1.3434  1.7277
    6MOL   H121 2231   1.252   2.552   7.645 -0.7697  0.2365  0.2581
    6MOL   H122 2232   1.134   2.444   7.627  0.8943  1.1445 -2.7929
    6MOL   H123 2233   1.315   2.514   0.004 -0.8201  1.6811 -1.0611
    6MOL   H124 2234   1.240   2.359   0.024  2.4192  0.2937  0.1232
    6MOL   H125 2235   1.123   2.566   0.144  2.1002 -0.0965 -0.3190
    6MOL   H126 2236   1.020   2.476   0.035  0.0244 -0.0268 -0.2289
    6MOL   H127 2237   1.093   2.630   7.833  2.3069  0.8621 -0.3975
    6MOL   C128 2238   1.243   2.162   7.229 -0.3336  0.3521 -0.5927
    6MOL   C129 2239   1.216   2.127   7.086 -0.1797  0.3253 -0.5515
    6MOL   C130 2240   1.318   2.017   7.026 -0.1690  0.7795  0.3812
    6MOL   O131 2241   1.303   1.893   7.040 -0.1017  0.0813 -0.1331
    6MOL   O132 2242   1.426   2.065   6.964  0.0527  0.5265  0.3007
    6MOL   C133 2243   1.529   1.976   6.897  0.0385  0.3570  0.1484
    6MOL   C134 2244   1.471   1.926   6.760 -0.8561  0.4035  0.2783
    6MOL   C135 2245   1.574   1.833   6.683 -0.5594  0.3481  0.5315
    6MOL   C136 2246   1.511   1.751   6.571  0.8378  0.3680 -0.8443
    6MOL   H137 2247   1.167   2.226   7.273 -2.7827 -2.0494 -1.1717
    6MOL   H138 2248   1.226   2.076   7.294  1.6097  0.0723 -0.4242
    6MOL   H139 2249   1.235   2.221   7.035 -1.7103  1.8534  1.6290
    6MOL   H140 2250   1.564   1.889   6.951 -2.2434 -2.5340 -2.8432
    6MOL   H141 2251   1.622   2.026   6.869  0.3322 -0.6472 -0.6668
    6MOL   H142 2252   1.380   1.869   6.778  0.3472 -0.6325  3.3525
    6MOL   H143 2253   1.454   2.018   6.703  0.0174  1.5079  1.7475
    6MOL   H144 2254   1.631   1.763   6.745  2.5475  2.2578 -0.0531
    6MOL   H145 2255   1.655   1.899   6.651  0.0082 -1.3774 -1.7441
    6MOL   H146 2256   1.437   1.678   6.603  1.1003 -0.1595 -1.4422
    6MOL   H147 2257   1.584   1.697   6.512  1.6137  0.4566  0.0266
    6MOL   H148 2258   1.450   1.813   6.505 -1.5510 -0.0723  0.8456
    6MOL   C149 2259   1.078   2.082   7.047 -0.4345  0.1511 -0.2254
    6MOL   C150 2260   0.965   2.177   7.086  0.0995  0.5869  0.0183
    6MOL   C151 2261   0.969   2.308   6.997  0.5548  0.3850  0.3452
    6MOL   O152 2262   0.941   2.304   6.877 -0.0872  0.6387 -0.4207
    6MOL   O153 2263   0.995   2.412   7.069 -0.1090  0.3030 -0.5295
    6MOL   C154 2264   0.975   2.550   7.026  0.2575 -0.0944 -0.1330
    6MOL   C155 2265   1.091   2.590   6.935 -0.2290 -0.2601  0.1090
    6MOL   C156 2266   1.070   2.730   6.869  0.1158 -0.0979  0.0117
    6MOL   C157 2267   1.191   2.769   6.784 -0.3562  0.1435  0.1618
    6MOL   H158 2268   1.062   1.978   7.076  2.6248 -0.5004 -0.7438
    6MOL   H159 2269   1.086   2.061   6.941  0.9420  0.1658 -0.1332
    6MOL   H160 2270   0.978   2.201   7.192 -0.3987  0.5248  0.0951
    6MOL   H161 2271   0.965   2.614   7.113  0.0605  3.4132 -2.6322
    6MOL   H162 2272   0.879   2.559   6.975 -0.2421 -2.3828  0.3252
    6MOL   H163 2273   1.185   2.584   6.989 -0.8601 -1.8396  1.0901
    6MOL   H164 2274   1.098   2.514   6.857 -1.2165 -1.2036  0.9043
    6MOL   H165 2275   1.049   2.798   6.952 -2.4218 -0.1498 -0.5388
    6MOL   H166 2276   0.983   2.730   6.803 -0.7379 -0.5616  1.1297
    6MOL   H167 2277   1.206   2.876   6.771  2.6298 -0.2585 -0.0559
    6MOL   H168 2278   1.176   2.722   6.687 -2.0193  1.1521 -0.1042
    6MOL   H169 2279   1.281   2.731   6.832  0.7743  2.4967 -0.0055
    6MOL   C170 2280   0.823   2.115   7.069 -0.6713 -0.1550  0.4620
    6MOL   C171 2281   0.702   2.204   7.110  0.2018 -0.3259  0.1897
    6MOL   C172 2282   0.577   2.166   7.035 -0.1895 -0.6602  0.2980
    6MOL   O173 2283   0.542   2.050   7.030  0.2572  0.8787  0.1264
    6MOL   O174 2284   0.505   2.270   6.982 -0.3811  0.2692  0.1706
    6MOL   C175 2285   0.381   2.236   6.924  0.3328 -0.1446  0.3019
    6MOL   C176 2286   0.319   2.365   6.853 -0.1290  0.1247 -0.3765
    6MOL   C177 2287   0.405   2.412   6.743  0.9710 -0.1302 -0.3861
    6MOL   C178 2288   0.342   2.533   6.673  0.4144  0.3300 -0.3403
    6MOL   H179 2289   0.833   2.027   7.133  3.9489  1.3629  1.9870
    6MOL   H180 2290   0.806   2.090   6.964 -2.2841  1.6894  0.2340
    6MOL   H181 2291   0.721   2.302   7.066  1.2650 -0.5732  0.0774
    6MOL   H182 2292   0.322   2.202   7.010  1.9662  3.4557  2.9553
    6MOL   H183 2293   0.380   2.151   6.856 -1.2585  0.2143 -0.1373
    6MOL   H184 2294   0.216   2.356   6.820 -0.7151 -1.7867  1.8286
    6MOL   H185 2295   0.309   2.437   6.935  0.1158 -0.8643  0.5248
    6MOL   H186 2296   0.434   2.334   6.673 -0.2374 -0.2513 -0.7480
    6MOL   H187 2297   0.507   2.432   6.778  0.8247  0.0632 -0.0725
    6MOL   H188 2298   0.396   2.553   6.580  1.1860  0.1139  0.0589
    6MOL   H189 2299   0.356   2.624   6.731  2.8619 -0.7555  0.8390
    6MOL   H190 2300   0.237   2.508   6.658  0.2004  0.0373  1.5843
    6MOL   C191 2301   0.682   2.203   7.263 -0.3402 -0.8444  0.2417
    6MOL   C192 2302   0.561   2.279   7.317  0.0818 -0.3264 -0.1106
    6MOL   C193 2303   0.490   2.190   7.417 -0.5202 -0.2687  0.0602
    6MOL   O194 2304   0.555   2.135   7.502  0.3583 -0.2369 -0.0727
    6MOL   O195 2305   0.365   2.170   7.410 -0.2635 -0.3619  0.0578
    6MOL   C196 2306   0.292   2.100   7.506 -0.0558  0.0734 -0.7462
    6MOL   C197 2307   0.277   1.958   7.459  0.2406  1.0508 -0.5013
    6MOL   C198 2308   0.184   1.940   7.339 -0.0660 -0.1785  0.4939
    6MOL   C199 2309   0.259   1.946   7.203  0.2682 -0.1892  0.1854
    6MOL   H200 2310   0.772   2.243   7.309 -0.8605  1.4590 -0.6534
    6MOL   H201 2311   0.672   2.101   7.298 -1.8238 -0.1616  1.8806
    6MOL   H202 2312   0.481   2.303   7.247 -0.9736  1.7643  1.7581
    6MOL   H203 2313   0.189   2.133   7.509 -1.0039 -2.7092 -1.5399
    6MOL   H204 2314   0.326   2.119   7.608 -0.6525  0.2582 -0.5856
    6MOL   H205 2315   0.368   1.899   7.449  1.3590  2.0921  2.7773
    6MOL   H206 2316   0.226   1.914   7.544 -2.3398  4.3525 -0.2477
    6MOL   H207 2317   0.082   1.978   7.341  0.7565  2.3760 -2.8904
    6MOL   H208 2318   0.153   1.835   7.341 -0.0697 -0.2325 -1.6768
    6MOL   H209 2319   0.349   2.008   7.207 -0.5785  1.1638 -1.0288
    6MOL   H210 2320   0.202   2.011   7.136  0.1799 -1.4060 -0.9438
    6MOL   H211 2321   0.271   1.850   7.153  2.2043 -0.1454  0.5119
    6MOL   C212 2322   0.620   2.406   7.396  0.3920  0.0744 -0.3809
    6MOL   C213 2323   0.678   2.516   7.303 -0.0293  0.3432  0.2789
    6MOL   C214 2324   0.582   2.559   7.187  0.1089 -0.2535 -0.1605
    6MOL   O215 2325   0.467   2.524   7.182 -0.2144 -0.4582 -0.1464
    6MOL   O216 2326   0.652   2.631   7.094 -0.0513  0.4831 -0.0025
    6MOL   C217 2327   0.586   2.659   6.976 -0.5528  0.3749 -0.3602
    6MOL   C218 2328   0.661   2.769   6.895  0.0349  0.3088 -0.0857
    6MOL   C219 2329   0.580   2.834   6.788 -0.2748 -0.0401 -0.8418
    6MOL   C220 2330   0.645   2.958   6.732  0.1975 -0.2303  0.1019
    6MOL   H221 2331   0.704   2.373   7.457  0.8445 -2.3058 -2.2040
    6MOL   H222 2332   0.546   2.452   7.462  0.0287 -1.4587  0.3104
    6MOL   H223 2333   0.759   2.468   7.248 -0.3385 -0.8865  0.8818
    6MOL   H224 2334   0.481   2.687   6.991 -0.2563  1.6134 -0.5385
    6MOL   H225 2335   0.578   2.572   6.911  0.9478 -0.3874  0.4585
    6MOL   H226 2336   0.695   2.844   6.967  0.9132  0.1991 -0.3841
    6MOL   H227 2337   0.753   2.729   6.852 -1.3522  0.0723 -2.9089
    6MOL   H228 2338   0.479   2.852   6.826 -0.5669  0.6257 -1.9035
    6MOL   H229 2339   0.577   2.752   6.716 -1.9330  1.0900 -2.0924
    6MOL   H230 2340   0.741   2.936   6.686 -0.2908 -1.8400 -0.1738
    6MOL   H231 2341   0.648   3.040   6.804 -0.5349 -2.3338  2.5806
    6MOL   H232 2342   0.584   3.006   6.656 -0.0107 -0.7740 -0.0746
    6MOL   C233 2343   0.722   2.637   7.383 -0.5324 -0.3390  0.7499
    6MOL   C234 2344   0.840   2.612   7.474 -1.1058 -0.3004 -0.3672
    6MOL   C235 2345   0.980   2.602   7.409  0.3906  0.2721  0.1638
    6MOL   O236 2346   1.033   2.493   7.391 -0.0065  0.2214 -0.1832
    6MOL   O237 2347   1.035   2.726   7.380  0.6690 -0.5076 -0.0920
    6MOL   C238 2348   1.173   2.741   7.355 -0.3270 -0.2108 -0.4070
    6MOL   C239 2349   1.208   2.884   7.319 -0.5201 -0.8001  0.0847
    6MOL   C240 2350   1.175   2.985   7.432 -0.2857  0.4226 -0.1335
    6MOL   C241 2351   1.222   3.130   7.406 -0.6672 -0.8520  0.1686
    6MOL   H242 2352   0.644   2.679   7.446 -0.7918 -0.9415  0.8364
    6MOL   H243 2353   0.743   2.719   7.315  2.5410 -1.4876  0.2154
    6MOL   H244 2354   0.825   2.515   7.522 -2.8569 -0.1404 -0.5898
    6MOL   H245 2355   1.205   2.673   7.276 -2.8062 -0.0612 -1.6144
    6MOL   H246 2356   1.234   2.718   7.442 -0.3420  0.2009 -0.2875
    6MOL   H247 2357   1.309   2.901   7.282  0.3712 -0.3640  2.6190
    6MOL   H248 2358   1.136   2.913   7.242 -0.6688  0.5652  0.7225
    6MOL   H249 2359   1.221   2.951   7.524 -0.1235  0.2814 -0.2675
    6MOL   H250 2360   1.070   2.981   7.461 -0.3929 -2.3366 -0.7988
    6MOL   H251 2361   1.152   3.180   7.338  0.7043  1.2204  0.2448
    6MOL   H252 2362   1.324   3.129   7.369 -1.5555 -1.6754 -2.3980
    6MOL   H253 2363   1.224   3.185   7.500 -0.2754  1.4012 -1.1214
    6MOL   C254 2364   0.843   2.718   7.589  0.6688  0.1513 -0.3767
    6MOL   C255 2365   0.738   2.715   7.701 -0.4021 -0.4819 -0.2742
    6MOL   C256 2366   0.696   2.567   7.729  0.0898 -0.8473  1.0083
    6MOL   O257 2367   0.773   2.474   7.755 -0.8632  0.0893 -0.6421
    6MOL   O258 2368   0.566   2.551   7.703 -0.1139  0.0166  0.0751
    6MOL   C259 2369   0.497   2.427   7.727 -1.0901  0.1198  0.3734
    6MOL   C260 2370   0.363   2.468   7.796  0.3632  0.1273  0.1195
    6MOL   C261 2371   0.273   2.562   7.715  0.2232 -0.0800 -0.0559
    6MOL   C262 2372   0.203   2.506   7.594  0.0213  0.0756 -0.0970
    6MOL   H263 2373   0.842   2.818   7.545  0.9064  0.7930  1.0643
    6MOL   H264 2374   0.935   2.698   7.645  0.1876 -1.6050 -0.1767
    6MOL   H265 2375   0.653   2.769   7.661 -0.5293 -1.2099 -0.9957
    6MOL   H266 2376   0.536   2.351   7.795 -2.1019  0.4226  1.3124
    6MOL   H267 2377   0.469   2.378   7.634  0.8107 -0.3737  0.0402
    6MOL   H268 2378   0.310   2.383   7.840 -0.0263 -0.4726 -1.4844
    6MOL   H269 2379   0.392   2.514   0.038 -3.1844  1.0102  0.8581
    6MOL   H270 2380   0.326   2.655   7.696  0.2024 -0.2356 -0.8607
    6MOL   H271 2381   0.191   2.603   7.775  1.1714  0.6762  0.7255
    6MOL   H272 2382   0.171   2.588   7.530 -0.1079  0.5528  0.5791
    6MOL   H273 2383   0.118   2.448   7.628 -0.6563  2.2296  2.0005
    6MOL   H274 2384   0.280   2.453   7.537  0.7570  0.8559  0.1596
    6MOL   C275 2385   0.782   2.789   7.834  0.0994  0.4685  0.1211
    6MOL   C276 2386   0.685   2.870   0.067 -0.5900 -0.2810 -0.8395
    6MOL   C277 2387   0.654   2.999   7.841 -0.0787 -0.4020  0.4842
    6MOL   O278 2388   0.542   3.049   7.835 -0.9648 -0.6695 -0.2738
    6MOL   O279 2389   0.768   3.063   7.799  0.2898  0.2504 -0.0674
    6MOL   C280 2390   0.764   3.186   7.724 -0.0985  0.0045  0.2197
    6MOL   C281 2391   0.833   3.156   7.598 -0.0009 -0.2327 -0.2636
    6MOL   C282 2392   0.854   3.279   7.505 -0.0402 -0.6752 -0.2369
    6MOL   C283 2393   0.730   3.339   7.437  0.0011 -0.2754 -0.0123
    6MOL   H284 2394   0.870   2.852   7.816 -0.1365  1.9910  3.8303
    6MOL   H285 2395   0.825   2.714   0.047  3.8148  2.2188 -0.1558
    6MOL   H286 2396   0.732   2.897   0.161  2.9824  0.4177 -2.7102
    6MOL   H287 2397   0.813   3.266   7.779 -0.6311  0.5991 -0.1644
    6MOL   H288 2398   0.663   3.218   7.700  0.3963  0.0330 -1.9600
    6MOL   H289 2399   0.938   3.137   7.618  0.6201  1.0487 -2.1976
    6MOL   H290 2400   0.807   3.062   7.548 -1.8130 -0.5441  1.2066
    6MOL   H291 2401   0.926   3.268   7.425  1.0064  4.1662 -0.0935
    6MOL   H292 2402   0.902   3.359   7.561  0.9434  1.0770 -3.4611
    6MOL   H293 2403   0.667   3.276   7.373  0.1639 -1.0979  0.6258
    6MOL   H294 2404   0.762   3.413   7.364  1.9674 -1.9128 -0.8736
    6MOL   H295 2405   0.670   3.401   7.504  1.0882  1.3462 -0.5120
    6MOL   C296 2406   0.550   2.792   0.108 -0.1134 -0.0806  0.1616
    6MOL   C297 2407   0.479   2.852   0.235 -0.7770  0.5974  0.3009
    6MOL   C298 2408   0.327   2.834   0.226 -0.0815  0.7072  0.1637
    6MOL   O299 2409   0.259   2.931   0.248 -0.0233  0.4415  0.3460
    6MOL   O300 2410   0.288   2.710   0.211  0.0813  0.1377 -0.4736
    6MOL   C301 2411   0.143   2.692   0.203 -0.2015 -0.2435  0.1330
    6MOL   C302 2412   0.128   2.542   0.217  0.9603 -0.5928 -0.1688
    6MOL   C303 2413   7.835   2.495   0.237  0.4950  0.1990  0.8957
    6MOL   C304 2414   7.777   2.548   0.370 -0.0878  0.2587  1.2538
    6MOL   H305 2415   0.577   2.688   0.129  0.2768  0.4161  2.2480
    6MOL   H306 2416   0.487   2.794   0.019  0.6492  1.3325 -0.3551
    6MOL   H307 2417   0.505   2.957   0.247  2.4476 -0.4308  2.9974
    6MOL   H308 2418   0.093   2.742   0.119 -0.3532 -0.4926  0.0761
    6MOL   H309 2419   0.101   2.731   0.296  0.1807  0.4082  0.0387
    6MOL   H310 2420   0.162   2.485   0.130 -1.1502 -1.3796 -0.5049
    6MOL   H311 2421   0.187   2.503   0.300  0.2912  3.1336  2.1964
    6MOL   H312 2422   7.829   2.387   0.226 -0.7006  0.1119  2.2362
    6MOL   H313 2423   7.772   2.527   0.154  1.9025  1.0171  0.1250
    6MOL   H314 2424   7.851   2.539   0.450 -0.9672  2.2152  2.3385
    6MOL   H315 2425   7.681   2.510   0.403 -0.5306  0.1435 -0.1684
    6MOL   H316 2426   7.754   2.653   0.351 -0.5294  0.0254  0.5148
    6MOL   C317 2427   0.519   2.783   0.376 -0.2295 -0.3575 -0.1904
    6MOL   C318 2428   0.662   2.815   0.430 -0.6219  0.2836 -0.2771
    6MOL   C319 2429   0.687   2.965   0.456 -0.7728  0.1119 -0.3166
    6MOL   O320 2430   0.589   3.035   0.495 -0.3488  1.0523  0.0609
    6MOL   O321 2431   0.806   3.010   0.448 -0.1911  0.4717 -1.0219
    6MOL   C322 2432   0.834   3.153   0.443  0.4765 -0.9737  0.4700
    6MOL   C323 2433   0.792   3.219   0.310  0.7376 -0.0225  0.2003
    6MOL   C324 2434   0.832   3.364   0.305  0.3429  0.2452 -0.4039
    6MOL   C325 2435   0.823   3.418   0.158  0.0746  0.3646 -0.7352
    6MOL   H326 2436   0.504   2.676   0.365  2.7609 -0.7355 -0.8878
    6MOL   H327 2437   0.442   2.806   0.449  0.8181  0.0255  0.8052
    6MOL   H328 2438   0.730   2.784   0.351 -0.3369 -0.3661  0.2152
    6MOL   H329 2439   0.937   3.187   0.454 -0.6383  1.9885  2.4508
    6MOL   H330 2440   0.787   3.200   0.529  3.2105  1.3771  0.7484
    6MOL   H331 2441   0.833   3.174   0.220 -1.4269 -2.1625  0.2322
    6MOL   H332 2442   0.684   3.216   0.299  0.6400 -0.9943  1.3699
    6MOL   H333 2443   0.939   3.382   0.314 -0.0740  2.5776  0.1826
    6MOL   H334 2444   0.783   3.421   0.384 -0.5216  1.5194 -1.8005
    6MOL   H335 2445   0.830   3.526   0.144  0.3346  0.1880 -2.0761
    6MOL   H336 2446   0.725   3.389   0.117 -0.0358 -0.6111  0.1987
    6MOL   H337 2447   0.901   3.374   0.096 -1.2924 -2.2019 -0.7222
    6MOL   C338 2448   0.685   2.711   0.549 -0.7411  0.0791 -0.5298
    6MOL   C339 2449   0.832   2.661   0.572  0.8171  0.5427  0.1293
    6MOL   C340 2450   0.883   2.594   0.443  0.0633  0.1139 -1.0563
    6MOL   O341 2451   0.965   2.665   0.377  0.2200  0.4212 -0.2926
    6MOL   O342 2452   0.810   2.492   0.394  0.2687  0.3078 -0.1826
    6MOL   C343 2453   0.835   2.434   0.261 -0.4453  0.6117 -0.1162
    6MOL   C344 2454   0.699   2.392   0.211  0.2271 -0.0652 -0.3421
    6MOL   C345 2455   0.609   2.328   0.316 -0.8390  0.2628 -0.9464
    6MOL   C346 2456   0.466   2.287   0.273  0.4918 -0.0062  0.1777
    6MOL   H347 2457   0.614   2.628   0.558  0.1465 -0.5300  1.1870
    6MOL   H348 2458   0.654   2.762   0.641  0.2756  0.5207 -0.4218
    6MOL   H349 2459   0.826   2.582   0.647 -1.8514  2.4651  2.0351
    6MOL   H350 2460   0.901   2.349   0.281  0.9748  1.2381 -2.0356
    6MOL   H351 2461   0.871   2.510   0.191 -0.4365  0.6190 -0.1039
    6MOL   H352 2462   0.648   2.486   0.189  3.1507  1.3206 -1.5159
    6MOL   H353 2463   0.706   2.338   0.117 -1.4261  0.6436 -0.8898
    6MOL   H354 2464   0.604   2.394   0.403  4.3322 -1.3208  0.7299
    6MOL   H355 2465   0.654   2.232   0.343 -0.3252  0.3138 -1.6225
    6MOL   H356 2466   0.427   2.364   0.207 -1.7665 -0.9070  0.4074
    6MOL   H357 2467   0.400   2.306   0.358  1.4576 -0.4470  1.0312
    6MOL   H358 2468   0.465   2.186   0.232  0.3879  0.4832 -1.0326
    6MOL   C359 2469   0.923   2.771   0.623 -0.2398 -0.1772  0.2850
    6MOL   C360 2470   1.053   2.718   0.702 -0.0052 -0.9637 -0.2867
    6MOL   C361 2471   1.151   2.833   0.707 -0.2084  0.3727 -0.3696
    6MOL   O362 2472   1.116   2.943   0.752 -0.2999 -0.1160 -0.2486
    6MOL   O363 2473   1.274   2.805   0.667  0.2590  0.3221 -0.0287
    6MOL   C364 2474   1.378   2.893   0.671 -0.0534 -0.5634 -0.0408
    6MOL   C365 2475   1.489   2.858   0.569  0.2993 -0.2086 -0.0323
    6MOL   C366 2476   1.545   2.713   0.572 -0.3958  0.4831  0.6615
    6MOL   C367 2477   1.477   2.612   0.476 -0.7096  0.5135 -0.8310
    6MOL   H368 2478   0.866   2.832   0.693  0.0430 -0.1592  0.4992
    6MOL   H369 2479   0.956   2.834   0.540 -1.0690 -0.0590  0.0385
    6MOL   H370 2480   1.089   2.636   0.639  1.4791 -3.3195  3.4638
    6MOL   H371 2481   1.427   2.900   0.768  0.6069  1.5459 -0.4937
    6MOL   H372 2482   1.332   2.991   0.658 -2.0804 -1.9482 -4.1487
    6MOL   H373 2483   1.458   2.878   0.466 -2.3706 -2.6730  0.2081
    6MOL   H374 2484   1.574   2.924   0.586 -0.4914  0.2376  2.2862
    6MOL   H375 2485   1.523   2.681   0.674 -0.2117 -2.0934 -0.0903
    6MOL   H376 2486   1.653   2.716   0.563 -0.4276  1.3904  0.5299
    6MOL   H377 2487   1.540   2.524   0.463 -2.0719 -0.5923 -0.1152
    6MOL   H378 2488   1.460   2.660   0.380 -1.2260 -0.4792 -1.2493
    6MOL   H379 2489   1.384   2.571   0.514  0.3457 -0.0330  1.2540
    6MOL   C380 2490   1.018   2.666   0.847  0.4375  0.4619 -0.4513
    6MOL   C381 2491   1.119   2.569   0.921 -0.1901 -0.3058  0.4221
    6MOL   C382 2492   1.132   2.444   0.847  0.4297  0.3582 -0.9664
    6MOL   O383 2493   1.215   2.436   0.762  0.0337  0.4798 -0.4077
    6MOL   O384 2494   1.038   2.349   0.883  0.2479  0.0099  0.4464
    6MOL   C385 2495   1.032   2.219   0.823  0.3244  0.2714  0.2546
    6MOL   C386 2496   0.883   2.185   0.807  0.4206 -1.2491  0.5584
    6MOL   C387 2497   0.810   2.279   0.701  0.0128  0.5004  0.0824
    6MOL   C388 2498   0.680   2.216   0.663  0.0333 -0.5192  0.1654
    6MOL   H389 2499   0.913   2.639   0.850 -0.3267  3.3521  2.1392
    6MOL   H390 2500   1.020   2.756   0.909 -1.1122 -0.2523  0.6614
    6MOL   H391 2501   1.060   2.556   1.012 -1.7893  3.2840  0.0045
    6MOL   H392 2502   1.097   2.142   0.865 -0.5033 -1.2325 -1.1379
    6MOL   H393 2503   1.063   2.238   0.720 -3.5578 -2.3874 -1.5293
    6MOL   H394 2504   0.873   2.083   0.770  2.6637 -2.0087  1.9495
    6MOL   H395 2505   0.827   2.199   0.900  0.7662 -0.9547  0.7211
    6MOL   H396 2506   0.858   2.301   0.606 -2.0837 -0.9517 -1.3497
    6MOL   H397 2507   0.803   2.383   0.734 -0.0666  1.1376 -1.8696
    6MOL   H398 2508   0.614   2.201   0.748 -1.8242  2.3810 -0.6819
    6MOL   H399 2509   0.689   2.112   0.630 -0.7727 -0.8388  0.9362
    6MOL   H400 2510   0.628   2.287   0.598  0.2548 -0.3220  0.2032
    6MOL   C401 2511   1.254   2.642   0.969  0.0238 -0.1745  0.2741
    6MOL   C402 2512   1.322   2.559   1.083 -0.0695 -0.0478  0.6115
    6MOL   C403 2513   1.465   2.622   1.120 -0.1011 -0.5984  0.4709
    6MOL   O404 2514   1.519   2.706   1.042 -0.2863 -0.2436 -0.7273
    6MOL   O405 2515   1.512   2.569   1.225  0.1616 -0.2539 -0.5369
    6MOL   C406 2516   1.651   2.576   1.261 -0.6879 -0.4109 -1.0519
    6MOL   C407 2517   1.679   2.714   1.327  0.0652  0.3883 -0.2349
    6MOL   C408 2518   1.581   2.745   1.432  0.5681  0.0206  0.3292
    6MOL   C409 2519   1.607   2.876   1.493 -0.1718 -0.2206  0.2078
    6MOL   H410 2520   1.230   2.747   0.988  1.4345  0.1382  0.4318
    6MOL   H411 2521   1.312   2.650   0.877  0.9216  1.3083  0.9337
    6MOL   H412 2522   1.350   2.459   1.050  1.1649  0.9635 -1.5074
    6MOL   H413 2523   1.720   2.563   1.177 -0.4046 -1.2608 -0.6960
    6MOL   H414 2524   1.669   2.493   1.330 -0.0139 -2.2126 -3.3324
    6MOL   H415 2525   1.775   2.710   1.379  0.2366 -0.7058 -0.6222
    6MOL   H416 2526   1.677   2.799   1.260 -3.5313 -0.5080 -1.3755
    6MOL   H417 2527   1.602   2.667   1.505  1.8867  1.1799  1.2139
    6MOL   H418 2528   1.475   2.740   1.407  0.9781 -1.9373 -1.1754
    6MOL   H419 2529   1.563   2.873   1.592 -1.3301  2.5965 -0.1895
    6MOL   H420 2530   1.577   2.954   1.423  3.2314  0.1818 -0.8946
    6MOL   H421 2531   1.712   2.890   1.516  0.3804 -0.6205 -1.8988
    6MOL   H422 2532   1.255   2.567   1.169 -1.7291  0.1504 -0.6767
    7MOL     C1 2533   1.015   3.353   1.076  0.0178  0.4835  0.0627
    7MOL     C2 2534   1.123   3.421   0.987 -1.4968 -0.1891  0.2499
    7MOL     C3 2535   1.229   3.493   1.086  0.3099  0.3171 -0.1498
    7MOL     O4 2536   1.327   3.438   1.130  0.2057  0.7281 -0.8571
    7MOL     O5 2537   1.197   3.615   1.113 -0.5217  0.5283  0.0358
    7MOL     C6 2538   1.286   3.699   1.188  0.2058  0.3203  0.1615
    7MOL     C7 2539   1.231   3.839   1.225  0.0927  0.7594 -0.3353
    7MOL     C8 2540   1.213   3.926   1.094  0.3281 -0.0843 -0.3092
    7MOL     C9 2541   1.176   4.078   1.125 -0.0480  1.0002 -0.4283
    7MOL    H10 2542   0.975   3.264   1.028  1.3145  0.5186 -1.1268
    7MOL    H11 2543   1.069   3.313   1.163 -0.5395 -0.6864 -0.1274
    7MOL    H12 2544   1.087   3.503   0.924  0.9775  0.2703 -0.6350
    7MOL    H13 2545   1.383   3.704   1.138  0.2451  1.5183  0.3427
    7MOL    H14 2546   1.314   3.645   1.278  0.8675  0.3889 -0.0001
    7MOL    H15 2547   1.131   3.830   1.267  0.1434  2.2798  0.1457
    7MOL    H16 2548   1.288   3.901   1.295  0.7938 -0.6673  0.3727
    7MOL    H17 2549   1.138   3.901   1.019  0.1417 -1.7041  0.4189
    7MOL    H18 2550   1.308   3.918   1.041  1.5273 -0.4714  1.8331
    7MOL    H19 2551   1.212   4.142   1.044 -1.1097 -1.4573 -2.9199
    7MOL    H20 2552   1.228   4.108   1.216  1.1337 -1.8130 -0.0945
    7MOL    H21 2553   1.069   4.096   1.135 -0.2045 -1.3914  2.9475
    7MOL    H22 2554   0.933   3.416   1.110 -1.1205 -1.0477  0.1907
    7MOL    C23 2555   1.187   3.324   0.893  0.0163  0.6778 -0.6880
    7MOL    C24 2556   1.292   3.371   0.788  0.7786  0.6977 -0.8325
    7MOL    C25 2557   1.434   3.406   0.836 -0.1049  0.3952  0.0354
    7MOL    O26 2558   1.473   3.520   0.838 -0.0051  0.0524 -0.0175
    7MOL    O27 2559   1.509   3.303   0.860 -0.3830  0.2854 -0.3831
    7MOL    C28 2560   1.634   3.310   0.928  0.0055 -0.1594  0.4779
    7MOL    C29 2561   1.689   3.170   0.962  0.1107 -0.8687 -0.0312
    7MOL    C30 2562   1.688   3.076   0.849  0.5421  0.0772 -0.3633
    7MOL    C31 2563   1.726   2.938   0.906  0.0107  0.0723 -0.0533
    7MOL    H32 2564   1.117   3.254   0.847  0.9002  1.3891 -3.1347
    7MOL    H33 2565   1.243   3.256   0.958  0.2863 -0.0270 -1.6561
    7MOL    H34 2566   1.245   3.462   0.751  0.6427  2.4762  3.4147
    7MOL    H35 2567   1.630   3.384   1.009  0.8206  1.1556 -0.6735
    7MOL    H36 2568   1.703   3.358   0.859 -0.2705  2.1222  1.7301
    7MOL    H37 2569   1.791   3.193   0.993 -0.3880  1.0712  0.2471
    7MOL    H38 2570   1.634   3.138   1.051  0.0326 -1.3850 -0.2659
    7MOL    H39 2571   1.759   3.119   0.779  0.0287 -0.3804 -1.1679
    7MOL    H40 2572   1.593   3.073   0.797  0.2538  2.8116 -0.0192
    7MOL    H41 2573   1.655   2.912   0.985 -1.4982  2.8902 -0.4019
    7MOL    H42 2574   1.827   2.923   0.942  0.0189  0.7396  0.2052
    7MOL    H43 2575   1.716   2.864   0.827 -0.1138  0.3356 -0.2858
    7MOL    C44 2576   1.290   3.275   0.664 -0.4576  0.4268 -0.1091
    7MOL    C45 2577   1.369   3.329   0.537 -0.7064 -0.1827  0.0790
    7MOL    C46 2578   1.516   3.303   0.543 -0.1884  0.2061 -0.4747
    7MOL    O47 2579   1.562   3.194   0.573 -0.7052 -0.0109  0.0471
    7MOL    O48 2580   1.584   3.411   0.513  0.4813 -0.3485  0.4577
    7MOL    C49 2581   1.729   3.409   0.513  0.1752  0.1480  0.3981
    7MOL    C50 2582   1.768   3.550   0.540  0.1493  0.1869  0.3069
    7MOL    C51 2583   1.914   3.572   0.583 -0.0642 -0.0064 -0.1093
    7MOL    C52 2584   2.014   3.527   0.484 -0.7892  0.1969 -0.1261
    7MOL    H53 2585   1.187   3.241   0.653 -1.4626  2.4045  2.6430
    7MOL    H54 2586   1.351   3.192   0.699  0.3977  0.4372 -1.5412
    7MOL    H55 2587   1.359   3.436   0.559 -0.3724 -0.0067 -0.6113
    7MOL    H56 2588   1.760   3.372   0.415 -1.0378  1.0711 -0.3389
    7MOL    H57 2589   1.771   3.350   0.595 -0.2355 -0.1458  0.3951
    7MOL    H58 2590   1.740   3.614   0.456  1.2930 -0.4293 -0.5512
    7MOL    H59 2591   1.703   3.574   0.624 -0.0539 -1.0505  0.4980
    7MOL    H60 2592   1.937   3.527   0.680  0.1026  2.6987  1.1761
    7MOL    H61 2593   1.933   3.677   0.606  0.0137  0.2941 -1.5504
    7MOL    H62 2594   2.111   3.561   0.519 -0.1548 -0.8094 -0.8752
    7MOL    H63 2595   2.004   3.549   0.378  0.0901  2.8012  0.3056
    7MOL    H64 2596   2.026   3.418   0.487 -1.8983  0.0796  1.0002
    7MOL    C65 2597   1.299   3.279   0.408  0.7715  0.3779  0.2215
    7MOL    C66 2598   1.354   3.337   0.281 -0.1934  0.3289 -0.0950
    7MOL    C67 2599   1.329   3.244   0.159 -0.1784 -0.1050  0.5180
    7MOL    O68 2600   1.420   3.221   0.077 -0.1669 -0.6296 -0.7277
    7MOL    O69 2601   1.205   3.194   0.152 -0.3727 -0.0409  0.3702
    7MOL    C70 2602   1.169   3.120   0.034  0.4836 -0.0703  0.2314
    7MOL    C71 2603   1.226   2.973   0.043  0.1561 -0.5727 -0.0704
    7MOL    C72 2604   1.190   2.905   0.179 -0.3054  0.6247  0.7293
    7MOL    C73 2605   1.275   2.784   0.195 -0.9357  0.8493 -0.2257
    7MOL    H74 2606   1.198   3.317   0.427  1.1781 -0.2009  3.8340
    7MOL    H75 2607   1.299   3.170   0.404 -0.2974  0.3335  1.1548
    7MOL    H76 2608   1.463   3.346   0.290 -0.2437  0.6857  0.1481
    7MOL    H77 2609   1.195   3.163   7.790 -0.2545 -0.2248 -0.0395
    7MOL    H78 2610   1.060   3.121   0.035  0.4821  0.4480 -0.3199
    7MOL    H79 2611   1.176   2.912   7.821 -0.0956 -1.7144  1.0069
    7MOL    H80 2612   1.334   2.972   0.027  0.1414 -1.7229 -0.1088
    7MOL    H81 2613   1.084   2.884   0.167 -0.7106  1.7603  2.2774
    7MOL    H82 2614   1.203   2.972   0.264 -0.2719  2.4278 -0.6552
    7MOL    H83 2615   1.281   2.719   0.107 -3.6121  0.2096  0.0337
    7MOL    H84 2616   1.241   2.710   0.267  2.0279  1.0788  1.5265
    7MOL    H85 2617   1.374   2.819   0.226  0.2371 -1.8427 -0.7138
    7MOL    C86 2618   1.285   3.470   0.249 -0.0248  0.0853  0.2459
    7MOL    C87 2619   1.343   3.556   0.134  0.1397  0.3286  0.0412
    7MOL    C88 2620   1.222   3.618   0.065 -0.6123 -0.2375  0.3914
    7MOL    O89 2621   1.208   3.611   7.796  0.4772  1.1734 -0.4533
    7MOL    O90 2622   1.140   3.683   0.150 -0.3416 -0.1531 -0.1912
    7MOL    C91 2623   1.037   3.766   0.106  0.0553  0.4998  0.5193
    7MOL    C92 2624   1.089   3.914   0.126  0.1046 -0.6664 -0.0353
    7MOL    C93 2625   1.103   3.971   0.268  1.1588  0.0346  0.0124
    7MOL    C94 2626   1.157   4.109   0.271 -0.1625 -0.1679  0.0705
    7MOL    H95 2627   1.272   3.532   0.338 -1.2546  1.0761 -0.6209
    7MOL    H96 2628   1.183   3.443   0.222 -0.3882  2.5754 -1.0115
    7MOL    H97 2629   1.379   3.482   0.063  1.7904  1.2424 -0.0898
    7MOL    H98 2630   0.941   3.753   0.157 -0.8490  0.5486 -1.1345
    7MOL    H99 2631   1.008   3.742   0.004 -0.1258 -0.4734  0.7978
    7MOL   H100 2632   1.188   3.915   0.082  0.1369 -1.8689  0.0089
    7MOL   H101 2633   1.016   3.972   0.069  0.9868  0.1861 -0.3062
    7MOL   H102 2634   1.161   3.898   0.326 -2.4976 -3.2681 -0.2414
    7MOL   H103 2635   1.006   3.974   0.316  0.6126  0.8800 -1.1253
    7MOL   H104 2636   1.263   4.115   0.244 -0.5299  0.5158 -1.2722
    7MOL   H105 2637   1.159   4.150   0.372  3.2960  2.9127 -1.1274
    7MOL   H106 2638   1.093   4.182   0.222 -0.6697  0.5943  1.8336
    7MOL   C107 2639   1.443   3.663   0.180 -0.4062 -1.3484  0.2073
    7MOL   C108 2640   1.531   3.727   0.058  0.2044  0.4159 -0.0915
    7MOL   C109 2641   1.570   3.867   0.106  0.4633 -0.0271 -0.6668
    7MOL   O110 2642   1.533   3.962   0.040 -0.1062 -0.3336  0.8120
    7MOL   O111 2643   1.648   3.868   0.211  0.0607 -0.1075 -0.4082
    7MOL   C112 2644   1.695   3.992   0.263  0.2719 -0.2395  0.4349
    7MOL   C113 2645   1.804   3.968   0.365  0.5522 -0.0357 -0.6841
    7MOL   C114 2646   1.930   3.903   0.318 -0.3918  0.5264 -0.2896
    7MOL   C115 2647   2.040   3.893   0.422  0.7734 -0.0626 -0.1002
    7MOL   H116 2648   1.512   3.620   0.253  0.1176  0.2052  0.6574
    7MOL   H117 2649   1.391   3.746   0.228  2.1994  0.1070  0.6535
    7MOL   H118 2650   1.478   3.734   7.816 -1.7890  4.0132  1.1985
    7MOL   H119 2651   1.609   4.047   0.300 -1.8656 -2.1198 -1.6019
    7MOL   H120 2652   1.739   4.048   0.180 -1.0379  1.5653  0.9422
    7MOL   H121 2653   1.821   4.068   0.406 -2.6159  1.0189 -1.7656
    7MOL   H122 2654   1.763   3.911   0.449  1.3110  0.1357 -0.1967
    7MOL   H123 2655   1.973   3.952   0.231  1.8324 -2.1114 -0.7471
    7MOL   H124 2656   1.906   3.802   0.286 -1.5664  0.2811  1.2966
    7MOL   H125 2657   2.008   3.846   0.515  0.4463 -4.8336 -2.4704
    7MOL   H126 2658   2.084   3.990   0.442  0.5663 -0.1773  0.9165
    7MOL   H127 2659   2.119   3.826   0.388  0.4970 -0.7325  0.5637
    7MOL   C128 2660   1.659   3.640   0.027 -0.1656 -0.3873  0.0076
    7MOL   C129 2661   1.728   3.679   7.740 -0.0364  0.0222 -0.6239
    7MOL   C130 2662   1.829   3.802   7.747  0.0680  0.2740 -0.3669
    7MOL   O131 2663   1.862   3.863   0.003  0.1215 -0.1867 -0.0280
    7MOL   O132 2664   1.880   3.834   7.629  0.0176 -0.5386 -0.8629
    7MOL   C133 2665   1.975   3.937   7.610  0.6950  0.3161 -0.5825
    7MOL   C134 2666   1.925   4.028   7.497  0.1498  0.6057  0.7952
    7MOL   C135 2667   2.036   4.115   7.439  0.8027  0.9883  0.5346
    7MOL   C136 2668   2.012   4.152   7.292  0.0439 -0.0659  0.2076
    7MOL   H137 2669   1.630   3.534   0.023 -2.1952  0.1576 -0.3469
    7MOL   H138 2670   1.734   3.644   0.105  1.9148 -1.5730 -1.8721
    7MOL   H139 2671   1.636   3.702   7.687 -1.0027 -0.1366  0.9490
    7MOL   H140 2672   2.074   3.894   7.595  1.5815  2.3114 -0.6276
    7MOL   H141 2673   1.986   4.005   7.695 -0.5232 -0.7532  0.4593
    7MOL   H142 2674   1.883   3.953   7.430 -0.7105  1.9557 -0.1973
    7MOL   H143 2675   1.856   4.097   7.545 -0.4495 -0.3318  1.2895
    7MOL   H144 2676   2.131   4.063   7.449 -0.3312 -0.9046  1.5857
    7MOL   H145 2677   2.047   4.207   7.497 -1.1044  1.8534 -0.4162
    7MOL   H146 2678   2.013   4.067   7.224  0.1428 -0.4404  0.6806
    7MOL   H147 2679   2.076   4.227   7.245 -1.2540  0.1022 -1.3334
    7MOL   H148 2680   1.916   4.203   7.286  0.1373 -0.1217 -2.7301
    7MOL   C149 2681   1.810   3.560   7.670  0.5560 -0.5348 -0.1252
    7MOL   C150 2682   1.743   3.508   7.539 -0.0884  0.0357  0.2508
    7MOL   C151 2683   1.600   3.449   7.558  0.4763 -1.0145  0.6998
    7MOL   O152 2684   1.584   3.357   7.635  0.4380  0.4506 -0.5354
    7MOL   O153 2685   1.505   3.517   7.497  0.4166 -0.4561 -0.3967
    7MOL   C154 2686   1.370   3.469   7.507  1.0934 -0.4611  0.0210
    7MOL   C155 2687   1.265   3.564   7.445 -0.7657 -0.0603 -0.1942
    7MOL   C156 2688   1.279   3.576   7.294 -0.1540  0.1090  0.2649
    7MOL   C157 2689   1.194   3.475   7.221 -0.1328  0.3089  0.5463
    7MOL   H158 2690   1.825   3.476   7.738  1.2845 -1.0701 -0.9253
    7MOL   H159 2691   1.912   3.588   7.644  0.2514 -0.0056 -0.7788
    7MOL   H160 2692   1.806   3.422   7.519  0.0555  0.3235 -0.5380
    7MOL   H161 2693   1.357   3.463   7.615  1.1611 -0.7469  0.0150
    7MOL   H162 2694   1.361   3.371   7.461 -2.4443  0.2214 -0.9329
    7MOL   H163 2695   1.162   3.533   7.468 -0.8928  0.2128 -0.4010
    7MOL   H164 2696   1.270   3.664   7.488 -0.8928 -1.0739  2.2442
    7MOL   H165 2697   1.383   3.571   7.264 -0.8947  0.5167 -2.5856
    7MOL   H166 2698   1.254   3.680   7.275  0.5941  0.8232  3.0364
    7MOL   H167 2699   1.210   3.369   7.240  0.6021  0.1326 -0.9367
    7MOL   H168 2700   1.201   3.482   7.112 -0.3831 -1.3778  0.4017
    7MOL   H169 2701   1.088   3.491   7.241  0.0584  2.0984  0.2115
    7MOL   C170 2702   1.767   3.606   7.420  0.8976  0.1778  0.1779
    7MOL   C171 2703   1.745   3.545   7.276  0.7772  0.3099  1.1736
    7MOL   C172 2704   1.727   3.650   7.168 -0.4987  0.0005  0.1722
    7MOL   O173 2705   1.624   3.663   7.100  0.3492 -0.5633 -0.0978
    7MOL   O174 2706   1.837   3.725   7.150 -0.1050  0.4400  0.2179
    7MOL   C175 2707   1.854   3.793   7.020  0.0188  0.3860  0.1310
    7MOL   C176 2708   1.770   3.919   7.019  0.0078 -0.4620  0.4283
    7MOL   C177 2709   1.784   4.011   6.900  0.4112  0.4753 -0.0579
    7MOL   C178 2710   1.703   4.139   6.903  0.5084 -0.4209  0.0828
    7MOL   H179 2711   1.860   3.660   7.437  0.8726  0.1324  0.4705
    7MOL   H180 2712   1.706   3.696   7.431  2.4373  1.1757  0.6418
    7MOL   H181 2713   1.658   3.480   7.287  1.1971 -0.5670 -0.5970
    7MOL   H182 2714   1.834   3.717   6.944  1.1923  2.7846 -2.6662
    7MOL   H183 2715   1.961   3.815   7.023 -0.2334  1.5460  0.8213
    7MOL   H184 2716   1.664   3.891   7.022 -0.2454  0.0899 -1.8339
    7MOL   H185 2717   1.799   3.981   7.103 -1.0530 -0.8479  1.1020
    7MOL   H186 2718   1.772   3.954   6.808  1.3223  0.3312 -0.0992
    7MOL   H187 2719   1.888   4.042   6.907  0.3372  1.2226 -1.9865
    7MOL   H188 2720   1.722   4.199   6.992  0.4983 -1.2059  0.6170
    7MOL   H189 2721   1.596   4.121   6.897  0.4408 -0.0721  0.2781
    7MOL   H190 2722   1.735   4.203   6.821 -0.2467 -1.1164 -0.7715
    7MOL   C191 2723   1.857   3.443   7.236  0.2531  0.5251  0.2340
    7MOL   C192 2724   1.828   3.298   7.246  0.2360 -0.3988  0.4161
    7MOL   C193 2725   1.708   3.248   7.161  0.1505  0.2750 -0.3310
    7MOL   O194 2726   1.626   3.166   7.214  0.4534  0.0379 -0.0524
    7MOL   O195 2727   1.696   3.300   7.032  1.0007  0.2734  0.0388
    7MOL   C196 2728   1.585   3.264   6.951  0.2875  0.0676  0.1882
    7MOL   C197 2729   1.447   3.325   6.998  0.5493 -0.4527 -0.0186
    7MOL   C198 2730   1.321   3.245   6.952 -0.4257 -0.4096  0.3497
    7MOL   C199 2731   1.314   3.112   7.004  0.3052  0.9355 -0.3040
    7MOL   H200 2732   1.944   3.475   7.294  1.3046 -1.5218 -0.1547
    7MOL   H201 2733   1.897   3.459   7.136  3.8717 -0.0119  1.5314
    7MOL   H202 2734   1.782   3.282   7.344  0.7111 -3.3704  0.1891
    7MOL   H203 2735   1.590   3.155   6.943  0.8945  0.1339 -0.4519
    7MOL   H204 2736   1.606   3.285   6.846  0.6899 -1.6711 -0.1054
    7MOL   H205 2737   1.454   3.345   7.105 -0.1365  1.9909 -0.3946
    7MOL   H206 2738   1.436   3.422   6.949  1.2146 -0.3287  0.0774
    7MOL   H207 2739   1.309   3.242   6.844 -0.5269  0.0245  0.3482
    7MOL   H208 2740   1.232   3.304   6.975  0.4850  0.9032  0.5447
    7MOL   H209 2741   1.400   3.051   6.976  0.3264  1.0526 -0.4925
    7MOL   H210 2742   1.220   3.058   6.985 -0.3911  2.0594 -0.0973
    7MOL   H211 2743   1.305   3.121   7.112  2.1402 -0.7102  0.0128
    7MOL   C212 2744   1.946   3.199   7.239  0.8018  0.2455 -0.1910
    7MOL   C213 2745   2.049   3.209   7.355  0.5713  0.6611 -0.3767
    7MOL   C214 2746   1.986   3.198   7.496  0.3581 -0.4124  0.4018
    7MOL   O215 2747   2.003   3.292   7.577  0.0108  0.0598 -0.0305
    7MOL   O216 2748   1.926   3.084   7.516  0.2452  0.6904  0.2906
    7MOL   C217 2749   1.858   3.068   7.638  0.0179 -0.1713 -0.5776
    7MOL   C218 2750   1.760   2.947   7.621 -0.6218  0.5291 -0.0988
    7MOL   C219 2751   1.666   2.948   7.740 -0.3709 -0.1192 -0.0518
    7MOL   C220 2752   1.567   2.844   7.735 -0.4153  0.3394 -0.6565
    7MOL   H221 2753   2.006   3.217   7.149  1.9648 -2.5569 -0.0489
    7MOL   H222 2754   1.912   3.098   7.214  0.4205  0.0469  1.0935
    7MOL   H223 2755   2.103   3.303   7.364 -0.3410  1.4392 -2.6433
    7MOL   H224 2756   1.786   3.149   7.655 -0.6940 -0.5873 -1.5254
    7MOL   H225 2757   1.912   3.068   7.732 -0.6741  0.5656 -0.1738
    7MOL   H226 2758   1.700   2.976   7.535 -1.1047 -0.2864 -0.0415
    7MOL   H227 2759   1.805   2.852   7.592 -1.0325  0.1204  0.5766
    7MOL   H228 2760   1.616   3.043   7.753  0.3474  0.3493 -0.6610
    7MOL   H229 2761   1.737   2.936   7.821  1.1286 -1.6373 -1.5310
    7MOL   H230 2762   1.625   2.753   7.718  0.0441  0.4562  0.2475
    7MOL   H231 2763   1.508   2.863   7.645  1.2382  0.1403 -1.8024
    7MOL   H232 2764   1.513   2.839   7.829  0.2585  2.2247 -0.1477
    7MOL   C233 2765   2.152   3.093   7.339 -0.0505  0.9999 -0.0003
    7MOL   C234 2766   2.257   3.116   7.232 -0.2939  0.6217 -0.1541
    7MOL   C235 2767   2.349   3.230   7.266 -0.0981 -0.1683 -0.4576
    7MOL   O236 2768   2.393   3.236   7.377  0.0319 -0.5149 -1.0743
    7MOL   O237 2769   2.379   3.303   7.156  0.0944  0.3553 -0.1703
    7MOL   C238 2770   2.473   3.403   7.162 -0.4054  0.3999 -0.0077
    7MOL   C239 2771   2.579   3.382   7.057 -0.2487 -0.5788 -0.3413
    7MOL   C240 2772   2.688   3.489   7.049  0.2132  0.1466 -0.1419
    7MOL   C241 2773   2.797   3.460   6.946 -0.9888  0.4082  0.4584
    7MOL   H242 2774   2.099   2.997   7.336 -0.7939  1.4375 -1.6986
    7MOL   H243 2775   2.202   3.080   7.435 -1.9668 -0.0569  0.8892
    7MOL   H244 2776   2.210   3.147   7.139  1.1181  1.8972 -0.4751
    7MOL   H245 2777   2.533   3.396   7.253  0.2801 -1.2251 -0.5737
    7MOL   H246 2778   2.427   3.502   7.162 -0.7374  0.2449 -0.2807
    7MOL   H247 2779   2.621   3.285   7.082  0.0119 -0.0088  1.5390
    7MOL   H248 2780   2.538   3.371   6.956  3.5623  0.6889 -2.1360
    7MOL   H249 2781   2.733   3.514   7.145  0.5415  0.7625 -0.4508
    7MOL   H250 2782   2.653   3.587   7.017  2.4465  1.0688  0.1463
    7MOL   H251 2783   2.873   3.538   6.952 -0.9498  0.4141 -0.1447
    7MOL   H252 2784   2.761   3.471   6.844 -0.6009 -1.9704  0.0388
    7MOL   H253 2785   2.844   3.362   6.947  1.5075  1.5472 -0.2252
    7MOL   C254 2786   2.337   2.976   7.224  0.5376  0.3455 -0.1979
    7MOL   C255 2787   2.411   2.946   7.091 -0.0338 -0.1181  0.5176
    7MOL   C256 2788   2.511   2.829   7.113  0.3856 -0.3394 -0.6217
    7MOL   O257 2789   2.485   2.718   7.072 -0.3486  0.0792 -0.0962
    7MOL   O258 2790   2.616   2.865   7.195 -0.0403  0.1861  0.0946
    7MOL   C259 2791   2.713   2.766   7.236  0.5131 -0.0152 -0.1528
    7MOL   C260 2792   2.813   2.840   7.331  0.2855 -0.5448  0.3167
    7MOL   C261 2793   2.875   2.965   7.255  0.2696  0.3916  0.0125
    7MOL   C262 2794   2.988   3.031   7.325  0.2189 -0.4883  0.2403
    7MOL   H263 2795   2.263   2.900   7.250 -0.3561  0.2045 -3.0660
    7MOL   H264 2796   2.407   2.977   7.308  2.0961 -1.0934 -1.4779
    7MOL   H265 2797   2.469   3.038   7.084 -0.7811  0.2816 -0.6322
    7MOL   H266 2798   2.761   2.730   7.145 -0.1976 -1.3762  0.0044
    7MOL   H267 2799   2.673   2.678   7.286  0.2358  0.8249  1.1498
    7MOL   H268 2800   2.761   2.875   7.420 -0.8370  1.0410 -0.9459
    7MOL   H269 2801   2.889   2.769   7.365  0.5904 -0.1307  0.5086
    7MOL   H270 2802   2.793   3.038   7.258  1.0110  1.1793  2.1294
    7MOL   H271 2803   2.904   2.940   7.153 -0.9424  1.5695 -0.6447
    7MOL   H272 2804   2.959   3.037   7.430  0.3510  0.1756  0.2432
    7MOL   H273 2805   3.012   3.134   7.297 -1.9514 -0.1077 -0.2824
    7MOL   H274 2806   3.081   2.974   7.323  1.0414  0.8451 -0.7047
    7MOL   C275 2807   2.313   2.934   6.971 -0.5642 -0.2818 -0.2761
    7MOL   C276 2808   2.384   2.952   6.832  0.3001 -0.3557  0.4028
    7MOL   C277 2809   2.283   2.906   6.722  0.2102 -0.6359  0.8682
    7MOL   O278 2810   2.212   2.989   6.666  0.1162 -0.2676 -0.4217
    7MOL   O279 2811   2.266   2.773   6.712 -0.1080  0.5292  0.3481
    7MOL   C280 2812   2.172   2.708   6.626  0.8345 -0.2470  0.1444
    7MOL   C281 2813   2.203   2.552   6.621  0.4739 -0.0538  0.2114
    7MOL   C282 2814   2.332   2.525   6.551  0.6657  0.3093  0.1795
    7MOL   C283 2815   2.317   2.456   6.420 -0.1232  0.5684  0.2058
    7MOL   H284 2816   2.243   3.018   6.975 -0.7291 -0.4632  1.1218
    7MOL   H285 2817   2.246   2.850   6.984 -0.5069 -0.2056  0.5703
    7MOL   H286 2818   2.468   2.885   6.843 -1.2135 -2.2192  0.8682
    7MOL   H287 2819   2.174   2.752   6.527 -0.7009  2.5296  1.2888
    7MOL   H288 2820   2.075   2.739   6.665 -0.1475 -0.2934 -2.2307
    7MOL   H289 2821   2.205   2.529   6.728 -0.6624 -0.3950  0.1663
    7MOL   H290 2822   2.116   2.503   6.577  0.9276 -1.1614  0.5407
    7MOL   H291 2823   2.388   2.450   6.607  1.8598  0.4719 -0.7669
    7MOL   H292 2824   2.402   2.607   6.536 -0.2918  1.2865  1.0185
    7MOL   H293 2825   2.253   2.371   6.442 -2.0823  1.5059 -1.7156
    7MOL   H294 2826   2.414   2.423   6.384 -0.2359 -0.1406  0.5417
    7MOL   H295 2827   2.278   2.528   6.348  0.4666 -0.9400 -1.6699
    7MOL   C296 2828   2.444   3.092   6.801 -0.3006  0.4985  0.6123
    7MOL   C297 2829   2.541   3.096   6.680 -0.0333 -0.2331  0.1600
    7MOL   C298 2830   2.554   3.231   6.613 -0.1964  0.6278  0.3489
    7MOL   O299 2831   2.641   3.319   6.641 -0.3513 -0.0604  0.1084
    7MOL   O300 2832   2.457   3.233   6.523  0.2336 -0.0919 -0.0523
    7MOL   C301 2833   2.443   3.346   6.431  0.2887  0.3069 -0.2718
    7MOL   C302 2834   2.377   3.297   6.293  0.3528 -0.9977 -0.4819
    7MOL   C303 2835   2.476   3.225   6.202 -0.1688  0.5764 -0.2787
    7MOL   C304 2836   2.416   3.196   6.064  0.3122  0.1318 -0.1846
    7MOL   H305 2837   2.500   3.118   6.891  2.4645 -0.2317 -0.8216
    7MOL   H306 2838   2.365   3.167   6.798 -0.5977  0.2325  1.4755
    7MOL   H307 2839   2.504   3.024   6.608 -1.6906 -0.7769  1.5184
    7MOL   H308 2840   2.535   3.399   6.409 -0.3741  1.3442 -0.5943
    7MOL   H309 2841   2.377   3.416   6.483  0.1939  1.1087 -1.4525
    7MOL   H310 2842   2.283   3.246   6.313 -1.2101  2.0211  0.1967
    7MOL   H311 2843   2.357   3.380   6.225  0.9618 -0.1587  0.3387
    7MOL   H312 2844   2.519   3.138   6.252 -0.3580  1.4915  1.5102
    7MOL   H313 2845   2.569   3.280   6.186 -1.1480  2.3748  0.0571
    7MOL   H314 2846   2.498   3.208   5.993  0.3025  3.1644  0.2494
    7MOL   H315 2847   2.341   3.267   6.030 -1.2879 -1.1392  0.5851
    7MOL   H316 2848   2.370   3.098   6.048 -2.1440  1.2354  0.0412
    7MOL   C317 2849   2.680   3.040   6.726 -0.2208 -0.3354  0.0301
    7MOL   C318 2850   2.745   2.950   6.620  0.1805 -0.7789 -0.6079
    7MOL   C319 2851   2.668   2.816   6.617 -0.3315  0.3779 -0.5368
    7MOL   O320 2852   2.585   2.789   6.533  0.2486 -0.1557 -0.0000
    7MOL   O321 2853   2.689   2.744   6.725  0.4233 -0.5377  0.2418
    7MOL   C322 2854   2.617   2.623   6.739 -0.0579  0.6915 -0.2617
    7MOL   C323 2855   2.674   2.558   6.862 -0.0741  0.2307 -0.2400
    7MOL   C324 2856   2.606   2.426   6.884  0.5168  0.6131  0.5276
    7MOL   C325 2857   2.629   2.381   7.026 -0.1288  0.2684  0.1520
    7MOL   H326 2858   2.683   2.992   6.823 -1.0258 -0.1557  0.1409
    7MOL   H327 2859   2.752   3.122   6.736 -1.1755  0.7389 -1.6335
    7MOL   H328 2860   2.844   2.918   6.655 -0.2737 -2.1702 -0.5609
    7MOL   H329 2861   2.620   2.565   6.647 -1.6213  2.3527 -1.4025
    7MOL   H330 2862   2.510   2.644   6.740  0.6709  4.8079  0.2864
    7MOL   H331 2863   2.782   2.547   6.863 -0.0788  0.2388  0.5769
    7MOL   H332 2864   2.653   2.617   6.951 -2.5652  1.0582 -1.3089
    7MOL   H333 2865   2.638   2.343   6.821 -2.4299  0.0163 -0.2841
    7MOL   H334 2866   2.500   2.439   6.861 -0.1228  2.0188  3.8986
    7MOL   H335 2867   2.582   2.286   7.053 -0.4301  0.7480  1.3386
    7MOL   H336 2868   2.591   2.461   7.089 -2.6524 -0.1732 -0.7479
    7MOL   H337 2869   2.730   2.362   7.063 -0.8283 -0.6498  1.6309
    7MOL   C338 2870   2.777   3.014   6.486  0.1400 -0.4393 -0.3399
    7MOL   C339 2871   2.880   2.937   6.400 -0.6179  0.1087  0.1033
    7MOL   C340 2872   2.830   2.814   6.330 -0.6987  0.1351  0.2331
    7MOL   O341 2873   2.868   2.706   6.368  0.7792  0.1424  0.4841
    7MOL   O342 2874   2.738   2.832   6.234 -0.2815  0.0324 -0.1257
    7MOL   C343 2875   2.686   2.712   6.170  0.1853  0.5155 -0.2177
    7MOL   C344 2876   2.547   2.733   6.104 -0.4300 -0.0584  0.0496
    7MOL   C345 2877   2.439   2.724   6.213 -0.3072  0.6585  0.3063
    7MOL   C346 2878   2.298   2.763   6.159 -0.1810 -0.1724  0.3750
    7MOL   H347 2879   2.822   3.112   6.501 -0.9678 -0.1153  0.9177
    7MOL   H348 2880   2.679   3.024   6.439 -0.6314 -0.4540  1.2562
    7MOL   H349 2881   2.954   2.895   6.467 -1.0612 -1.4196 -0.3475
    7MOL   H350 2882   2.677   2.629   6.241  1.7702  1.1688  0.7837
    7MOL   H351 2883   2.762   2.683   6.097  0.2379  2.1016 -0.7934
    7MOL   H352 2884   2.538   2.830   6.053  0.0552  0.1618  0.3774
    7MOL   H353 2885   2.524   2.659   6.027  1.3892  1.9162 -2.5184
    7MOL   H354 2886   2.476   2.802   6.279 -0.3940  0.0728  1.0542
    7MOL   H355 2887   2.445   2.631   6.270 -1.6781  0.1376 -0.3585
    7MOL   H356 2888   2.295   2.846   6.089 -0.0006  0.7465  1.4536
    7MOL   H357 2889   2.224   2.775   6.238 -1.3096 -0.7349 -0.5758
    7MOL   H358 2890   2.250   2.676   6.114  0.0345  0.0217 -0.2443
    7MOL   C359 2891   2.949   3.035   6.294 -0.3268  0.0570 -0.5620
    7MOL   C360 2892   3.070   3.112   6.350 -0.2491  1.3521  0.0008
    7MOL   C361 2893   3.190   3.028   6.404  0.0706 -0.1426  0.1639
    7MOL   O362 2894   3.211   3.011   6.523 -0.7258  0.1161 -0.1600
    7MOL   O363 2895   3.263   2.961   6.307  0.3326  0.1602 -0.0525
    7MOL   C364 2896   3.370   2.871   6.341 -0.3671 -0.3925  0.4742
    7MOL   C365 2897   3.316   2.732   6.350  0.0055  0.2074  0.1836
    7MOL   C366 2898   3.280   2.650   6.221 -0.0237  0.3513  0.0221
    7MOL   C367 2899   3.216   2.517   6.223 -0.4880 -0.1376  0.0218
    7MOL   H368 2900   2.878   3.108   6.255 -0.9667 -1.4233 -2.2268
    7MOL   H369 2901   2.973   2.984   6.201  0.0359 -0.5108 -0.1560
    7MOL   H370 2902   3.041   3.161   6.442 -3.1543  1.0305 -0.7027
    7MOL   H371 2903   3.410   2.893   6.440  0.9027  0.6177 -0.2399
    7MOL   H372 2904   3.452   2.882   6.271 -1.1303  2.2776 -0.0864
    7MOL   H373 2905   3.396   2.672   6.395 -0.5368  0.5748  1.6669
    7MOL   H374 2906   3.227   2.734   6.413 -1.1361 -1.6150 -1.3113
    7MOL   H375 2907   3.368   2.644   6.156  0.4767 -1.1585  0.8110
    7MOL   H376 2908   3.215   2.717   6.164  0.3813  0.0467 -0.8045
    7MOL   H377 2909   3.176   2.490   6.126 -1.2706 -0.1154  0.3387
    7MOL   H378 2910   3.141   2.525   6.302 -1.1933  1.5050 -0.7883
    7MOL   H379 2911   3.287   2.440   6.254  1.9764  3.0193  2.7861
    7MOL   C380 2912   3.113   3.229   6.258  0.7562 -0.6903  0.3219
    7MOL   C381 2913   3.019   3.345   6.222  0.0985  0.2104 -0.7954
    7MOL   C382 2914   2.927   3.380   6.338  0.6610 -0.0978 -0.3975
    7MOL   O383 2915   2.806   3.337   6.336 -0.6637  0.0124  0.8780
    7MOL   O384 2916   2.991   3.439   6.444  0.0377 -0.1825  0.0877
    7MOL   C385 2917   2.919   3.466   6.565  0.3922  0.0208  0.4728
    7MOL   C386 2918   2.962   3.599   6.634 -0.2885 -0.1794 -0.6249
    7MOL   C387 2919   2.932   3.720   6.544  0.0803  0.2407 -0.4402
    7MOL   C388 2920   2.784   3.724   6.496 -0.7589 -0.5920 -0.6361
    7MOL   H389 2921   3.128   3.199   6.154  0.4193 -1.3065  0.4532
    7MOL   H390 2922   3.209   3.267   6.294  0.8733 -0.2405 -0.4445
    7MOL   H391 2923   2.957   3.317   6.137 -3.9642  3.3069  0.9790
    7MOL   H392 2924   2.930   3.381   6.632  0.4698  0.2813  0.7930
    7MOL   H393 2925   2.814   3.468   6.534  1.3428  1.3397 -2.9398
    7MOL   H394 2926   2.914   3.604   6.731  1.8732  1.7200  0.3764
    7MOL   H395 2927   3.069   3.594   6.654 -0.2915 -0.5324 -0.6886
    7MOL   H396 2928   3.011   3.722   6.470 -0.2896  1.5460 -0.8211
    7MOL   H397 2929   2.946   3.815   6.595 -3.6190  0.0619  1.0966
    7MOL   H398 2930   2.724   3.719   6.586  1.2807  1.6440  0.9200
    7MOL   H399 2931   2.752   3.642   6.432 -0.3594 -0.5380 -0.9072
    7MOL   H400 2932   2.767   3.816   6.440 -0.7851 -0.2344 -0.0422
    7MOL   C401 2933   3.080   3.480   6.176 -0.4196  0.3487 -0.3361
    7MOL   C402 2934   2.990   3.554   6.079 -0.6817  0.1500  0.1338
    7MOL   C403 2935   3.070   3.671   6.017  0.1498  0.2427  0.3115
    7MOL   O404 2936   3.101   3.770   6.078  0.1540 -0.2540  0.0773
    7MOL   O405 2937   3.109   3.640   5.886  0.8425  0.4689  0.4214
    7MOL   C406 2938   3.197   3.719   5.815 -0.4845  0.0253 -0.1113
    7MOL   C407 2939   3.154   3.758   5.680 -0.7287 -0.4131 -0.4678
    7MOL   C408 2940   3.044   3.864   5.673  0.0128  0.0202  0.2828
    7MOL   C409 2941   2.982   3.880   5.536  0.0449 -0.6619  0.6255
    7MOL   H410 2942   3.177   3.454   6.133 -0.3079  0.8154 -0.3735
    7MOL   H411 2943   3.103   3.551   6.255 -2.2511 -0.5124  0.9966
    7MOL   H412 2944   2.902   3.587   6.134 -0.2049  2.5621 -0.4875
    7MOL   H413 2945   3.293   3.668   5.810  0.5703  1.9712 -0.3020
    7MOL   H414 2946   3.208   3.813   5.869 -0.5264  0.1959 -0.3995
    7MOL   H415 2947   3.240   3.802   5.629 -1.6359  0.5368 -1.1908
    7MOL   H416 2948   3.114   3.665   5.640 -4.0931  1.2990 -1.2242
    7MOL   H417 2949   3.089   3.959   5.705  0.1263  0.6811 -1.7209
    7MOL   H418 2950   2.957   3.838   5.732 -0.9627  0.3023 -1.0155
    7MOL   H419 2951   3.071   3.883   5.474  0.4036 -0.5113  1.1485
    7MOL   H420 2952   2.925   3.973   5.524  0.5769 -0.3503  0.5061
    7MOL   H421 2953   2.929   3.789   5.509 -1.0388  0.3378 -0.7166
    7MOL   H422 2954   2.955   3.484   6.003 -1.1861  0.7534 -0.2018
    8MOL     C1 2955   1.923   5.826   2.734 -0.5476 -0.4128  0.5053
    8MOL     C2 2956   1.845   5.959   2.724  0.1688  0.1189 -0.0342
    8MOL     C3 2957   1.794   6.000   2.855  0.5522  0.1946 -0.6665
    8MOL     O4 2958   1.673   6.022   2.880  0.1542  0.0575  0.0247
    8MOL     O5 2959   1.886   6.002   2.949 -0.2945 -0.8009  0.6249
    8MOL     C6 2960   1.866   6.067   3.072  0.4425  0.4712 -0.3266
    8MOL     C7 2961   1.963   6.191   3.081 -0.1868 -0.6332  0.1120
    8MOL     C8 2962   2.108   6.159   3.050  0.3557 -0.2716  0.3708
    8MOL     C9 2963   2.168   6.065   3.156  0.1188  0.1698 -0.5561
    8MOL    H10 2964   1.870   5.758   2.801 -1.9401  0.8052  0.6692
    8MOL    H11 2965   1.948   5.779   2.639  1.6016  1.1873  0.2614
    8MOL    H12 2966   1.752   5.951   2.667 -1.1537  1.1088  1.9102
    8MOL    H13 2967   1.898   5.992   3.144  0.9826 -0.6404 -1.6965
    8MOL    H14 2968   1.769   6.110   3.097 -0.6555 -1.9219 -0.3540
    8MOL    H15 2969   1.925   6.275   3.023  0.0539 -1.0163 -0.6016
    8MOL    H16 2970   1.961   6.236   3.180 -1.2620 -0.0961 -0.1544
    8MOL    H17 2971   2.162   6.254   3.046  0.2463 -0.2283 -0.2939
    8MOL    H18 2972   2.115   6.119   2.948  0.0872  0.1511  0.1844
    8MOL    H19 2973   2.110   5.974   3.171  1.2026 -0.3580  0.4908
    8MOL    H20 2974   2.178   6.101   3.259  3.3328  0.2989 -0.8690
    8MOL    H21 2975   2.271   6.038   3.131  0.0357 -0.2042 -0.4922
    8MOL    H22 2976   2.022   5.843   2.775  0.1550 -1.8285 -0.5570
    8MOL    C23 2977   1.937   6.058   2.664 -0.0623 -0.0965 -0.9078
    8MOL    C24 2978   1.959   6.050   2.508  0.2590  0.1508  0.2662
    8MOL    C25 2979   1.844   6.098   2.425  0.0913  0.1114  0.0401
    8MOL    O26 2980   1.769   6.021   2.359  0.4151 -0.4106  0.1222
    8MOL    O27 2981   1.820   6.230   2.435 -0.0083  0.7307  0.4655
    8MOL    C28 2982   1.751   6.301   2.341  0.0852  1.2996 -0.5609
    8MOL    C29 2983   1.846   6.364   2.234  0.3362 -0.2964  0.4337
    8MOL    C30 2984   1.851   6.283   2.097 -0.3692  0.2442  0.2335
    8MOL    C31 2985   1.891   6.360   1.971 -0.0817  0.1199 -1.1369
    8MOL    H32 2986   2.031   6.041   2.716 -1.3440  0.2967  1.6075
    8MOL    H33 2987   1.900   6.158   2.685  0.2504  0.3203 -2.3061
    8MOL    H34 2988   1.965   5.943   2.487 -3.0318 -0.3807  1.7773
    8MOL    H35 2989   1.716   6.378   2.411 -1.3267  0.6361 -0.5305
    8MOL    H36 2990   1.668   6.251   2.292  0.3141  1.2182 -0.8612
    8MOL    H37 2991   1.808   6.464   2.211 -0.7550 -0.9381 -0.6393
    8MOL    H38 2992   1.947   6.381   2.271  0.8578  3.1105 -2.2845
    8MOL    H39 2993   1.758   6.228   2.084 -0.5588  0.6127  0.0326
    8MOL    H40 2994   1.928   6.207   2.110 -0.6493 -0.7760 -3.3544
    8MOL    H41 2995   1.913   6.307   1.879  1.3415 -0.2477 -0.5842
    8MOL    H42 2996   1.977   6.421   1.998  0.3006 -0.1142 -1.8114
    8MOL    H43 2997   1.808   6.428   1.949 -2.2306 -2.0779 -0.0436
    8MOL    C44 2998   2.090   6.118   2.471  0.4486 -0.3588  0.6766
    8MOL    C45 2999   2.213   6.026   2.489 -0.1840 -0.3230 -0.2202
    8MOL    C46 3000   2.220   5.927   2.373 -0.1157  0.2179  0.2644
    8MOL    O47 3001   2.201   5.962   2.256 -0.8569  0.3731  0.1857
    8MOL    O48 3002   2.253   5.804   2.414  0.0683  0.2120  0.0012
    8MOL    C49 3003   2.269   5.699   2.324 -0.2298  0.7449 -0.1286
    8MOL    C50 3004   2.332   5.584   2.407  0.7420 -0.2587  0.1104
    8MOL    C51 3005   2.470   5.618   2.460  0.5066 -0.3036 -0.8977
    8MOL    C52 3006   2.562   5.650   2.347  0.1037 -0.4663  0.1183
    8MOL    H53 3007   2.095   6.201   2.542 -0.7297  0.5953 -0.3225
    8MOL    H54 3008   2.089   6.162   2.371 -0.0671  1.0677  1.2878
    8MOL    H55 3009   2.195   5.970   2.581 -0.3420 -1.3237 -0.8600
    8MOL    H56 3010   2.340   5.742   2.254  0.6175 -1.6543 -0.7838
    8MOL    H57 3011   2.170   5.676   2.284 -1.7902 -0.3662  4.0760
    8MOL    H58 3012   2.261   5.552   2.482  1.0193  1.4832  1.1452
    8MOL    H59 3013   2.338   5.501   2.336 -1.0102  1.2908 -1.9467
    8MOL    H60 3014   2.509   5.537   2.521 -0.7849  0.9859  1.7330
    8MOL    H61 3015   2.461   5.703   2.528 -4.6280 -0.0815 -1.6426
    8MOL    H62 3016   2.548   5.577   2.266 -0.5834 -3.1153  2.5516
    8MOL    H63 3017   2.665   5.635   2.379  1.4091  3.0949 -2.1445
    8MOL    H64 3018   2.557   5.751   2.308 -0.5739 -0.7261 -0.4930
    8MOL    C65 3019   2.342   6.100   2.532 -0.2156 -0.3686  0.2413
    8MOL    C66 3020   2.451   6.014   2.598 -0.2349 -0.2344 -0.0364
    8MOL    C67 3021   2.589   6.083   2.598 -0.6184  0.1677 -0.4190
    8MOL    O68 3022   2.612   6.199   2.642 -0.3625 -0.6150  0.5710
    8MOL    O69 3023   2.679   5.995   2.554  0.0721  0.3231  0.5293
    8MOL    C70 3024   2.814   6.034   2.543  0.2185  0.1681  0.4314
    8MOL    C71 3025   2.863   5.950   2.424 -0.3302 -0.1482  0.2491
    8MOL    C72 3026   3.004   5.978   2.375  0.3269 -0.6384 -0.3286
    8MOL    C73 3027   3.026   5.918   2.238  0.0390 -0.3589  0.3941
    8MOL    H74 3028   2.313   6.177   2.603  1.6348  1.1659 -0.6377
    8MOL    H75 3029   2.384   6.159   2.450 -1.1848 -1.9265 -1.4259
    8MOL    H76 3030   2.451   5.933   2.525 -1.5055 -0.1268 -0.1631
    8MOL    H77 3031   2.879   6.001   2.623  0.4624 -0.0973  0.1273
    8MOL    H78 3032   2.816   6.141   2.522  1.7594  0.3447  1.4505
    8MOL    H79 3033   2.856   5.843   2.445 -0.7087  0.1330  1.5904
    8MOL    H80 3034   2.806   5.980   2.336  1.3654  0.9317 -0.5115
    8MOL    H81 3035   3.081   5.937   2.440 -1.0266 -2.8947 -0.0730
    8MOL    H82 3036   3.019   6.085   2.376  0.3116 -0.6343 -0.4847
    8MOL    H83 3037   3.130   5.924   2.206  0.4035 -0.0962  1.6335
    8MOL    H84 3038   2.989   5.984   2.159  0.8554 -0.2111  0.1269
    8MOL    H85 3039   2.995   5.814   2.233  2.5098 -1.0940 -0.3756
    8MOL    C86 3040   2.408   5.980   2.749 -0.0435  0.4696 -0.0226
    8MOL    C87 3041   2.428   5.838   2.797 -0.5463  0.2728 -0.0434
    8MOL    C88 3042   2.575   5.808   2.813 -0.7781  0.0147  0.4129
    8MOL    O89 3043   2.660   5.890   2.831 -0.1194 -0.6675 -0.1298
    8MOL    O90 3044   2.605   5.683   2.808 -0.6666 -0.7327 -0.0419
    8MOL    C91 3045   2.716   5.624   2.869 -0.2187  0.6079 -0.4032
    8MOL    C92 3046   2.829   5.605   2.765 -0.5966  0.5314 -0.0665
    8MOL    C93 3047   2.788   5.504   2.656 -0.1582 -0.5925 -0.2807
    8MOL    C94 3048   2.895   5.524   2.540 -0.4840 -0.2254 -0.3716
    8MOL    H95 3049   2.309   6.018   2.773  0.2864  0.2484  1.7528
    8MOL    H96 3050   2.467   6.049   2.810  1.3384 -0.9604  0.2854
    8MOL    H97 3051   2.396   5.776   2.714  1.2289 -1.9517  0.8787
    8MOL    H98 3052   2.701   5.526   2.914 -0.8110  1.8887  2.2884
    8MOL    H99 3053   2.746   5.673   2.961 -0.5264  1.1338 -0.5836
    8MOL   H100 3054   2.863   5.700   2.725  1.9875  0.7846  2.5626
    8MOL   H101 3055   2.910   5.577   2.832 -1.1116  2.9717  1.6497
    8MOL   H102 3056   2.692   5.535   2.616 -0.3010 -2.0950 -1.1422
    8MOL   H103 3057   2.783   5.397   2.678  1.3847 -0.2323  2.0030
    8MOL   H104 3058   2.920   5.628   2.518  0.6112 -0.5369 -0.6610
    8MOL   H105 3059   2.847   5.481   2.452  1.1108  2.0445 -2.4312
    8MOL   H106 3060   2.996   5.484   2.553 -0.3684  0.0337 -0.4667
    8MOL   C107 3061   2.348   5.810   2.924  0.0227 -0.0735 -0.3984
    8MOL   C108 3062   2.325   5.656   2.953  0.2764  0.6148  0.6161
    8MOL   C109 3063   2.275   5.638   3.104 -0.3757  0.5240 -0.0816
    8MOL   O110 3064   2.197   5.711   3.166 -0.0918 -0.4684 -0.5474
    8MOL   O111 3065   2.323   5.531   3.161 -0.0200  0.0076 -0.1116
    8MOL   C112 3066   2.304   5.501   3.297  0.2439  0.4102  0.8423
    8MOL   C113 3067   2.415   5.400   3.340  0.0605  0.0774 -0.7448
    8MOL   C114 3068   2.419   5.275   3.248  0.3026  0.5588  0.1886
    8MOL   C115 3069   2.506   5.162   3.309  0.0388  0.3472 -0.1086
    8MOL   H116 3070   2.246   5.845   2.904 -0.2256 -0.0111  0.9189
    8MOL   H117 3071   2.391   5.876   2.999  0.2466  0.5011 -1.0232
    8MOL   H118 3072   2.416   5.601   2.930 -0.7810 -0.5946 -0.7472
    8MOL   H119 3073   2.213   5.441   3.299 -0.1576  1.0051  0.5695
    8MOL   H120 3074   2.309   5.584   3.367 -1.9800  0.2997  1.1581
    8MOL   H121 3075   2.508   5.456   3.342 -0.8781  1.6641 -0.8246
    8MOL   H122 3076   2.385   5.365   3.439 -2.6008 -0.3146 -1.6396
    8MOL   H123 3077   2.439   5.306   3.145  0.0533  3.5249  0.9789
    8MOL   H124 3078   2.316   5.249   3.222  0.3150  1.4483 -0.7905
    8MOL   H125 3079   2.613   5.178   3.315  0.1433 -0.2471 -0.3823
    8MOL   H126 3080   2.500   5.073   3.246  1.2945 -0.4121  0.8437
    8MOL   H127 3081   2.464   5.118   3.400 -3.1590  1.1421 -1.1115
    8MOL   C128 3082   2.232   5.600   2.844 -0.1692  0.6912  0.6188
    8MOL   C129 3083   2.167   5.462   2.880 -0.6020 -0.1427  0.5887
    8MOL   C130 3084   2.047   5.429   2.790 -0.0327 -0.0112 -0.4023
    8MOL   O131 3085   2.005   5.509   2.709  0.2919  0.0492  0.5792
    8MOL   O132 3086   1.986   5.313   2.824  0.1118  0.7096  0.3231
    8MOL   C133 3087   1.872   5.258   2.765  0.2123 -0.3127 -0.3379
    8MOL   C134 3088   1.808   5.160   2.869  0.4781  0.2376 -0.3965
    8MOL   C135 3089   1.749   5.229   2.989  0.5980 -0.1496 -0.3327
    8MOL   C136 3090   1.696   5.132   3.094 -0.0441 -0.3322  0.1081
    8MOL   H137 3091   2.288   5.588   2.751  0.0061 -0.8885  0.9222
    8MOL   H138 3092   2.147   5.668   2.840 -0.4656  0.3622  1.2519
    8MOL   H139 3093   2.122   5.454   2.979 -0.3265 -2.6385  0.5544
    8MOL   H140 3094   1.887   5.206   2.670 -0.2382 -1.8650  0.4229
    8MOL   H141 3095   1.803   5.337   2.734 -1.3682 -2.4233 -2.3601
    8MOL   H142 3096   1.744   5.079   2.836 -1.7254  1.9387 -0.4553
    8MOL   H143 3097   1.892   5.104   2.910  1.4659  2.2857  0.4951
    8MOL   H144 3098   1.657   5.275   2.952  0.3557 -0.6317 -0.3344
    8MOL   H145 3099   1.821   5.301   3.028 -0.3723  1.2319 -1.0662
    8MOL   H146 3100   1.625   5.187   3.155  0.1338  0.1351 -0.1105
    8MOL   H147 3101   1.770   5.103   3.169 -1.6433  1.2161  2.3271
    8MOL   H148 3102   1.636   5.049   3.058 -0.5570 -0.3441  0.9766
    8MOL   C149 3103   2.272   5.341   2.893  0.1169 -0.5554  0.8554
    8MOL   C150 3104   2.348   5.296   2.764  0.0489 -0.2067 -0.0653
    8MOL   C151 3105   2.473   5.222   2.796 -0.5075  0.1360 -0.0666
    8MOL   O152 3106   2.580   5.283   2.803  0.3489  0.7824  0.1346
    8MOL   O153 3107   2.459   5.085   2.823 -0.2563 -0.5498  0.1140
    8MOL   C154 3108   2.573   5.007   2.841 -0.2735 -0.6157  0.1766
    8MOL   C155 3109   2.533   4.856   2.840 -0.0744  0.3592 -0.0647
    8MOL   C156 3110   2.453   4.806   2.720 -0.8007  0.3324 -0.3372
    8MOL   C157 3111   2.407   4.655   2.741 -0.3274  0.2420  0.3120
    8MOL   H158 3112   2.214   5.259   2.934  0.0023 -1.4728 -1.0961
    8MOL   H159 3113   2.339   5.371   2.974  0.4475  0.0607  0.3611
    8MOL   H160 3114   2.376   5.389   2.715  0.0157  1.3422  2.7273
    8MOL   H161 3115   2.599   5.041   2.941  2.3622  0.0222 -0.6905
    8MOL   H162 3116   2.659   5.030   2.778  0.9362  1.1373  2.3571
    8MOL   H163 3117   2.629   4.803   2.835 -1.0288 -1.3451 -0.7453
    8MOL   H164 3118   2.492   4.847   2.940 -0.0215  0.6822 -0.0117
    8MOL   H165 3119   2.517   4.792   2.632  0.1802 -3.2001  0.8659
    8MOL   H166 3120   2.365   4.868   2.704 -1.1445 -0.0276  0.1636
    8MOL   H167 3121   2.331   4.635   2.817 -2.9013 -1.9783 -2.7283
    8MOL   H168 3122   2.493   4.589   2.756  0.5328  1.5536  1.4229
    8MOL   H169 3123   2.364   4.608   2.653 -1.7050  0.3891  0.8909
    8MOL   C170 3124   2.251   5.215   2.676  0.4835  0.6862 -0.1569
    8MOL   C171 3125   2.313   5.133   2.560  0.1178 -0.1390  0.4901
    8MOL   C172 3126   2.221   5.019   2.523 -0.1380  0.0618  0.1591
    8MOL   O173 3127   2.103   5.018   2.552  0.3471  0.6097 -0.0256
    8MOL   O174 3128   2.280   4.923   2.446  0.3569  0.4015  0.0476
    8MOL   C175 3129   2.202   4.816   2.391 -0.1762 -0.6758  0.0951
    8MOL   C176 3130   2.284   4.738   2.286  0.0557  0.2901 -0.5824
    8MOL   C177 3131   2.208   4.611   2.234  0.0497 -0.5678 -0.1147
    8MOL   C178 3132   2.218   4.496   2.329 -0.0294  0.3126  0.7313
    8MOL   H179 3133   2.180   5.275   2.618  2.0955  1.8626 -0.9566
    8MOL   H180 3134   2.194   5.143   2.736  1.6476 -0.5119 -0.4730
    8MOL   H181 3135   2.401   5.083   2.599 -0.1677 -0.7171  0.3954
    8MOL   H182 3136   2.101   4.848   2.367  0.2737 -0.5827 -1.7111
    8MOL   H183 3137   2.182   4.747   2.473  2.2701 -2.3785 -0.6748
    8MOL   H184 3138   2.310   4.800   2.199  0.9792  1.0346  0.2185
    8MOL   H185 3139   2.382   4.706   2.321 -0.7495 -2.1685 -0.5396
    8MOL   H186 3140   2.234   4.588   2.130 -3.3674 -2.9217 -0.5230
    8MOL   H187 3141   2.104   4.641   2.225  1.0889  3.4788  0.3554
    8MOL   H188 3142   2.325   4.478   2.342 -0.1644 -1.7918 -0.6492
    8MOL   H189 3143   2.185   4.398   2.291 -0.3800  0.4186  0.7583
    8MOL   H190 3144   2.164   4.523   2.419 -2.6469  1.6159 -1.1492
    8MOL   C191 3145   2.356   5.199   2.433  0.2258 -0.2903  0.5677
    8MOL   C192 3146   2.460   5.127   2.347  0.4084  0.0860 -0.2479
    8MOL   C193 3147   2.465   5.193   2.209  1.0986  0.0395 -0.4840
    8MOL   O194 3148   2.481   5.312   2.202  0.3092 -0.3731 -0.5608
    8MOL   O195 3149   2.465   5.105   2.107  0.0143  0.4370  0.5973
    8MOL   C196 3150   2.489   5.133   1.968 -0.1322 -0.2274 -0.3232
    8MOL   C197 3151   2.635   5.132   1.923 -0.0163  0.4919 -0.7786
    8MOL   C198 3152   2.648   5.205   1.789 -0.5743 -0.3885  0.1582
    8MOL   C199 3153   2.798   5.216   1.749  0.4902  0.0494 -0.2414
    8MOL   H200 3154   2.396   5.294   2.468 -2.1527  0.0336  2.5012
    8MOL   H201 3155   2.267   5.226   2.377 -1.2701 -1.4173  2.3322
    8MOL   H202 3156   2.444   5.022   2.322 -0.7750  1.1154 -4.1780
    8MOL   H203 3157   2.441   5.230   1.950 -0.0786 -0.1905 -0.2670
    8MOL   H204 3158   2.441   5.053   1.912  0.2554 -2.5482  2.5362
    8MOL   H205 3159   2.689   5.181   2.004 -0.9944  1.2374 -0.5718
    8MOL   H206 3160   2.664   5.027   1.923 -2.4487 -0.2314 -3.0244
    8MOL   H207 3161   2.609   5.307   1.784 -1.7336 -0.6675  2.9450
    8MOL   H208 3162   2.592   5.150   1.713 -2.1418 -0.7035  1.5251
    8MOL   H209 3163   2.812   5.248   1.646 -2.1472  1.4436 -0.2195
    8MOL   H210 3164   2.847   5.119   1.756 -0.5736 -0.4011  1.4136
    8MOL   H211 3165   2.852   5.284   1.815  2.0945 -1.0689 -0.3856
    8MOL   C212 3166   2.598   5.142   2.421 -0.7221 -0.0307  0.2928
    8MOL   C213 3167   2.717   5.060   2.365 -0.9695 -1.0935  0.1674
    8MOL   C214 3168   2.846   5.112   2.418  0.8378 -0.3828  0.1333
    8MOL   O215 3169   2.921   5.192   2.351  0.0303  0.0313 -0.7260
    8MOL   O216 3170   2.862   5.079   2.545  0.0087 -0.6316  0.3103
    8MOL   C217 3171   2.947   5.153   2.642  0.4985  0.0412 -0.1718
    8MOL   C218 3172   3.074   5.070   2.686  0.1765  0.4985 -0.0023
    8MOL   C219 3173   3.041   4.936   2.769  0.0030 -0.3829  0.1864
    8MOL   C220 3174   3.157   4.836   2.763 -0.6209  0.1392  0.1246
    8MOL   H221 3175   2.595   5.114   2.527  0.4636  0.9505  0.5996
    8MOL   H222 3176   2.632   5.245   2.419 -0.2165 -0.1577  1.6934
    8MOL   H223 3177   2.717   5.085   2.259 -2.3906 -0.2062  0.3700
    8MOL   H224 3178   2.900   5.166   2.739 -1.1532 -1.6534 -0.7117
    8MOL   H225 3179   2.975   5.250   2.601  1.7496 -0.3983 -0.3827
    8MOL   H226 3180   3.128   5.033   2.599 -1.1727 -0.3239 -0.5082
    8MOL   H227 3181   3.141   5.137   2.739 -0.9630  0.0422  2.0699
    8MOL   H228 3182   2.955   4.882   2.731  0.4933 -0.8408 -0.2895
    8MOL   H229 3183   3.023   4.970   2.871 -0.1356  0.1467 -0.0115
    8MOL   H230 3184   3.177   4.813   2.658 -0.8598  0.7769 -0.0671
    8MOL   H231 3185   3.130   4.747   2.819  1.2603 -2.4263 -2.8940
    8MOL   H232 3186   3.249   4.875   2.806 -1.2918  1.6567  0.2223
    8MOL   C233 3187   2.697   4.908   2.381  0.5380 -0.4675  0.5206
    8MOL   C234 3188   2.779   4.822   2.271 -0.1144 -0.1199 -0.6770
    8MOL   C235 3189   2.926   4.829   2.288 -0.3315 -0.5342  0.0558
    8MOL   O236 3190   2.984   4.836   2.398  0.0614  0.1613 -0.4511
    8MOL   O237 3191   2.988   4.824   2.167 -0.2262  0.2211 -0.4426
    8MOL   C238 3192   3.126   4.848   2.147 -0.1552  0.8372 -0.0894
    8MOL   C239 3193   3.158   4.970   2.058 -0.1262 -0.0445  0.4249
    8MOL   C240 3194   3.094   4.957   1.923  0.2339 -0.2105 -0.3022
    8MOL   C241 3195   3.143   5.055   1.821  0.6674 -0.0196  0.5467
    8MOL   H242 3196   2.591   4.887   2.372  0.9392 -2.5375  0.4839
    8MOL   H243 3197   2.733   4.878   2.479  1.3583 -0.3879  0.2476
    8MOL   H244 3198   2.759   4.860   2.171 -0.1896  2.4534  0.2715
    8MOL   H245 3199   3.185   4.760   2.123 -0.5652 -0.0055  1.8448
    8MOL   H246 3200   3.164   4.868   2.248 -0.0582 -0.3080  0.1062
    8MOL   H247 3201   3.131   5.064   2.105  0.6158  0.2014  0.3666
    8MOL   H248 3202   3.265   4.981   2.037  0.2491  0.5179  2.4771
    8MOL   H249 3203   2.985   4.950   1.932  0.1595 -1.8479 -2.0707
    8MOL   H250 3204   3.121   4.856   1.895 -1.3270 -0.9502  0.7791
    8MOL   H251 3205   3.122   5.033   1.717  0.8823  0.0643  0.4857
    8MOL   H252 3206   3.252   5.042   1.824  0.3835 -2.4441  1.9543
    8MOL   H253 3207   3.114   5.157   1.843  1.0880  0.2722 -0.2396
    8MOL   C254 3208   2.726   4.679   2.281  0.4522 -0.1562  0.3897
    8MOL   C255 3209   2.720   4.617   2.140  0.1553  0.4038  0.2966
    8MOL   C256 3210   2.725   4.469   2.151 -0.2592 -0.3352  0.8097
    8MOL   O257 3211   2.826   4.413   2.108 -0.5448 -0.0534 -0.4169
    8MOL   O258 3212   2.614   4.415   2.207  0.0176 -0.4354  0.0005
    8MOL   C259 3213   2.598   4.275   2.188  0.0328 -0.1326 -0.2159
    8MOL   C260 3214   2.475   4.256   2.093  1.0161 -0.2670  0.0759
    8MOL   C261 3215   2.420   4.115   2.075  0.1303  0.4750 -0.3519
    8MOL   C262 3216   2.276   4.091   2.024  0.1211  0.3364 -0.2493
    8MOL   H263 3217   2.629   4.670   2.329 -0.7590  0.7620 -1.7890
    8MOL   H264 3218   2.800   4.635   2.348  0.7924  0.7430  0.6136
    8MOL   H265 3219   2.812   4.657   2.096 -0.4974  0.9966 -0.5430
    8MOL   H266 3220   2.559   4.226   2.277  0.4807  0.5858  0.3779
    8MOL   H267 3221   2.691   4.231   2.153  0.0281 -1.6848  1.6699
    8MOL   H268 3222   2.391   4.312   2.137  1.2843 -0.0595  0.3250
    8MOL   H269 3223   2.496   4.303   1.997  0.8004  0.3259  0.3147
    8MOL   H270 3224   2.429   4.064   2.171  1.2612  1.6804  0.2069
    8MOL   H271 3225   2.481   4.073   1.996  1.0023  0.5627  0.2647
    8MOL   H272 3226   2.253   3.984   2.026  0.0229  0.2833 -2.5540
    8MOL   H273 3227   2.271   4.133   1.923  1.0078  2.1573  0.4456
    8MOL   H274 3228   2.203   4.134   2.092 -0.2027 -1.3078  0.4659
    8MOL   C275 3229   2.598   4.657   2.054 -0.0627  0.0169 -0.2993
    8MOL   C276 3230   2.598   4.605   1.903 -0.0905 -0.5215 -1.0791
    8MOL   C277 3231   2.454   4.608   1.847  0.4757 -0.4764 -0.2809
    8MOL   O278 3232   2.412   4.516   1.780 -0.4309 -0.7342 -0.1925
    8MOL   O279 3233   2.387   4.720   1.881 -0.2330 -0.2421  0.4366
    8MOL   C280 3234   2.251   4.730   1.839  0.0045 -0.3676  0.0908
    8MOL   C281 3235   2.235   4.843   1.741 -0.4915 -0.2674 -0.0047
    8MOL   C282 3236   2.109   4.840   1.648 -0.0203 -0.0902 -0.1022
    8MOL   C283 3237   1.992   4.909   1.714 -0.2164  0.1548 -0.1053
    8MOL   H284 3238   2.600   4.765   2.035 -2.5600 -0.1690 -1.8495
    8MOL   H285 3239   2.505   4.644   2.110 -0.3000 -0.3486 -0.7752
    8MOL   H286 3240   2.619   4.498   1.909  2.2221 -0.0795 -0.7907
    8MOL   H287 3241   2.191   4.758   1.926 -0.4674  0.3041 -0.4437
    8MOL   H288 3242   2.217   4.642   1.785  0.5259 -0.4813 -0.0495
    8MOL   H289 3243   2.242   4.942   1.785  0.1538 -0.7928  1.0948
    8MOL   H290 3244   2.327   4.839   1.682 -0.3018 -0.3584  0.2940
    8MOL   H291 3245   2.080   4.739   1.621  0.9177 -0.6558  0.9683
    8MOL   H292 3246   2.134   4.891   1.555 -2.0718  0.0761 -0.5908
    8MOL   H293 3247   2.029   5.010   1.732 -1.3032  0.6707 -0.7233
    8MOL   H294 3248   1.959   4.851   1.800  1.5155 -0.8361 -0.0917
    8MOL   H295 3249   1.909   4.922   1.644 -0.5371 -0.8414  0.0889
    8MOL   C296 3250   2.705   4.673   1.814  0.4826 -0.4928  0.1632
    8MOL   C297 3251   2.712   4.603   1.677 -0.1195  0.4018 -0.2010
    8MOL   C298 3252   2.681   4.677   1.553 -0.0377  0.0652 -0.2464
    8MOL   O299 3253   2.684   4.796   1.551 -0.2292 -0.4900 -0.3994
    8MOL   O300 3254   2.649   4.600   1.447 -0.0177 -0.0652 -0.0382
    8MOL   C301 3255   2.594   4.657   1.334  0.1290  0.2009 -0.3502
    8MOL   C302 3256   2.436   4.661   1.341  0.0449 -0.2591  0.1046
    8MOL   C303 3257   2.375   4.728   1.214  0.0057 -0.4843 -0.2882
    8MOL   C304 3258   2.225   4.743   1.226  0.9035  0.3824  0.0321
    8MOL   H305 3259   2.805   4.668   1.856 -0.8988 -0.8345  3.6078
    8MOL   H306 3260   2.677   4.777   1.795  1.0901 -0.5841 -1.2642
    8MOL   H307 3261   2.631   4.529   1.677  2.0717 -2.0585  0.0664
    8MOL   H308 3262   2.619   4.599   1.245  1.6309 -2.2870  1.6414
    8MOL   H309 3263   2.622   4.761   1.317  0.5543  0.1317 -0.0704
    8MOL   H310 3264   2.397   4.561   1.357 -0.2220 -0.1619  0.0690
    8MOL   H311 3265   2.401   4.709   1.432  1.0222 -0.5056  0.6178
    8MOL   H312 3266   2.379   4.656   1.132  0.5358 -0.1112 -0.5883
    8MOL   H313 3267   2.432   4.817   1.188  1.0281 -0.8336  0.7429
    8MOL   H314 3268   2.186   4.781   1.131 -1.2821 -4.2630 -1.0551
    8MOL   H315 3269   2.197   4.810   1.308  1.2867  0.8720 -0.2392
    8MOL   H316 3270   2.169   4.652   1.245  3.9995 -1.5838 -0.0843
    8MOL   C317 3271   2.848   4.532   1.657 -0.2401  0.0695  0.0600
    8MOL   C318 3272   2.878   4.419   1.752  0.2240  0.1112 -0.6678
    8MOL   C319 3273   2.774   4.305   1.742 -0.0452 -0.0915 -1.0912
    8MOL   O320 3274   2.727   4.257   1.843 -0.3824  0.1304  0.1415
    8MOL   O321 3275   2.759   4.266   1.616  0.3723 -0.2809  0.2453
    8MOL   C322 3276   2.689   4.149   1.578 -0.4782  0.7914  0.1740
    8MOL   C323 3277   2.670   4.134   1.428 -0.1803  0.1764  0.1730
    8MOL   C324 3278   2.572   4.235   1.367 -0.0199 -0.2620  0.2562
    8MOL   C325 3279   2.425   4.213   1.419  0.3073  0.0028  0.1457
    8MOL   H326 3280   2.927   4.607   1.668  0.4827 -0.7147  0.2859
    8MOL   H327 3281   2.861   4.491   1.557 -0.2005 -1.9032  0.8490
    8MOL   H328 3282   2.865   4.451   1.855  1.7231  2.8594 -1.3000
    8MOL   H329 3283   2.595   4.159   1.634  0.6968  0.1575  2.3266
    8MOL   H330 3284   2.758   4.074   1.617 -0.3701  1.2536  0.8694
    8MOL   H331 3285   2.771   4.151   1.389 -0.5768 -0.9272 -1.3902
    8MOL   H332 3286   2.632   4.034   1.407  1.0097  0.0083 -1.2888
    8MOL   H333 3287   2.579   4.221   1.259  1.5817  1.0000  0.1784
    8MOL   H334 3288   2.602   4.335   1.397  1.8526 -0.8496  0.4088
    8MOL   H335 3289   2.430   4.248   1.522  1.0043  0.7161 -0.1317
    8MOL   H336 3290   2.408   4.105   1.424  0.3070  0.0835  2.3209
    8MOL   H337 3291   2.343   4.269   1.375  0.4027 -1.1846 -1.5835
    8MOL   C338 3292   3.022   4.366   1.737  0.6360  0.3097  0.5252
    8MOL   C339 3293   3.048   4.252   1.843 -0.1452  0.4557  0.4365
    8MOL   C340 3294   3.032   4.112   1.784  0.0411  0.2593 -0.3435
    8MOL   O341 3295   3.041   4.092   1.663 -0.1547 -0.2451  0.5391
    8MOL   O342 3296   3.003   4.014   1.879  0.0009 -0.5863 -0.2728
    8MOL   C343 3297   2.954   3.892   1.845 -0.7602 -0.0545 -0.2373
    8MOL   C344 3298   2.917   3.819   1.973 -0.1693 -0.7194 -0.3426
    8MOL   C345 3299   2.793   3.882   2.035 -0.4973 -0.2050 -0.3131
    8MOL   C346 3300   2.738   3.812   2.155 -0.3592  0.5589  1.1640
    8MOL   H347 3301   3.091   4.449   1.744  3.7865 -2.3077  1.6974
    8MOL   H348 3302   3.037   4.325   1.637  0.7139  0.2917  0.5442
    8MOL   H349 3303   2.982   4.262   1.930 -0.3779 -2.1835  0.6070
    8MOL   H350 3304   3.022   3.847   1.773  1.8559  0.9611  1.5194
    8MOL   H351 3305   2.853   3.913   1.808 -1.9838 -1.1719  2.2729
    8MOL   H352 3306   2.892   3.715   1.954 -0.1447 -0.7105 -0.4227
    8MOL   H353 3307   2.997   3.819   2.046  1.0547  1.4482 -1.6218
    8MOL   H354 3308   2.717   3.877   1.957 -0.9206 -1.6274  0.1709
    8MOL   H355 3309   2.803   3.989   2.057 -1.3618 -0.2015  0.1191
    8MOL   H356 3310   2.816   3.807   2.232  1.5503 -0.2535 -0.7594
    8MOL   H357 3311   2.696   3.716   2.126  0.3659  0.0268  1.8217
    8MOL   H358 3312   2.656   3.868   2.200  0.3520  0.9261  2.0198
    8MOL   C359 3313   3.196   4.272   1.889 -0.6884 -0.5600 -0.2115
    8MOL   C360 3314   3.243   4.192   2.010  0.0561 -0.1289  0.6333
    8MOL   C361 3315   3.392   4.222   2.038 -0.6174 -0.2831 -0.2402
    8MOL   O362 3316   3.464   4.277   1.958 -0.3942 -0.5290 -0.1648
    8MOL   O363 3317   3.447   4.174   2.155 -0.3489  0.3347  0.0111
    8MOL   C364 3318   3.588   4.195   2.182 -0.0512  0.5040  0.5088
    8MOL   C365 3319   3.633   4.094   2.290 -0.1775 -0.1610 -0.3740
    8MOL   C366 3320   3.560   4.119   2.425 -0.2824  0.2056  0.3393
    8MOL   C367 3321   3.589   3.998   2.513 -0.1634 -0.4907 -0.0874
    8MOL   H368 3322   3.214   4.376   1.915  1.0323 -1.3466  1.8932
    8MOL   H369 3323   3.261   4.253   1.803  1.2826  1.0286  0.8809
    8MOL   H370 3324   3.234   4.086   1.984  0.9112 -0.1656  0.4775
    8MOL   H371 3325   3.609   4.300   2.199 -0.3006  0.8170 -1.1059
    8MOL   H372 3326   3.631   4.157   2.090 -2.0984 -0.4155 -0.1180
    8MOL   H373 3327   3.614   3.993   2.253  0.9208 -0.0085 -1.3858
    8MOL   H374 3328   3.740   4.115   2.300  0.2232 -0.9049 -2.6993
    8MOL   H375 3329   3.456   4.135   2.398 -0.2635 -0.2365 -0.0059
    8MOL   H376 3330   3.603   4.195   2.491  0.2262 -0.7506  1.1146
    8MOL   H377 3331   3.560   4.010   2.618  0.7203  0.3316  0.0715
    8MOL   H378 3332   3.696   3.978   2.517 -0.1974 -0.7740 -0.5226
    8MOL   H379 3333   3.539   3.908   2.476 -0.0593  0.7184 -3.3511
    8MOL   C380 3334   3.163   4.229   2.136 -0.1127  0.0205 -0.7423
    8MOL   C381 3335   3.097   4.108   2.207  0.1114  0.0216  0.4778
    8MOL   C382 3336   3.188   3.997   2.262  0.2030 -0.1308  0.3710
    8MOL   O383 3337   3.201   3.973   2.379  0.3939 -0.1542 -0.7132
    8MOL   O384 3338   3.248   3.928   2.168  0.1183  0.0786  0.7194
    8MOL   C385 3339   3.326   3.804   2.186 -0.4548  0.2520  0.3422
    8MOL   C386 3340   3.395   3.771   2.050 -0.1528  0.4374 -0.7212
    8MOL   C387 3341   3.510   3.866   2.013  0.2108 -0.1224 -0.0814
    8MOL   C388 3342   3.519   3.898   1.859  0.2607  0.6405  0.2855
    8MOL   H389 3343   3.087   4.302   2.108  2.2261  1.4501 -3.7314
    8MOL   H390 3344   3.213   4.280   2.217  0.0410 -0.6920 -0.3822
    8MOL   H391 3345   3.022   4.069   2.138 -0.7580  1.1127  0.7985
    8MOL   H392 3346   3.261   3.720   2.210 -0.3107  0.0306 -0.0353
    8MOL   H393 3347   3.383   3.824   2.277 -3.1304 -1.6804  2.5322
    8MOL   H394 3348   3.447   3.676   2.050  0.5339  0.7145  3.7216
    8MOL   H395 3349   3.321   3.773   1.970 -0.2397 -0.6682 -0.6754
    8MOL   H396 3350   3.606   3.818   2.031  0.6409 -0.5845 -3.4024
    8MOL   H397 3351   3.510   3.954   2.078  1.9842 -0.4671  0.4225
    8MOL   H398 3352   3.596   3.970   1.834  0.1835  1.8508  3.3464
    8MOL   H399 3353   3.428   3.921   1.803  0.2200 -0.6007 -0.1868
    8MOL   H400 3354   3.554   3.805   1.814 -0.2554  0.0314  1.1063
    8MOL   C401 3355   2.994   4.164   2.318  0.4137 -0.0588  0.9001
    8MOL   C402 3356   2.901   4.056   2.376  0.4198 -0.3587 -0.4067
    8MOL   C403 3357   2.819   4.107   2.494  1.1644  0.8187 -0.2041
    8MOL   O404 3358   2.813   4.046   2.596  0.3564 -0.2122 -0.0771
    8MOL   O405 3359   2.756   4.229   2.463  0.3291 -0.1344 -0.0728
    8MOL   C406 3360   2.672   4.286   2.556  0.5715  0.2407  0.2596
    8MOL   C407 3361   2.735   4.369   2.665  0.4624  0.1867 -0.1253
    8MOL   C408 3362   2.841   4.471   2.633  1.4017  0.1600  0.4138
    8MOL   C409 3363   2.899   4.545   2.756  0.5612 -0.7959  0.5794
    8MOL   H410 3364   2.929   4.238   2.272 -1.2717 -3.0090 -1.7466
    8MOL   H411 3365   3.033   4.218   2.404 -0.8589  0.1220  1.3837
    8MOL   H412 3366   2.959   3.975   2.421  0.2841 -0.5463 -0.5650
    8MOL   H413 3367   2.596   4.213   2.585  0.0633  0.5579 -0.2681
    8MOL   H414 3368   2.609   4.360   2.507 -0.0639 -1.3490 -1.3734
    8MOL   H415 3369   2.660   4.420   2.726  1.2597 -0.0765  1.1022
    8MOL   H416 3370   2.786   4.292   2.724  0.3176  0.7491  0.7575
    8MOL   H417 3371   2.795   4.547   2.569  1.4370 -0.0687  0.1139
    8MOL   H418 3372   2.917   4.427   2.569  1.9566 -0.1596  1.2968
    8MOL   H419 3373   3.004   4.568   2.740  0.5559 -1.4797 -0.4989
    8MOL   H420 3374   2.901   4.480   2.844 -1.6713 -1.0457  0.4691
    8MOL   H421 3375   2.848   4.637   2.782  1.3282  0.0418 -0.8573
    8MOL   H422 3376   2.836   4.017   2.297 -0.7524 -1.5826  1.1203
    9MOL     C1 3377   5.487   3.985   1.201  0.0558  0.0092  0.2274
    9MOL     C2 3378   5.389   4.025   1.093 -0.0040 -0.5404  0.1654
    9MOL     C3 3379   5.253   4.069   1.143 -0.4614 -0.1139  0.0921
    9MOL     O4 3380   5.159   4.002   1.114  0.3071  1.0245  0.5366
    9MOL     O5 3381   5.253   4.174   1.229 -0.6491  0.3846  0.4261
    9MOL     C6 3382   5.130   4.227   1.291 -0.0958 -0.0433  0.2577
    9MOL     C7 3383   5.092   4.362   1.223  0.2283 -0.7292  0.1635
    9MOL     C8 3384   5.178   4.484   1.259  0.2693  0.0392 -1.0243
    9MOL     C9 3385   5.137   4.620   1.190  0.1234 -0.6549  0.7196
    9MOL    H10 3386   5.527   4.068   1.259  0.8322 -0.3852  0.2628
    9MOL    H11 3387   5.445   3.907   1.264  0.6218  0.4236  1.1360
    9MOL    H12 3388   5.359   3.936   1.037 -0.9274 -1.2235  1.6976
    9MOL    H13 3389   5.139   4.250   1.397 -2.4049 -0.0051  0.4620
    9MOL    H14 3390   5.050   4.156   1.272 -0.2767  0.1611  0.2439
    9MOL    H15 3391   5.097   4.338   1.117  0.8724 -1.5969  0.3899
    9MOL    H16 3392   4.987   4.378   1.247  0.2149  0.0859 -0.4147
    9MOL    H17 3393   5.282   4.456   1.242  0.1499 -0.2351 -1.3230
    9MOL    H18 3394   5.164   4.500   1.366 -1.4210  1.2720 -1.4159
    9MOL    H19 3395   5.050   4.652   1.247  0.8431  0.0825  1.4230
    9MOL    H20 3396   5.120   4.608   1.084 -0.9175  0.1280  0.7946
    9MOL    H21 3397   5.213   4.699   1.194 -0.6000  0.1846 -1.5217
    9MOL    H22 3398   5.573   3.931   1.163 -0.7387 -0.7474 -0.5065
    9MOL    C23 3399   5.446   4.124   0.994 -0.9256 -0.1541  0.8396
    9MOL    C24 3400   5.405   4.101   0.848  0.5103 -0.5391  0.3027
    9MOL    C25 3401   5.259   4.056   0.813  0.7377  0.4238 -0.3844
    9MOL    O26 3402   5.243   3.953   0.751 -0.5047  0.1730  0.6138
    9MOL    O27 3403   5.164   4.138   0.857  0.1316 -0.3684  0.4857
    9MOL    C28 3404   5.034   4.113   0.810 -0.3433 -0.1155  0.0648
    9MOL    C29 3405   4.948   4.202   0.892  0.3122 -0.0038  0.2302
    9MOL    C30 3406   4.956   4.350   0.861 -0.1605  0.4102  0.6969
    9MOL    C31 3407   4.856   4.427   0.950 -0.7515  0.1812  0.2199
    9MOL    H32 3408   5.554   4.117   0.992 -0.8012  1.6121  1.1581
    9MOL    H33 3409   5.416   4.223   1.027  1.2503  1.5056 -2.0095
    9MOL    H34 3410   5.467   4.024   0.803  0.4104  0.0387 -0.8275
    9MOL    H35 3411   4.997   4.011   0.812  2.6360 -1.2144  1.9334
    9MOL    H36 3412   5.021   4.146   0.707  0.4786 -1.2161 -0.3993
    9MOL    H37 3413   4.846   4.176   0.862 -0.3098 -1.1281  3.1514
    9MOL    H38 3414   4.966   4.181   0.998  1.0714  2.7061  0.6726
    9MOL    H39 3415   4.933   4.362   0.755 -1.5452  0.8114  1.0282
    9MOL    H40 3416   5.058   4.386   0.877 -0.0134  0.2656  0.1060
    9MOL    H41 3417   4.765   4.368   0.947  0.0847 -1.1002 -0.7925
    9MOL    H42 3418   4.833   4.523   0.905 -1.5784 -0.5216 -0.8832
    9MOL    H43 3419   4.878   4.445   1.055 -0.1876  0.1501  0.1083
    9MOL    C44 3420   5.434   4.237   0.774 -0.4615 -0.3225 -0.1414
    9MOL    C45 3421   5.427   4.246   0.615 -0.2121  0.6863  0.6364
    9MOL    C46 3422   5.422   4.389   0.568  0.7826  0.2323 -0.7859
    9MOL    O47 3423   5.329   4.472   0.603  0.0316 -0.1408 -0.0644
    9MOL    O48 3424   5.533   4.432   0.500  0.1300  0.0042  0.1534
    9MOL    C49 3425   5.545   4.565   0.443  0.1254 -0.2299 -0.0219
    9MOL    C50 3426   5.463   4.587   0.315  0.0183  1.0107 -0.2650
    9MOL    C51 3427   5.465   4.734   0.272 -0.4463 -0.0990  0.8553
    9MOL    C52 3428   5.363   4.812   0.341  0.0278 -0.5641 -0.2647
    9MOL    H53 3429   5.539   4.260   0.795 -0.3276 -1.5165  0.5101
    9MOL    H54 3430   5.373   4.319   0.810 -2.4547 -1.5049 -0.7770
    9MOL    H55 3431   5.323   4.221   0.592 -0.3085  3.0938 -1.6660
    9MOL    H56 3432   5.652   4.571   0.425  0.4164 -1.7700  1.0817
    9MOL    H57 3433   5.516   4.633   0.524 -0.4724 -3.0244  2.2252
    9MOL    H58 3434   5.510   4.533   0.233  2.7884 -0.3489  2.1003
    9MOL    H59 3435   5.360   4.552   0.323 -0.1523  1.5968  0.1779
    9MOL    H60 3436   5.437   4.739   0.167  0.7132 -2.8772  0.3875
    9MOL    H61 3437   5.563   4.782   0.280 -0.3940  0.0982 -0.8477
    9MOL    H62 3438   5.402   4.914   0.331  1.6673 -1.0896  0.6101
    9MOL    H63 3439   5.359   4.799   0.449  0.3743  0.5259 -0.1097
    9MOL    H64 3440   5.262   4.805   0.299 -1.4738  0.6605  2.8890
    9MOL    C65 3441   5.525   4.154   0.542 -0.5036  0.1303  0.0221
    9MOL    C66 3442   5.498   4.124   0.395  0.5955  0.2493  0.5086
    9MOL    C67 3443   5.594   4.191   0.295  0.0985  0.1349 -0.9068
    9MOL    O68 3444   5.544   4.249   0.201  0.0236 -0.3322 -0.4395
    9MOL    O69 3445   5.731   4.177   0.316  0.2850 -0.3671  0.0863
    9MOL    C70 3446   5.829   4.215   0.221  0.0932  0.4012 -0.6962
    9MOL    C71 3447   5.862   4.370   0.226  0.2398  1.2535 -0.3690
    9MOL    C72 3448   5.915   4.426   0.353 -0.1870  0.1576 -0.2031
    9MOL    C73 3449   5.925   4.577   0.354 -0.1830 -0.3036 -0.3645
    9MOL    H74 3450   5.523   4.060   0.597  2.6613 -0.4996 -0.8375
    9MOL    H75 3451   5.625   4.195   0.558 -0.2517 -0.3490 -0.2906
    9MOL    H76 3452   5.397   4.151   0.365  1.0936 -0.4151 -1.8329
    9MOL    H77 3453   5.791   4.195   0.121  1.8087  0.5695 -1.3931
    9MOL    H78 3454   5.914   4.152   0.245  0.2671  0.6925 -0.5465
    9MOL    H79 3455   5.922   4.382   0.136 -0.1214 -0.5266 -0.8595
    9MOL    H80 3456   5.764   4.414   0.207 -0.6669 -0.4386  0.2478
    9MOL    H81 3457   6.014   4.381   0.352 -0.5335 -0.6655  1.1759
    9MOL    H82 3458   5.860   4.382   0.437  0.6058  0.4834  0.4928
    9MOL    H83 3459   5.838   4.626   0.309  0.2081 -1.4775 -2.4501
    9MOL    H84 3460   6.011   4.622   0.305 -0.8805  2.5888  0.9124
    9MOL    H85 3461   5.926   4.611   0.458 -1.2621  1.0769 -0.7870
    9MOL    C86 3462   5.502   3.976   0.372 -0.2865  0.4260 -0.1301
    9MOL    C87 3463   5.388   3.896   0.425  0.1522 -0.1879  0.0528
    9MOL    C88 3464   5.255   3.931   0.360  0.6903  0.4889  0.2266
    9MOL    O89 3465   5.227   3.912   0.244  0.0892 -0.3039 -0.1981
    9MOL    O90 3466   5.179   4.006   0.440  0.3528  0.3908 -0.1382
    9MOL    C91 3467   5.059   4.066   0.387 -0.0595 -0.0903  0.4386
    9MOL    C92 3468   4.950   3.968   0.346 -0.1688  0.4510  0.1987
    9MOL    C93 3469   4.827   4.046   0.301 -0.2712  0.0448 -0.0579
    9MOL    C94 3470   4.702   3.955   0.277  0.0195 -0.3652  0.2557
    9MOL    H95 3471   5.595   3.934   0.410  0.8719  0.5905 -2.7014
    9MOL    H96 3472   5.516   3.953   0.266 -0.1243 -0.5905  0.1085
    9MOL    H97 3473   5.384   3.936   0.526  0.5118  2.3157 -0.8851
    9MOL    H98 3474   5.080   4.130   0.301 -2.7629  1.6279  0.9914
    9MOL    H99 3475   5.024   4.141   0.458  0.1833  0.8674 -0.4482
    9MOL   H100 3476   4.962   3.895   0.266  0.7115 -0.1989  0.9099
    9MOL   H101 3477   4.924   3.902   0.429 -1.6640  1.7433  0.7836
    9MOL   H102 3478   4.853   4.107   0.214 -0.5351  0.5147  0.1919
    9MOL   H103 3479   4.798   4.103   0.389 -1.7432  0.3344 -0.7103
    9MOL   H104 3480   4.717   3.893   0.189  1.5980 -0.9716  0.9319
    9MOL   H105 3481   4.615   4.019   0.268  0.6444  0.2893 -1.4594
    9MOL   H106 3482   4.679   3.902   0.369  1.3004  1.0059  1.3897
    9MOL   C107 3483   5.409   3.744   0.426 -0.0268 -0.0078  0.4367
    9MOL   C108 3484   5.522   3.693   0.518  0.2031 -0.1270 -0.1027
    9MOL   C109 3485   5.517   3.731   0.668 -0.1174  0.7408  0.5584
    9MOL   O110 3486   5.603   3.795   0.720 -0.7476  0.2821  0.3510
    9MOL   O111 3487   5.402   3.684   0.724 -0.7658 -0.0647 -0.3347
    9MOL   C112 3488   5.384   3.708   0.860  0.7885  0.3875 -0.1295
    9MOL   C113 3489   5.248   3.653   0.907 -0.3826 -0.1544 -0.1506
    9MOL   C114 3490   5.239   3.499   0.889 -0.0890 -0.2772 -1.0614
    9MOL   C115 3491   5.106   3.436   0.896 -0.0273 -0.1107  0.6704
    9MOL   H116 3492   5.434   3.713   0.325 -1.7690 -1.6676  0.5067
    9MOL   H117 3493   5.317   3.693   0.452 -1.0662  1.0229 -1.1735
    9MOL   H118 3494   5.620   3.730   0.490  0.9634 -0.1678  2.3249
    9MOL   H119 3495   5.388   3.814   0.887 -0.0239  0.4734 -0.3347
    9MOL   H120 3496   5.461   3.662   0.921 -0.5931  0.4291  1.6713
    9MOL   H121 3497   5.226   3.679   1.010 -2.0890  2.4383 -1.1140
    9MOL   H122 3498   5.164   3.691   0.849 -1.0821 -1.8086 -0.2575
    9MOL   H123 3499   5.316   3.450   0.948 -1.2980 -0.0151  0.7492
    9MOL   H124 3500   5.284   3.481   0.791 -2.9299  1.5376 -2.7684
    9MOL   H125 3501   5.050   3.468   0.808 -1.9067 -1.0840  1.4909
    9MOL   H126 3502   5.045   3.467   0.980 -0.1654  1.3831  0.0415
    9MOL   H127 3503   5.118   3.328   0.891  0.6984  0.0618 -2.2178
    9MOL   C128 3504   5.541   3.539   0.500  0.3340 -0.2459  0.3083
    9MOL   C129 3505   5.684   3.511   0.455  0.5977 -0.5178 -0.8348
    9MOL   C130 3506   5.783   3.524   0.576  0.8272  0.3207 -0.0362
    9MOL   O131 3507   5.880   3.603   0.572 -0.3521  0.3215  0.0738
    9MOL   O132 3508   5.761   3.436   0.674 -0.2137  0.2529 -0.4184
    9MOL   C133 3509   5.853   3.421   0.782  0.5391  0.2924  0.3157
    9MOL   C134 3510   5.781   3.456   0.909 -0.2210 -0.3471  0.4325
    9MOL   C135 3511   5.784   3.609   0.945 -0.3279 -0.1990  0.4242
    9MOL   C136 3512   5.752   3.631   1.095 -0.4030 -1.0621 -0.1728
    9MOL   H137 3513   5.467   3.497   0.431 -1.8732 -0.3132  2.6450
    9MOL   H138 3514   5.525   3.486   0.593 -0.9323  0.1746  0.3354
    9MOL   H139 3515   5.716   3.593   0.390 -0.3944  0.9620  0.4932
    9MOL   H140 3516   5.945   3.477   0.766  1.4106  0.0264  3.8273
    9MOL   H141 3517   5.880   3.315   0.788  0.2005  0.1310 -1.0226
    9MOL   H142 3518   5.680   3.416   0.904 -0.3613 -0.0348  0.7608
    9MOL   H143 3519   5.841   3.409   0.987  1.0936  0.5345 -0.0374
    9MOL   H144 3520   5.710   3.666   0.889 -0.0585  0.5659  0.8234
    9MOL   H145 3521   5.879   3.649   0.908 -1.4498  1.3980 -0.8267
    9MOL   H146 3522   5.845   3.623   1.152 -2.1149  1.9688  3.2823
    9MOL   H147 3523   5.673   3.566   1.132  0.0612 -0.6217  1.6714
    9MOL   H148 3524   5.726   3.737   1.106 -0.5792 -0.8287 -2.5552
    9MOL   C149 3525   5.704   3.382   0.376 -0.0519  0.3362 -0.0208
    9MOL   C150 3526   5.794   3.385   0.251  0.0315  0.0163 -0.8320
    9MOL   C151 3527   5.865   3.251   0.238 -0.2238 -0.2314 -0.0217
    9MOL   O152 3528   5.988   3.245   0.241  0.1979  0.2301  0.2241
    9MOL   O153 3529   5.775   3.144   0.224 -0.4383  0.1630  0.0570
    9MOL   C154 3530   5.817   3.014   0.186 -0.4133  0.2216  0.5897
    9MOL   C155 3531   5.760   2.925   0.301 -0.3266 -1.0551 -0.3329
    9MOL   C156 3532   5.818   2.953   0.442 -0.5921  0.0293  0.9949
    9MOL   C157 3533   5.737   2.864   0.531 -0.0834  0.2777 -0.6564
    9MOL   H158 3534   5.607   3.346   0.342 -0.1022  0.0380  0.4249
    9MOL   H159 3535   5.727   3.297   0.441  0.0623 -1.2233 -2.0582
    9MOL   H160 3536   5.861   3.466   0.282 -1.9299  0.9011  1.2890
    9MOL   H161 3537   5.925   3.005   0.180 -0.4199  1.3528 -1.9763
    9MOL   H162 3538   5.781   2.985   0.088  1.0926  0.4933 -0.0612
    9MOL   H163 3539   5.652   2.938   0.313  0.2929  2.8987  1.7447
    9MOL   H164 3540   5.774   2.819   0.280  0.5315 -1.5188  2.4290
    9MOL   H165 3541   5.815   3.061   0.457 -1.2401  0.1221  0.2693
    9MOL   H166 3542   5.920   2.915   0.442  0.0120  1.5887  0.0955
    9MOL   H167 3543   5.790   2.868   0.627 -1.5479  0.7481  0.1425
    9MOL   H168 3544   5.741   2.759   0.503 -0.9145 -0.4296  1.7022
    9MOL   H169 3545   5.632   2.890   0.537 -0.2198 -0.6932  2.7794
    9MOL   C170 3546   5.724   3.420   0.116  0.2046 -0.1596  0.3501
    9MOL   C171 3547   5.642   3.551   0.097 -0.9899 -0.0585 -0.3508
    9MOL   C172 3548   5.721   3.677   0.126 -0.7837 -0.3428  0.2167
    9MOL   O173 3549   5.682   3.762   0.205 -0.0013  0.4864 -0.2783
    9MOL   O174 3550   5.833   3.693   0.043 -0.2097 -0.4693 -0.3669
    9MOL   C175 3551   5.920   3.802   0.060  0.2486  0.2488  0.0929
    9MOL   C176 3552   6.012   3.770   0.180 -0.0013 -0.1225 -0.0489
    9MOL   C177 3553   6.103   3.642   0.178 -0.0923 -0.3826 -0.3133
    9MOL   C178 3554   6.164   3.603   0.315 -0.7103  0.0989  0.3700
    9MOL   H179 3555   5.657   3.340   0.086  1.0958 -0.1411 -1.8219
    9MOL   H180 3556   5.808   3.414   0.046  1.3660  0.2055  1.6981
    9MOL   H181 3557   5.557   3.551   0.166 -0.1300 -1.2979  0.7379
    9MOL   H182 3558   5.859   3.892   0.072  0.5069  0.5517 -0.8281
    9MOL   H183 3559   5.977   3.800   7.820 -0.8770 -0.9351 -0.5869
    9MOL   H184 3560   6.069   3.860   0.202  0.5984 -0.0049 -2.0590
    9MOL   H185 3561   5.945   3.770   0.267 -0.3257 -3.2357 -0.2504
    9MOL   H186 3562   6.175   3.670   0.101 -0.8462 -1.5178 -1.4746
    9MOL   H187 3563   6.053   3.557   0.130 -1.6566  0.6238 -0.4948
    9MOL   H188 3564   6.255   3.659   0.337 -1.8192  2.1684 -0.2575
    9MOL   H189 3565   6.183   3.495   0.319  1.2615  0.4835  2.4657
    9MOL   H190 3566   6.099   3.635   0.397  1.2669  2.5649  1.0308
    9MOL   C191 3567   5.573   3.556   7.814 -0.0879 -0.1133 -0.1139
    9MOL   C192 3568   5.426   3.501   7.811 -0.2559  0.0285  0.1512
    9MOL   C193 3569   5.418   3.347   7.851 -0.4876 -0.8218 -0.1190
    9MOL   O194 3570   5.423   3.260   7.763 -0.4828 -0.4896  0.1103
    9MOL   O195 3571   5.410   3.328   0.128 -0.0850 -0.1115 -0.0889
    9MOL   C196 3572   5.370   3.202   0.189 -0.1590 -0.4880 -0.1012
    9MOL   C197 3573   5.303   3.228   0.324 -0.6762  0.6595 -0.5285
    9MOL   C198 3574   5.229   3.098   0.374  0.1743 -0.3444 -0.2910
    9MOL   C199 3575   5.114   3.053   0.282  0.8771  0.7170  0.1600
    9MOL   H200 3576   5.630   3.507   7.735  0.0903  0.0701 -0.0975
    9MOL   H201 3577   5.564   3.657   7.774  1.0348  0.4479  1.0015
    9MOL   H202 3578   5.404   3.501   7.704  0.7086 -0.0022 -0.0477
    9MOL   H203 3579   5.457   3.140   0.208  0.5608  0.4536 -0.3224
    9MOL   H204 3580   5.321   3.132   0.120 -2.0638 -0.4217  1.1382
    9MOL   H205 3581   5.386   3.242   0.393  0.2166  1.0317 -1.6620
    9MOL   H206 3582   5.236   3.314   0.335 -0.2691  1.0119 -0.7770
    9MOL   H207 3583   5.178   3.120   0.468 -0.3449 -0.8785 -0.4443
    9MOL   H208 3584   5.304   3.020   0.387 -0.3071 -0.9291 -1.0154
    9MOL   H209 3585   5.049   3.137   0.260  0.0074 -0.0860 -0.3998
    9MOL   H210 3586   5.046   2.985   0.334 -0.2617  0.8771 -1.1162
    9MOL   H211 3587   5.142   3.007   0.188 -2.6817 -0.0984 -0.5994
    9MOL   C212 3588   5.324   3.586   0.027  0.7911 -0.5516 -0.3761
    9MOL   C213 3589   5.183   3.542   0.002  0.7481 -0.4466 -0.1340
    9MOL   C214 3590   5.123   3.478   0.124 -0.1621 -0.3071 -0.5134
    9MOL   O215 3591   5.089   3.363   0.129 -0.5257 -0.0333 -1.0531
    9MOL   O216 3592   5.106   3.568   0.221  0.3368 -0.2094  0.2748
    9MOL   C217 3593   5.067   3.526   0.352 -0.6336  0.1898 -0.4622
    9MOL   C218 3594   5.005   3.639   0.429  0.1097 -0.3515  0.6461
    9MOL   C219 3595   4.965   3.603   0.571  0.1691  0.5276  0.7691
    9MOL   C220 3596   4.917   3.706   0.665  0.3050  0.3562  0.0014
    9MOL   H221 3597   5.337   3.688   7.842 -0.1511 -0.0248  0.6793
    9MOL   H222 3598   5.347   3.586   0.134  0.0924  2.5668 -0.1534
    9MOL   H223 3599   5.180   3.464   7.780  0.9366 -0.0573 -0.5489
    9MOL   H224 3600   5.164   3.507   0.397  0.0066 -1.3216 -2.3983
    9MOL   H225 3601   4.992   3.448   0.339 -1.5161  0.7783  0.9847
    9MOL   H226 3602   5.078   3.720   0.429 -1.4540  1.0970  0.2072
    9MOL   H227 3603   4.923   3.685   0.374  1.5137  4.7438  2.4808
    9MOL   H228 3604   5.057   3.558   0.609  0.2970 -0.6591 -0.8865
    9MOL   H229 3605   4.894   3.520   0.565  1.5280 -0.5051 -1.4039
    9MOL   H230 3606   4.829   3.756   0.625  1.3387  0.3746 -2.3056
    9MOL   H231 3607   4.991   3.784   0.680 -0.2763  0.8058  0.5859
    9MOL   H232 3608   4.907   3.664   0.765 -0.4585  1.7998  0.5415
    9MOL   C233 3609   5.096   3.665   7.805 -0.4037  0.5269  0.2310
    9MOL   C234 3610   4.950   3.646   7.757 -0.8765 -0.7693 -0.8170
    9MOL   C235 3611   4.955   3.534   7.648  0.9331  0.6094 -0.5758
    9MOL   O236 3612   4.965   3.565   7.531 -0.0884  0.4839 -0.8228
    9MOL   O237 3613   4.955   3.407   7.696  0.1031 -0.0319 -0.1073
    9MOL   C238 3614   4.996   3.304   7.611  0.4331 -0.2778 -0.2725
    9MOL   C239 3615   5.037   3.174   7.687  0.0565 -0.0503  0.5162
    9MOL   C240 3616   5.029   3.053   7.598  0.8115 -0.0615  0.0215
    9MOL   C241 3617   5.079   2.938   7.677  0.3235 -0.5051  0.6684
    9MOL   H242 3618   5.149   3.712   7.722  0.3898 -0.3169  0.2601
    9MOL   H243 3619   5.101   3.737   0.034  0.0655 -1.0688  1.6095
    9MOL   H244 3620   4.934   3.738   7.702  2.3389  1.5053  1.8587
    9MOL   H245 3621   5.082   3.340   7.556  0.5183 -0.5290 -0.3059
    9MOL   H246 3622   4.914   3.281   7.543  0.0873 -0.0311  0.0597
    9MOL   H247 3623   5.142   3.181   7.716  0.4952 -1.7725 -0.5696
    9MOL   H248 3624   4.978   3.166   7.778  0.1510  2.5770  0.8551
    9MOL   H249 3625   5.097   3.067   7.513 -2.2995  0.0235 -2.5616
    9MOL   H250 3626   4.930   3.035   7.554  0.8907 -3.3873  1.0189
    9MOL   H251 3627   5.183   2.951   7.704  0.6879 -2.3319  0.2373
    9MOL   H252 3628   5.068   2.848   7.616 -1.7140 -0.1452  0.4513
    9MOL   H253 3629   5.021   2.911   7.765  0.4876 -0.2950  0.8394
    9MOL   C254 3630   4.844   3.637   0.023  0.1342  0.1385 -0.2916
    9MOL   C255 3631   4.696   3.641   7.827  0.5675  0.8133  0.0877
    9MOL   C256 3632   4.608   3.569   0.075  0.5760 -0.1885 -0.3439
    9MOL   O257 3633   4.561   3.459   0.055  0.2973  0.0815  0.1155
    9MOL   O258 3634   4.612   3.634   0.188 -1.0464 -0.5133 -0.6624
    9MOL   C259 3635   4.537   3.582   0.298  0.7336  0.4096 -0.3201
    9MOL   C260 3636   4.394   3.648   0.302 -0.3073  0.2468 -0.4197
    9MOL   C261 3637   4.321   3.606   0.433  0.2279  0.4854  0.5870
    9MOL   C262 3638   4.169   3.647   0.431  0.2711  0.1154  0.1636
    9MOL   H263 3639   4.867   3.708   0.102 -1.7062  1.2744 -0.7664
    9MOL   H264 3640   4.857   3.535   0.059 -0.1823 -0.2013 -1.1279
    9MOL   H265 3641   4.689   3.581   7.736  2.2655  0.4259  0.2032
    9MOL   H266 3642   4.580   3.600   0.396 -1.6203  0.4176  0.7556
    9MOL   H267 3643   4.533   3.473   0.291  0.5220  0.4826 -1.5545
    9MOL   H268 3644   4.396   3.755   0.280  0.9695  0.3010 -0.0801
    9MOL   H269 3645   4.345   3.595   0.221 -0.1093 -0.9874  0.2437
    9MOL   H270 3646   4.371   3.640   0.524  0.4524  0.4452  0.4782
    9MOL   H271 3647   4.322   3.497   0.430 -0.0081  0.5193 -1.0574
    9MOL   H272 3648   4.122   3.606   0.520  1.8027  0.4517  1.1441
    9MOL   H273 3649   4.108   3.612   0.348 -2.8214  2.6439  1.3048
    9MOL   H274 3650   4.156   3.754   0.445  0.7075  0.2704 -0.5899
    9MOL   C275 3651   4.643   3.785   7.803  0.2192  0.5780  0.0057
    9MOL   C276 3652   4.551   3.811   7.679 -0.0957 -0.6251 -0.5733
    9MOL   C277 3653   4.628   3.796   7.545 -0.2239 -0.5563  1.4560
    9MOL   O278 3654   4.695   3.888   7.498  0.2191  0.0162  0.4343
    9MOL   O279 3655   4.615   3.673   7.486  0.9156 -0.0997 -0.4518
    9MOL   C280 3656   4.671   3.655   7.358 -0.1925 -0.5029  0.0431
    9MOL   C281 3657   4.563   3.614   7.253 -0.0179  0.2605 -0.0583
    9MOL   C282 3658   4.475   3.490   7.297 -0.5649  0.1494  0.2694
    9MOL   C283 3659   4.349   3.461   7.207 -0.2089 -0.1156  0.1773
    9MOL   H284 3660   4.731   3.849   7.803  1.0613 -0.5546  0.4732
    9MOL   H285 3661   4.581   3.815   0.034 -1.2231 -1.7820 -0.1482
    9MOL   H286 3662   4.524   3.917   7.688  0.3537 -0.5314 -0.3090
    9MOL   H287 3663   4.751   3.581   7.368  0.2719  0.1745  1.4064
    9MOL   H288 3664   4.721   3.746   7.324 -0.3434 -0.5593 -0.3326
    9MOL   H289 3665   4.511   3.710   7.248 -2.7167 -1.1915 -0.7844
    9MOL   H290 3666   4.621   3.596   7.162  0.3787  0.5716  0.1292
    9MOL   H291 3667   4.448   3.485   7.403 -3.3176  0.1550 -0.3792
    9MOL   H292 3668   4.534   3.399   7.287  0.8724  1.1111 -0.1710
    9MOL   H293 3669   4.368   3.383   7.134 -0.8452  0.5664 -0.7140
    9MOL   H294 3670   4.339   3.549   7.144 -0.2101  0.3270  0.7886
    9MOL   H295 3671   4.263   3.450   7.273 -0.7686  1.6477 -0.2344
    9MOL   C296 3672   4.419   3.723   7.681 -0.0258  0.0230 -0.1334
    9MOL   C297 3673   4.316   3.762   7.571  0.5806  0.6960 -0.6240
    9MOL   C298 3674   4.216   3.646   7.573  0.3610 -0.1246  0.2502
    9MOL   O299 3675   4.208   3.562   7.481  0.1889 -0.7592  0.4252
    9MOL   O300 3676   4.140   3.652   7.681  0.5089  0.0478  0.3879
    9MOL   C301 3677   4.070   3.532   7.732  0.7544  0.3095 -0.3633
    9MOL   C302 3678   4.141   3.456   7.837  0.0798  0.2943  0.0373
    9MOL   C303 3679   4.253   3.360   7.790  0.2788  0.3327 -0.0816
    9MOL   C304 3680   4.301   3.262   0.052  0.7468 -0.1693  0.9689
    9MOL   H305 3681   4.374   3.732   7.779 -0.0087  0.8781 -0.1988
    9MOL   H306 3682   4.445   3.617   7.682 -1.9963 -0.4780 -0.5870
    9MOL   H307 3683   4.370   3.753   7.476  0.6371  0.1313 -0.5382
    9MOL   H308 3684   4.044   3.468   7.647 -1.4208  1.0621 -0.3139
    9MOL   H309 3685   3.976   3.575   7.768 -1.1385 -1.7190 -2.6857
    9MOL   H310 3686   4.178   3.520   0.064 -2.0546  1.8679 -0.1993
    9MOL   H311 3687   4.078   3.394   0.048  0.3243  0.5695  0.5476
    9MOL   H312 3688   4.329   3.421   7.740 -2.1427  1.1081 -2.9152
    9MOL   H313 3689   4.222   3.298   7.706  2.1186 -1.8496  0.8068
    9MOL   H314 3690   4.215   3.208   0.091 -0.5135  1.4534  0.4961
    9MOL   H315 3691   4.339   3.308   0.143  1.3818 -1.7363  1.5055
    9MOL   H316 3692   4.379   3.196   0.014 -0.3662 -0.5696 -0.6848
    9MOL   C317 3693   4.251   3.902   7.590  0.4020 -0.8514  0.0400
    9MOL   C318 3694   4.177   3.963   7.470  0.4298 -0.2956 -0.3677
    9MOL   C319 3695   4.258   3.997   7.344 -0.6707  0.5204 -0.5450
    9MOL   O320 3696   4.237   3.951   7.233  0.1907 -0.1709  0.0655
    9MOL   O321 3697   4.345   4.098   7.373  0.9022  0.2969 -0.3193
    9MOL   C322 3698   4.412   4.158   7.267 -0.4708  0.5554  0.1957
    9MOL   C323 3699   4.322   4.269   7.210  0.3577 -0.4409  0.2726
    9MOL   C324 3700   4.376   4.328   7.082  0.1089  0.2929 -0.2752
    9MOL   C325 3701   4.275   4.418   7.013  0.0847  0.4408  0.5837
    9MOL   H326 3702   4.330   3.967   7.627  0.1910 -0.8309  0.4596
    9MOL   H327 3703   4.175   3.902   7.668  0.5788 -0.5263  0.2133
    9MOL   H328 3704   4.142   4.060   7.504 -3.3610 -2.0717  1.1563
    9MOL   H329 3705   4.440   4.081   7.195 -1.2618  0.3747  0.0742
    9MOL   H330 3706   4.501   4.207   7.307 -0.1499 -0.1219  0.3132
    9MOL   H331 3707   4.227   4.219   7.192  0.9027 -1.3860  0.0383
    9MOL   H332 3708   4.305   4.348   7.284 -3.7193 -1.8588  0.9921
    9MOL   H333 3709   4.415   4.246   7.022 -0.9318  0.4135 -1.1325
    9MOL   H334 3710   4.469   4.379   7.105  1.3599 -0.7920 -2.6848
    9MOL   H335 3711   4.258   4.504   7.079 -1.4041  1.1314 -0.6592
    9MOL   H336 3712   4.177   4.370   7.006  0.6909 -0.4287 -2.5504
    9MOL   H337 3713   4.306   4.453   6.914 -2.0354  0.7658 -0.0012
    9MOL   C338 3714   4.036   3.899   7.427 -0.9156  0.1488  0.1483
    9MOL   C339 3715   3.920   3.997   7.380  0.4860  0.5365 -0.0179
    9MOL   C340 3716   3.949   4.089   7.261 -0.5477  0.0412 -0.0575
    9MOL   O341 3717   3.990   4.205   7.275 -0.2277 -0.2721 -0.4187
    9MOL   O342 3718   3.927   4.030   7.144 -0.1945  0.0875 -0.4054
    9MOL   C343 3719   3.968   4.097   7.025  0.1406 -0.1413 -0.1546
    9MOL   C344 3720   3.869   4.188   6.967 -0.0042  0.0876  0.3146
    9MOL   C345 3721   3.929   4.259   6.843  0.3702  0.5306  0.6180
    9MOL   C346 3722   3.848   4.381   6.816 -0.2621  0.3466  0.0868
    9MOL   H347 3723   3.988   3.844   7.508  0.1653 -2.9259 -1.2201
    9MOL   H348 3724   4.045   3.816   7.357  1.6448 -0.2179  0.8725
    9MOL   H349 3725   3.917   4.060   7.470  0.0166  2.5990 -1.4345
    9MOL   H350 3726   3.993   4.022   6.950 -3.3995 -2.0197  0.4519
    9MOL   H351 3727   4.055   4.156   7.053 -0.1697  0.1346  0.2305
    9MOL   H352 3728   3.776   4.137   6.941  0.2932  1.0910 -2.9302
    9MOL   H353 3729   3.834   4.263   7.039  2.6726  0.6411  1.1019
    9MOL   H354 3730   3.934   4.186   6.761  1.6203  0.3845  0.8181
    9MOL   H355 3731   4.031   4.291   6.865  1.6996 -2.2897 -1.0898
    9MOL   H356 3732   3.749   4.361   6.776  0.9807  0.9732 -3.4858
    9MOL   H357 3733   3.902   4.446   6.746  0.6591  0.2710  0.7134
    9MOL   H358 3734   3.823   4.440   6.904 -1.5524  2.3902 -1.6013
    9MOL   C359 3735   3.783   3.917   7.368  0.6880 -0.6200  0.2599
    9MOL   C360 3736   3.730   3.832   7.486 -0.4618 -0.9123  0.1503
    9MOL   C361 3737   3.709   3.901   7.621 -0.0599 -0.1869 -0.2911
    9MOL   O362 3738   3.598   3.933   7.652  0.0543 -0.5258 -0.1219
    9MOL   O363 3739   3.825   3.928   7.687 -0.0245 -0.6001  0.2410
    9MOL   C364 3740   3.831   3.975   7.819 -0.2109 -0.7490  0.1866
    9MOL   C365 3741   3.969   4.013   0.015 -0.3245 -1.2032  0.3508
    9MOL   C366 3742   4.049   3.904   0.087  0.4613  0.1750  0.1548
    9MOL   C367 3743   4.188   3.935   0.134  0.4557 -0.6800 -0.0371
    9MOL   H368 3744   3.795   3.854   7.280 -1.1464 -0.2811 -0.2590
    9MOL   H369 3745   3.716   4.001   7.351  2.1812  0.8784  1.6145
    9MOL   H370 3746   3.805   3.754   7.503  0.5302 -0.3480 -1.5177
    9MOL   H371 3747   3.792   3.897   0.030 -1.3105 -0.8811 -0.6318
    9MOL   H372 3748   3.759   4.057   7.820  0.2105 -0.3672 -0.0757
    9MOL   H373 3749   4.028   4.057   7.787  0.1404  1.0096  1.8575
    9MOL   H374 3750   3.960   4.095   0.086 -0.8166 -1.4759  0.6001
    9MOL   H375 3751   4.050   3.809   0.034  3.7591  0.3417 -0.2044
    9MOL   H376 3752   3.992   3.891   0.179  0.0297 -0.9374 -0.2685
    9MOL   H377 3753   4.233   3.846   0.178 -0.8062 -2.6428 -2.6303
    9MOL   H378 3754   4.198   4.011   0.212 -1.0102 -0.2633 -0.2477
    9MOL   H379 3755   4.242   3.967   0.045  1.2020  2.6517  1.4951
    9MOL   C380 3756   3.605   3.758   7.430  0.0688 -1.2152 -0.2254
    9MOL   C381 3757   3.571   3.618   7.481  0.9825 -0.3899 -0.8375
    9MOL   C382 3758   3.425   3.561   7.461  0.4192  0.4670  0.1776
    9MOL   O383 3759   3.359   3.504   7.548 -0.3859  0.6059  0.3435
    9MOL   O384 3760   3.381   3.580   7.333  0.1231  0.0120 -0.5741
    9MOL   C385 3761   3.252   3.527   7.299 -0.0127 -0.1970  0.2320
    9MOL   C386 3762   3.215   3.552   7.150 -0.8621  0.4831 -0.3078
    9MOL   C387 3763   3.235   3.701   7.113  0.2329  1.0209 -0.6205
    9MOL   C388 3764   3.184   3.735   6.968 -0.3982 -0.3061 -0.1940
    9MOL   H389 3765   3.613   3.757   7.322 -1.1649  0.3411 -0.3572
    9MOL   H390 3766   3.519   3.823   7.446  0.0807 -1.3568  0.4591
    9MOL   H391 3767   3.581   3.619   7.590  1.0730  0.4296 -0.8468
    9MOL   H392 3768   3.180   3.596   7.343 -0.8956 -0.0050 -1.4691
    9MOL   H393 3769   3.234   3.426   7.334 -0.3178 -0.0794  0.4123
    9MOL   H394 3770   3.274   3.487   7.086 -1.0088 -0.0972  0.1434
    9MOL   H395 3771   3.108   3.539   7.131 -0.6752 -0.6398 -0.6303
    9MOL   H396 3772   3.342   3.718   7.127  1.2717 -4.0865 -1.2931
    9MOL   H397 3773   3.186   3.755   7.194  1.6724  1.3755  0.0437
    9MOL   H398 3774   3.258   3.685   6.906  2.5452  1.6571  1.6116
    9MOL   H399 3775   3.192   3.843   6.954  2.5969 -0.5793 -0.7167
    9MOL   H400 3776   3.086   3.690   6.950 -0.5510 -0.1473  0.2261
    9MOL   C401 3777   3.676   3.519   7.430  0.0936 -0.1861 -0.3094
    9MOL   C402 3778   3.718   3.408   7.525  0.0846 -0.7776  0.6664
    9MOL   C403 3779   3.626   3.291   7.553 -0.0088  0.0687  0.3274
    9MOL   O404 3780   3.604   3.249   7.664 -0.1665  0.4212 -0.4557
    9MOL   O405 3781   3.566   3.242   7.441 -0.1754  0.1603 -0.0529
    9MOL   C406 3782   3.486   3.122   7.449  0.5438 -0.0132 -1.0501
    9MOL   C407 3783   3.342   3.149   7.466  0.1737 -0.3200 -0.6679
    9MOL   C408 3784   3.305   3.163   7.616 -0.9886 -0.5791  0.8351
    9MOL   C409 3785   3.154   3.175   7.640  0.2140 -0.0011 -0.2929
    9MOL   H410 3786   3.762   3.569   7.386 -0.8758  0.5336 -1.4237
    9MOL   H411 3787   3.629   3.476   7.342 -1.7335  2.9993 -0.9820
    9MOL   H412 3788   3.754   3.446   7.621  0.5982  2.1767 -0.6546
    9MOL   H413 3789   3.543   3.058   7.516 -0.8135  0.0123  0.1555
    9MOL   H414 3790   3.500   3.071   7.354  1.5903 -0.8349 -0.4674
    9MOL   H415 3791   3.300   3.228   7.404 -0.6108 -0.1395  0.0696
    9MOL   H416 3792   3.287   3.056   7.455 -0.8224  0.2693 -0.7329
    9MOL   H417 3793   3.340   3.259   7.652 -0.5770 -1.4313  2.7360
    9MOL   H418 3794   3.344   3.085   7.681  3.7716  2.2053  1.5453
    9MOL   H419 3795   3.091   3.089   7.615  2.3529 -1.6809  0.0289
    9MOL   H420 3796   3.111   3.251   7.574  0.0824  0.4759  0.3453
    9MOL   H421 3797   3.124   3.207   7.739  0.0904 -1.0338  0.0050
    9MOL   H422 3798   3.809   3.365   7.483 -0.1961 -0.3359 -0.4089
   10MOL     C1 3799   4.432   7.559   2.942 -0.4326 -0.3192 -0.2836
   10MOL     C2 3800   4.582   7.540   2.910 -0.1955  0.6569  0.2346
   10MOL     C3 3801   4.659   7.671   2.933 -0.4802 -0.1969  0.5483
   10MOL     O4 3802   4.725   7.719   2.842  0.2573 -0.0689  0.0945
   10MOL     O5 3803   4.648   7.723   3.057  0.0779 -0.5673  0.4208
   10MOL     C6 3804   4.718   7.848   3.076 -0.4105 -0.0957  0.1989
   10MOL     C7 3805   4.715   0.042   3.223  0.2099  0.0752  0.4094
   10MOL     C8 3806   4.766   0.183   3.253 -0.4772 -0.3194 -0.4059
   10MOL     C9 3807   4.907   0.200   3.201  0.2152  0.4250 -0.3567
   10MOL    H10 3808   4.414   7.602   3.040 -0.1835  1.4646 -0.9981
   10MOL    H11 3809   4.391   7.626   2.867 -2.8530 -1.6244 -0.1665
   10MOL    H12 3810   4.591   7.519   2.804  0.1819 -1.5782  0.6713
   10MOL    H13 3811   4.672   0.070   3.012  0.7451  0.6684  0.2361
   10MOL    H14 3812   4.821   0.003   3.039 -0.3268 -0.2553  0.3967
   10MOL    H15 3813   4.609   0.032   3.245 -0.0233  1.1367 -0.1665
   10MOL    H16 3814   4.776   7.835   3.290 -2.5489 -1.6070  1.4792
   10MOL    H17 3815   4.763   0.211   3.358 -2.9258 -1.3394 -0.1603
   10MOL    H18 3816   4.692   0.249   3.207 -2.1019 -0.7691  1.5098
   10MOL    H19 3817   4.952   0.295   3.230  0.0666 -0.1225  1.7159
   10MOL    H20 3818   4.932   0.194   3.095  1.1623  0.5234 -0.1437
   10MOL    H21 3819   4.971   0.125   3.247 -0.4090  0.9967  1.4756
   10MOL    H22 3820   4.367   7.472   2.929 -0.1926 -0.5304 -0.0982
   10MOL    C23 3821   4.648   7.404   2.972 -0.0093 -0.4219  0.1245
   10MOL    C24 3822   4.689   7.405   3.122  1.2914  0.2198 -0.1167
   10MOL    C25 3823   4.574   7.424   3.213  0.6738 -0.1766  0.8066
   10MOL    O26 3824   4.576   7.517   3.297 -0.0241  0.1390 -0.3224
   10MOL    O27 3825   4.486   7.332   3.202 -0.1845  0.1745 -0.2652
   10MOL    C28 3826   4.377   7.338   3.296  0.0107 -0.3961  0.5119
   10MOL    C29 3827   4.307   7.205   3.323  0.6329  0.4408  0.4167
   10MOL    C30 3828   4.180   7.203   3.400  0.3744  0.7474 -0.4029
   10MOL    C31 3829   4.106   7.065   3.399 -1.0262 -0.1562 -0.5593
   10MOL    H32 3830   4.733   7.372   2.912 -0.3647 -1.2260  0.0540
   10MOL    H33 3831   4.570   7.329   2.966  0.1710 -0.5853 -0.1859
   10MOL    H34 3832   4.732   7.506   3.123 -0.9536  1.1938  0.6574
   10MOL    H35 3833   4.318   7.420   3.255  0.7509 -0.6977 -1.2125
   10MOL    H36 3834   4.403   7.380   3.393 -0.4454 -0.2627  0.5798
   10MOL    H37 3835   4.269   7.174   3.225 -0.5445  2.3779  0.2388
   10MOL    H38 3836   4.369   7.125   3.363 -0.6846 -0.4941  0.6277
   10MOL    H39 3837   4.114   7.276   3.353 -2.0177 -1.8555 -1.1976
   10MOL    H40 3838   4.198   7.229   3.505  0.4869  0.1092 -0.2644
   10MOL    H41 3839   4.085   7.029   3.298 -0.0808 -2.3050 -0.0121
   10MOL    H42 3840   4.019   7.072   3.464 -0.8282 -0.2073 -0.2913
   10MOL    H43 3841   4.177   7.000   3.450 -0.9678  0.7979  0.6134
   10MOL    C44 3842   4.784   7.298   3.168  0.1576  0.3346 -0.1731
   10MOL    C45 3843   4.933   7.324   3.139 -0.5156 -0.2522 -0.4779
   10MOL    C46 3844   4.969   7.451   3.215 -0.1111 -0.3758  0.4965
   10MOL    O47 3845   4.986   7.561   3.160  0.1290  0.2964  0.0301
   10MOL    O48 3846   4.968   7.420   3.345  0.0070  0.0146  0.4530
   10MOL    C49 3847   4.968   7.522   3.443 -0.3663 -0.2926  0.0214
   10MOL    C50 3848   4.991   7.456   3.584 -0.1293  0.3421 -0.3446
   10MOL    C51 3849   4.941   7.526   3.709 -0.4840  0.1319 -0.1625
   10MOL    C52 3850   4.997   7.672   3.722  0.4760  0.3861 -0.1771
   10MOL    H53 3851   4.753   7.201   3.131  1.0532  0.6367 -1.7632
   10MOL    H54 3852   4.774   7.282   3.276 -0.8371 -1.8324 -0.5687
   10MOL    H55 3853   4.939   7.352   3.033  0.8484 -0.3488 -0.4291
   10MOL    H56 3854   4.888   7.596   3.446 -0.1452 -0.0983  2.7057
   10MOL    H57 3855   5.057   7.581   3.419  0.2363  0.5191  3.7908
   10MOL    H58 3856   4.943   7.358   3.593 -0.8765  0.6462 -0.9330
   10MOL    H59 3857   5.098   7.444   3.597  0.0872  0.8725 -1.6409
   10MOL    H60 3858   4.963   7.465   3.796 -1.5634  2.9092  2.1701
   10MOL    H61 3859   4.834   7.545   3.703 -0.6104  0.3559  2.1409
   10MOL    H62 3860   4.958   7.713   3.815  0.9473 -2.1651  1.1876
   10MOL    H63 3861   4.956   7.740   3.647 -0.2234  1.2156  0.9572
   10MOL    H64 3862   5.104   7.678   3.702  0.4620 -1.5499 -0.9719
   10MOL    C65 3863   5.045   7.216   3.179 -0.2692  0.4274  0.0647
   10MOL    C66 3864   5.041   7.081   3.101 -0.9530 -0.1924  0.9110
   10MOL    C67 3865   5.006   7.106   2.956 -0.0721  0.2479  0.5623
   10MOL    O68 3866   4.896   7.081   2.912  0.0976 -0.2105  0.4272
   10MOL    O69 3867   5.107   7.167   2.893 -0.2921  0.0918 -0.4476
   10MOL    C70 3868   5.095   7.204   2.761 -0.4855 -0.1175 -0.2748
   10MOL    C71 3869   5.244   7.236   2.710  0.2891 -0.6232 -0.3392
   10MOL    C72 3870   5.258   7.278   2.563 -0.4002 -0.2630  0.1126
   10MOL    C73 3871   5.181   7.405   2.519 -0.7139  0.2636  0.2409
   10MOL    H74 3872   5.037   7.193   3.286  0.1865 -0.3044 -0.0614
   10MOL    H75 3873   5.145   7.250   3.154 -0.1273  0.1685  0.2804
   10MOL    H76 3874   4.954   7.027   3.140 -0.8957 -0.6171  0.4564
   10MOL    H77 3875   5.046   7.302   2.763  0.3662  0.3054  1.0937
   10MOL    H78 3876   5.040   7.141   2.691  1.6645 -1.5614 -0.7068
   10MOL    H79 3877   5.296   7.306   2.775 -1.9592 -1.6499  2.6517
   10MOL    H80 3878   5.303   7.148   2.736  0.2212 -0.3625  0.7129
   10MOL    H81 3879   5.229   7.188   2.507  0.8186 -0.9873  0.6293
   10MOL    H82 3880   5.365   7.292   2.548 -0.5805  2.3511  1.0993
   10MOL    H83 3881   5.074   7.387   2.523 -0.0671 -4.3985  0.2839
   10MOL    H84 3882   5.206   7.412   2.413 -3.7926 -1.1337 -0.6386
   10MOL    H85 3883   5.219   7.493   2.570  0.0970  0.2031 -0.2393
   10MOL    C86 3884   5.167   6.993   3.129  0.0676 -0.3691  0.4459
   10MOL    C87 3885   5.136   6.835   3.160 -0.5516  0.3938  0.4833
   10MOL    C88 3886   5.059   6.768   3.041 -0.7319  0.6844 -0.3260
   10MOL    O89 3887   4.942   6.726   3.052  0.1463 -0.1675  0.0064
   10MOL    O90 3888   5.131   6.764   2.934  0.4061 -0.1827  0.0846
   10MOL    C91 3889   5.076   6.711   2.817  0.1241 -0.1764 -1.0506
   10MOL    C92 3890   5.051   6.831   2.713  0.4504 -0.0034  0.0428
   10MOL    C93 3891   5.002   6.788   2.577  0.0375 -0.4563 -0.2059
   10MOL    C94 3892   4.956   6.896   2.475 -0.3107 -0.0717 -0.9234
   10MOL    H95 3893   5.213   7.036   3.217  1.2348  1.1383 -0.8663
   10MOL    H96 3894   5.238   6.997   3.046  0.6453  2.4022  1.0251
   10MOL    H97 3895   5.071   6.814   3.245 -4.0060  0.4758 -1.9895
   10MOL    H98 3896   4.987   6.650   2.824  0.0302  0.1012  0.3088
   10MOL    H99 3897   5.146   6.638   2.778 -0.4769 -1.1302 -0.3519
   10MOL   H100 3898   4.975   6.892   2.761  2.0018  0.4231  2.0848
   10MOL   H101 3899   5.152   6.870   2.700  1.2532 -1.6501  1.0509
   10MOL   H102 3900   4.919   6.717   2.582  1.5034 -2.1660 -0.0524
   10MOL   H103 3901   5.081   6.736   2.523  0.1353 -0.8241  0.2913
   10MOL   H104 3902   4.854   6.931   2.485 -0.9154 -1.8170 -0.7429
   10MOL   H105 3903   4.949   6.837   2.383 -0.2457  0.0290 -0.9924
   10MOL   H106 3904   5.022   6.981   2.463 -1.0987  0.8576  1.0869
   10MOL   C107 3905   5.267   6.763   3.195  0.6543 -0.0370  0.6649
   10MOL   C108 3906   5.266   6.607   3.202  0.3890  0.3691 -0.4402
   10MOL   C109 3907   5.302   6.534   3.074 -0.5997 -0.1635  0.3091
   10MOL   O110 3908   5.225   6.454   3.009  0.2289 -0.1686  0.4958
   10MOL   O111 3909   5.431   6.553   3.046 -0.0605 -0.5003  0.4417
   10MOL   C112 3910   5.478   6.492   2.932  0.2205  0.1991  0.4430
   10MOL   C113 3911   5.627   6.483   2.947 -0.9182 -0.1098 -0.5661
   10MOL   C114 3912   5.682   6.406   3.071 -0.0454  0.1803 -0.3706
   10MOL   C115 3913   5.840   6.420   3.073  0.0366  0.0204  0.3783
   10MOL   H116 3914   5.283   6.793   3.298  0.6098  1.3180  0.2885
   10MOL   H117 3915   5.349   6.798   3.133  0.7184 -0.0204  0.7596
   10MOL   H118 3916   5.160   6.585   3.213  0.6958 -0.8962  0.0413
   10MOL   H119 3917   5.447   6.541   2.840  3.5837  2.3060  0.3615
   10MOL   H120 3918   5.449   6.387   2.937  0.7130  0.0891  1.0264
   10MOL   H121 3919   5.669   6.445   2.854 -0.0951  2.7783 -1.3982
   10MOL   H122 3920   5.669   6.583   2.948 -1.3922  0.0860  0.0742
   10MOL   H123 3921   5.658   6.300   3.067  0.4129  0.0838 -0.6032
   10MOL   H124 3922   5.640   6.434   3.168  1.7085  2.4230 -0.2262
   10MOL   H125 3923   5.878   6.513   3.114  0.5051 -0.0886  0.2007
   10MOL   H126 3924   5.884   6.401   2.975  1.0092  0.9687  0.6289
   10MOL   H127 3925   5.885   6.356   3.149  1.0701  0.0325 -0.1981
   10MOL   C128 3926   5.333   6.551   3.331  0.6132 -0.1287 -0.1522
   10MOL   C129 3927   5.275   6.602   3.473  0.2440  0.3182  0.3931
   10MOL   C130 3928   5.118   6.587   3.464 -0.2100 -0.4859 -0.1849
   10MOL   O131 3929   5.045   6.687   3.474 -0.4597 -0.0072 -0.3033
   10MOL   O132 3930   5.077   6.457   3.452 -0.1986  0.3086 -0.3372
   10MOL   C133 3931   4.941   6.415   3.452 -0.3348 -0.3077 -0.2057
   10MOL   C134 3932   4.884   6.382   3.314 -0.1789  0.3384 -0.3918
   10MOL   C135 3933   4.953   6.262   3.244 -0.3171  0.1793 -0.1746
   10MOL   C136 3934   4.884   6.248   3.105  0.2851 -0.3490 -0.4468
   10MOL   H137 3935   5.437   6.585   3.332  0.3232  0.8152 -1.1206
   10MOL   H138 3936   5.341   6.443   3.330 -1.4843 -0.3490  1.9475
   10MOL   H139 3937   5.298   6.708   3.477  0.0174  0.3765  0.1612
   10MOL   H140 3938   4.864   6.485   3.485 -0.0380 -0.4167  0.7193
   10MOL   H141 3939   4.927   6.327   3.515 -1.2896  0.5506  0.8025
   10MOL   H142 3940   4.777   6.370   3.325 -0.1513  0.7116  0.3918
   10MOL   H143 3941   4.897   6.472   3.253  0.1098  1.0943  0.7573
   10MOL   H144 3942   4.952   6.171   3.305 -1.3235  1.0130  1.0819
   10MOL   H145 3943   5.060   6.279   3.239  0.0469 -1.4771  1.2462
   10MOL   H146 3944   4.929   6.314   3.030  0.3391 -2.7273 -2.5645
   10MOL   H147 3945   4.778   6.268   3.087  0.1160 -1.2643 -0.4963
   10MOL   H148 3946   4.891   6.146   3.068  1.8120 -0.3787 -0.1181
   10MOL   C149 3947   5.328   6.534   3.600 -0.5154 -0.7532 -0.1004
   10MOL   C150 3948   5.335   6.624   3.720  0.2698  0.9276 -0.0929
   10MOL   C151 3949   5.437   6.741   3.700 -0.1961 -0.0302  0.5705
   10MOL   O152 3950   5.405   6.862   3.695 -0.9097 -0.2371 -0.1910
   10MOL   O153 3951   5.567   6.695   3.678  0.4895 -0.1024  0.3307
   10MOL   C154 3952   5.674   6.775   3.634  0.0330 -0.3886 -0.4262
   10MOL   C155 3953   5.671   6.814   3.479  0.4284 -0.6134 -0.3136
   10MOL   C156 3954   5.719   6.700   3.387  0.3309 -0.5877 -0.5292
   10MOL   C157 3955   5.687   6.741   3.239 -0.1495  0.4314  0.0862
   10MOL   H158 3956   5.432   6.504   3.590  0.0180  0.6903  0.8839
   10MOL   H159 3957   5.276   6.439   3.613 -0.5894 -0.7466 -0.3437
   10MOL   H160 3958   5.380   6.568   3.802  1.4318 -0.5219 -1.6954
   10MOL   H161 3959   5.768   6.745   3.680  0.0259  0.8139  0.4030
   10MOL   H162 3960   5.658   6.867   3.691  1.8217 -0.9763  1.0906
   10MOL   H163 3961   5.568   6.846   3.464  0.9414  1.4433  0.4303
   10MOL   H164 3962   5.729   6.902   3.453 -0.9294  0.7230  1.0942
   10MOL   H165 3963   5.667   6.609   3.417  0.3481  0.2238  2.0588
   10MOL   H166 3964   5.826   6.683   3.386 -0.0733 -3.4296  0.5383
   10MOL   H167 3965   5.581   6.765   3.233  0.0938  1.8182  1.2843
   10MOL   H168 3966   5.717   6.659   3.173 -0.6476  0.6877 -0.4637
   10MOL   H169 3967   5.743   6.831   3.216  0.7518 -0.3232 -0.7332
   10MOL   C170 3968   5.196   6.675   3.778  0.2961  0.1090 -0.3228
   10MOL   C171 3969   5.118   6.571   3.863  0.1363  0.7256 -0.1458
   10MOL   C172 3970   5.185   6.528   3.996 -0.2580  0.7097  0.8059
   10MOL   O173 3971   5.288   6.581   4.031 -0.2825  0.3753  0.8266
   10MOL   O174 3972   5.125   6.422   4.052 -0.1175 -0.6408  0.2187
   10MOL   C175 3973   5.187   6.361   4.161  0.1265 -0.5628  0.3245
   10MOL   C176 3974   5.119   6.224   4.181 -0.1653  0.0294  0.6293
   10MOL   C177 3975   5.164   6.155   4.309  0.6009 -0.1317 -0.0391
   10MOL   C178 3976   5.082   6.201   4.433 -0.3548 -0.7412 -0.4060
   10MOL   H179 3977   5.126   6.694   3.697  1.1826  0.4617 -1.0290
   10MOL   H180 3978   5.210   6.767   3.835  1.6543 -0.9213  1.0434
   10MOL   H181 3979   5.125   6.482   3.800  3.4460 -0.7766  2.2253
   10MOL   H182 3980   5.166   6.431   4.241 -1.2766 -0.7999  0.1745
   10MOL   H183 3981   5.294   6.345   4.147 -0.1664 -2.8832  0.4315
   10MOL   H184 3982   5.011   6.238   4.177 -0.3975 -2.1269 -1.9733
   10MOL   H185 3983   5.157   6.158   4.103 -0.4892  1.5543 -0.8604
   10MOL   H186 3984   5.269   6.179   4.331  0.6283 -0.5812  0.3219
   10MOL   H187 3985   5.164   6.047   4.298 -1.0823 -0.4955  3.0794
   10MOL   H188 3986   5.113   6.152   4.525  0.0051 -3.3953 -1.9058
   10MOL   H189 3987   4.981   6.160   4.424 -0.4059 -0.9234  0.8554
   10MOL   H190 3988   5.067   6.309   4.443  0.7403 -0.7115  1.1376
   10MOL   C191 3989   4.959   6.607   3.888 -0.3250  0.4505  0.5795
   10MOL   C192 3990   4.923   6.691   4.012 -0.1126  0.2446 -0.1988
   10MOL   C193 3991   4.971   6.833   3.992  0.5490  0.0867 -0.0959
   10MOL   O194 3992   5.060   6.873   4.065 -0.2054  0.3757 -0.2928
   10MOL   O195 3993   4.913   6.909   3.897  0.4769 -0.2596 -0.0778
   10MOL   C196 3994   4.959   7.042   3.880  0.0370 -1.1536  0.3274
   10MOL   C197 3995   5.043   7.040   3.749  0.3682 -0.4505 -0.1180
   10MOL   C198 3996   4.967   6.995   3.619  0.4158  0.1828 -0.0856
   10MOL   C199 3997   5.053   6.994   3.487 -0.3753  0.8449  0.2330
   10MOL   H200 3998   4.903   6.514   3.895 -0.3661  0.4504  0.2431
   10MOL   H201 3999   4.921   6.665   3.804  0.4674 -0.8439 -0.6990
   10MOL   H202 4000   4.970   6.647   4.099  1.7458  0.6345 -0.9703
   10MOL   H203 4001   5.026   7.075   3.959 -2.2578  1.1615  1.3188
   10MOL   H204 4002   4.871   7.103   3.862  1.8200  0.9748 -1.4443
   10MOL   H205 4003   5.090   7.138   3.740 -0.3525 -0.0992 -0.1486
   10MOL   H206 4004   5.128   6.974   3.764 -0.3550 -1.6170 -1.0958
   10MOL   H207 4005   4.885   7.063   3.596 -0.2065 -0.7963 -0.7878
   10MOL   H208 4006   4.932   6.894   3.636 -2.3468  0.5202 -3.2456
   10MOL   H209 4007   4.992   6.967   3.401  0.7901 -1.1881  0.0191
   10MOL   H210 4008   5.137   6.926   3.496  0.8207  2.0034 -1.9153
   10MOL   H211 4009   5.087   7.097   3.471 -0.7798  0.8204 -0.7973
   10MOL   C212 4010   4.771   6.690   4.039 -0.6639  0.3708 -0.3705
   10MOL   C213 4011   4.718   6.744   4.178  0.0024  0.7835  0.4811
   10MOL   C214 4012   4.709   6.897   4.193  0.4886  0.7962  0.2063
   10MOL   O215 4013   4.637   6.966   4.126 -0.2309 -0.1814 -0.0292
   10MOL   O216 4014   4.802   6.935   4.289  0.8312  0.1034  0.3213
   10MOL   C217 4015   4.817   7.068   4.324  0.6017 -0.3370  0.6738
   10MOL   C218 4016   4.958   7.093   4.386  0.2221  0.0886 -0.6313
   10MOL   C219 4017   4.983   7.236   4.423  1.1862 -0.4152 -0.1637
   10MOL   C220 4018   5.110   7.243   4.510 -0.0218 -0.4288  0.4907
   10MOL   H221 4019   4.729   6.590   4.032  0.7019 -0.2099 -0.4835
   10MOL   H222 4020   4.715   6.743   3.963 -0.5395  2.0642  0.6976
   10MOL   H223 4021   4.782   6.711   4.259 -0.9321  1.3085  1.4438
   10MOL   H224 4022   4.742   7.086   4.402  1.4681  1.4838  1.1254
   10MOL   H225 4023   4.827   7.126   4.232 -0.4917 -3.4179 -1.4756
   10MOL   H226 4024   4.963   7.022   4.469  0.6370  1.6560  0.7223
   10MOL   H227 4025   5.039   7.056   4.323  2.4687  1.4320  1.3691
   10MOL   H228 4026   4.899   7.283   4.476  1.6467 -0.3656  0.5337
   10MOL   H229 4027   4.995   7.295   4.333  1.2231 -1.8388 -1.1041
   10MOL   H230 4028   5.125   7.348   4.537 -1.2480 -0.2957  0.6827
   10MOL   H231 4029   5.207   7.205   4.478 -1.1343 -1.7490 -1.3810
   10MOL   H232 4030   5.095   7.209   4.613  1.7969  2.5169  1.8000
   10MOL   C233 4031   4.583   6.681   4.217 -0.1554 -0.3014  0.0463
   10MOL   C234 4032   4.588   6.549   4.296 -0.1246  0.2118  0.4585
   10MOL   C235 4033   4.647   6.566   4.436 -0.4719  0.8202  0.8448
   10MOL   O236 4034   4.760   6.526   4.454  0.0288  0.0580 -0.0518
   10MOL   O237 4035   4.575   6.640   4.521  0.3738  0.2353  0.5632
   10MOL   C238 4036   4.637   6.685   4.643 -0.2006  0.3896 -0.2903
   10MOL   C239 4037   4.747   6.800   4.623  0.8586  0.2587 -0.3093
   10MOL   C240 4038   4.755   6.895   4.746 -0.1567 -0.2899  0.0782
   10MOL   C241 4039   4.853   7.013   4.729 -0.2973  0.2280  0.0343
   10MOL   H242 4040   4.514   6.686   4.132  2.2379 -1.3539 -2.0264
   10MOL   H243 4041   4.529   6.751   4.281 -1.1250 -0.7345 -0.2878
   10MOL   H244 4042   4.650   6.470   4.254 -1.5936  0.2780 -1.9447
   10MOL   H245 4043   4.665   6.598   4.703 -1.8531 -1.5502 -2.2448
   10MOL   H246 4044   4.555   6.710   4.711 -1.2254  0.1363 -1.4297
   10MOL   H247 4045   4.848   6.768   4.594  0.7886  1.9905 -2.6021
   10MOL   H248 4046   4.718   6.868   4.543  0.8158  2.7580  1.7820
   10MOL   H249 4047   4.772   6.849   4.843 -0.1250  1.2672  0.8267
   10MOL   H250 4048   4.657   6.939   4.766 -0.0311  0.3056 -0.6004
   10MOL   H251 4049   4.880   7.059   4.824 -1.7183 -0.0228  0.5792
   10MOL   H252 4050   4.815   7.102   4.678  1.1727  0.8173 -0.0405
   10MOL   H253 4051   4.950   6.990   4.685 -0.8111 -0.3091 -0.8331
   10MOL   C254 4052   4.447   6.480   4.313  0.4907 -0.0105  0.4513
   10MOL   C255 4053   4.380   6.413   4.193 -0.4446 -0.9178 -0.0919
   10MOL   C256 4054   4.456   6.284   4.141  0.1166 -0.6336  0.0170
   10MOL   O257 4055   4.492   6.279   4.025 -0.7996 -0.0069 -0.0920
   10MOL   O258 4056   4.495   6.193   4.238  0.3248 -0.1190  0.5151
   10MOL   C259 4057   4.558   6.074   4.202  0.1822  0.1526  0.6777
   10MOL   C260 4058   4.709   6.073   4.182  0.2492 -0.2462  0.3300
   10MOL   C261 4059   4.747   5.922   4.141  0.9565 -0.0350  0.5777
   10MOL   C262 4060   4.900   5.911   4.127  0.0292 -0.0362  0.1703
   10MOL   H263 4061   4.381   6.545   4.371  1.4617 -0.9885  2.6989
   10MOL   H264 4062   4.452   6.406   4.393  0.4915 -1.6543 -1.0429
   10MOL   H265 4063   4.397   6.489   4.116 -2.8971 -0.2308  0.0053
   10MOL   H266 4064   4.518   6.031   4.110 -1.4266 -0.0466  1.4596
   10MOL   H267 4065   4.534   5.999   4.277  1.1223 -1.9719 -1.0641
   10MOL   H268 4066   4.738   6.136   4.098  2.3785 -0.3094  0.9963
   10MOL   H269 4067   4.759   6.117   4.268  2.8003 -2.2621 -0.0708
   10MOL   H270 4068   4.705   5.899   4.043  2.1778 -1.0922  0.2880
   10MOL   H271 4069   4.711   5.842   4.204  0.4927 -0.4863 -0.2497
   10MOL   H272 4070   4.923   5.805   4.129  0.5344 -0.0434 -2.6767
   10MOL   H273 4071   4.937   5.961   4.216 -0.3261  0.5006  0.0176
   10MOL   H274 4072   4.926   5.954   4.030  0.4339  0.7151  0.6019
   10MOL   C275 4073   4.231   6.376   4.214  0.0194 -0.2925  0.0475
   10MOL   C276 4074   4.151   6.344   4.086  0.6066 -0.1276  0.8758
   10MOL   C277 4075   4.005   6.319   4.109 -0.7426 -0.2251  0.2899
   10MOL   O278 4076   3.952   6.365   4.208  0.4615 -0.0705 -0.5664
   10MOL   O279 4077   3.935   6.266   4.003  0.2611  0.0936  0.1861
   10MOL   C280 4078   3.803   6.224   4.020 -0.1075 -0.2006  0.4804
   10MOL   C281 4079   3.727   6.182   3.888  0.2455  0.4127  0.2009
   10MOL   C282 4080   3.582   6.153   3.908  0.5956  0.4579 -0.2450
   10MOL   C283 4081   3.528   6.108   3.775 -0.2619 -0.4676  0.1214
   10MOL   H284 4082   4.188   6.457   4.272 -0.3450  1.4547 -2.5850
   10MOL   H285 4083   4.214   6.294   4.283 -0.3824 -0.7552 -0.5934
   10MOL   H286 4084   4.187   6.249   4.047  0.5735  0.4606 -0.6196
   10MOL   H287 4085   3.738   6.300   4.063 -1.2633 -0.4364 -0.7868
   10MOL   H288 4086   3.796   6.149   4.098  2.0259 -0.4630  0.4459
   10MOL   H289 4087   3.735   6.272   3.826 -1.5541  0.4264 -0.0498
   10MOL   H290 4088   3.774   6.099   3.835  1.0970  0.1645  1.3461
   10MOL   H291 4089   3.530   6.232   3.963  0.9146  0.5390 -0.0626
   10MOL   H292 4090   3.583   6.069   3.978  1.2953 -1.2313 -2.2105
   10MOL   H293 4091   3.548   6.177   3.694 -1.8357  0.7328  0.7260
   10MOL   H294 4092   3.419   6.101   3.776 -0.2280 -1.3499 -1.5695
   10MOL   H295 4093   3.560   6.006   3.753  2.2903  0.5084 -0.7754
   10MOL   C296 4094   4.159   6.458   3.980 -0.0896  0.4178  0.1308
   10MOL   C297 4095   4.138   6.612   4.022 -0.1885  0.1372 -0.3452
   10MOL   C298 4096   4.241   6.720   3.982  0.2937 -0.5374  0.0414
   10MOL   O299 4097   4.319   6.690   3.891  0.2882 -0.1471 -0.3788
   10MOL   O300 4098   4.234   6.839   4.041  0.1889  0.3580  0.5011
   10MOL   C301 4099   4.307   6.955   3.999 -0.3139  0.1782  0.8049
   10MOL   C302 4100   4.217   7.079   3.980 -0.1169  0.5145 -0.0045
   10MOL   C303 4101   4.122   7.080   3.851  0.4377  0.4911 -0.0387
   10MOL   C304 4102   4.034   7.204   3.851 -0.1042  0.1633  0.1321
   10MOL   H305 4103   4.103   6.425   3.892 -0.8797 -0.8749  1.1025
   10MOL   H306 4104   4.261   6.456   3.943  0.5359  2.2788  1.6834
   10MOL   H307 4105   4.145   6.611   4.131  1.7677 -2.5038 -0.4354
   10MOL   H308 4106   4.390   6.938   3.930 -1.9941  0.2108 -1.2760
   10MOL   H309 4107   4.354   6.978   4.095 -0.7981 -0.1742  1.1303
   10MOL   H310 4108   4.156   7.099   4.068  1.5986  2.3564  0.8088
   10MOL   H311 4109   4.277   7.170   3.979  3.2222 -1.5880 -2.1967
   10MOL   H312 4110   4.056   6.993   3.839 -0.4784  1.4785 -2.3326
   10MOL   H313 4111   4.182   7.091   3.761 -0.3203 -0.0850 -0.6257
   10MOL   H314 4112   4.098   7.292   3.848 -1.8205  1.4234 -3.1344
   10MOL   H315 4113   3.970   7.212   3.939 -0.4015  1.1197 -0.1647
   10MOL   H316 4114   3.967   7.198   3.765  1.7817 -2.1994 -1.2148
   10MOL   C317 4115   3.999   6.664   3.994 -0.5429  0.3535  0.1820
   10MOL   C318 4116   3.937   6.625   3.851 -0.1624  0.7672  0.2818
   10MOL   C319 4117   3.784   6.668   3.841 -0.3365  0.3664  0.9635
   10MOL   O320 4118   3.727   6.744   3.920  0.0270  0.3057 -0.6136
   10MOL   O321 4119   3.737   6.610   3.733  0.3860 -0.6038 -0.0538
   10MOL   C322 4120   3.596   6.615   3.698 -0.7130  0.2988 -0.0304
   10MOL   C323 4121   3.536   6.471   3.707  0.4753 -0.1614  0.2351
   10MOL   C324 4122   3.399   6.472   3.642  0.2814  0.1736 -0.3282
   10MOL   C325 4123   3.347   6.338   3.603 -0.0958  0.3824 -0.7039
   10MOL   H326 4124   3.990   6.771   4.010  0.1127  0.4868 -0.3411
   10MOL   H327 4125   3.950   6.611   4.076 -0.6243  1.2884  0.7476
   10MOL   H328 4126   3.916   6.518   3.847 -0.7927  0.8544  1.1269
   10MOL   H329 4127   3.597   6.646   3.594 -0.3445  1.6968  0.3812
   10MOL   H330 4128   3.535   6.690   3.747 -0.7190  0.4064 -0.2021
   10MOL   H331 4129   3.602   6.400   3.658 -0.4755 -1.3502  0.6600
   10MOL   H332 4130   3.530   6.437   3.811  3.5004  0.7515  0.7552
   10MOL   H333 4131   3.391   6.532   3.552 -1.4238  0.0520 -0.2814
   10MOL   H334 4132   3.320   6.513   3.705  0.0343 -0.7985  0.0120
   10MOL   H335 4133   3.253   6.353   3.550  0.1315  0.7998 -0.9883
   10MOL   H336 4134   3.330   6.278   3.693 -0.8481 -0.3844 -1.3420
   10MOL   H337 4135   3.424   6.296   3.538  1.0871  1.5106 -0.0423
   10MOL   C338 4136   4.010   6.685   3.733 -0.6449 -0.0705 -0.1802
   10MOL   C339 4137   4.096   6.594   3.644  1.0278 -0.0571 -0.1671
   10MOL   C340 4138   4.014   6.474   3.590  0.3626  0.3956  0.6145
   10MOL   O341 4139   4.030   6.360   3.637 -0.0405  0.1082  0.0068
   10MOL   O342 4140   3.935   6.495   3.485  0.0296  0.5412 -0.5442
   10MOL   C343 4141   3.851   6.388   3.428 -0.1694 -0.1998 -0.2385
   10MOL   C344 4142   3.800   6.421   3.285  0.3839  0.0800 -0.5856
   10MOL   C345 4143   3.651   6.476   3.287  0.2995 -1.1204 -0.5980
   10MOL   C346 4144   3.623   6.516   3.141 -0.0848 -0.3233  0.0863
   10MOL   H347 4145   4.067   6.770   3.770 -0.0473 -0.9239  0.8941
   10MOL   H348 4146   3.938   6.732   3.665 -1.9156  1.5636  2.2076
   10MOL   H349 4147   4.181   6.542   3.688  3.0105 -0.0468 -3.7716
   10MOL   H350 4148   3.769   6.364   3.495 -0.0003 -3.4045 -1.0692
   10MOL   H351 4149   3.903   6.292   3.426 -2.1120 -1.2645 -0.9466
   10MOL   H352 4150   3.875   6.490   3.246 -0.1643 -0.9583 -3.5647
   10MOL   H353 4151   3.799   6.328   3.229 -2.1595 -0.8623  0.9306
   10MOL   H354 4152   3.638   6.562   3.353 -1.4094 -1.7193 -0.1324
   10MOL   H355 4153   3.590   6.391   3.317 -1.9893  0.0834 -1.7177
   10MOL   H356 4154   3.704   6.505   3.068 -0.3802 -3.0827  0.1103
   10MOL   H357 4155   3.573   6.611   3.125 -0.0008 -0.1370  0.9016
   10MOL   H358 4156   3.561   6.434   3.104  0.1862 -0.5161  0.0591
   10MOL   C359 4157   4.162   6.680   3.525 -0.5818  0.2360  0.4410
   10MOL   C360 4158   4.294   6.627   3.462 -0.0531  0.3640 -0.7721
   10MOL   C361 4159   4.269   6.500   3.375 -0.2094  0.4935 -0.2095
   10MOL   O362 4160   4.220   6.507   3.262  0.2212 -0.1889 -0.0056
   10MOL   O363 4161   4.292   6.385   3.437 -0.0000  0.0189 -0.3972
   10MOL   C364 4162   4.249   6.269   3.383 -0.0573 -0.3555  0.1132
   10MOL   C365 4163   4.320   6.148   3.442  0.0321 -0.7919 -0.7627
   10MOL   C366 4164   4.272   6.012   3.389  0.4301 -0.7267  0.0337
   10MOL   C367 4165   4.332   5.901   3.463  0.2522 -0.4181 -0.3220
   10MOL   H368 4166   4.181   6.781   3.560 -2.6343  0.0239  2.2420
   10MOL   H369 4167   4.087   6.693   3.447 -2.3926 -0.5554  2.0232
   10MOL   H370 4168   4.369   6.593   3.534 -0.3582  0.5726 -0.3496
   10MOL   H371 4169   4.262   6.258   3.275  1.1377 -1.4938  0.3587
   10MOL   H372 4170   4.147   6.264   3.421  0.7478  0.5952  2.4453
   10MOL   H373 4171   4.426   6.161   3.419 -0.3682 -0.7136 -2.6176
   10MOL   H374 4172   4.305   6.148   3.550 -0.7093  1.5801 -0.8350
   10MOL   H375 4173   4.289   5.991   3.283  0.9173 -0.7902  0.1240
   10MOL   H376 4174   4.165   6.003   3.407  0.4677  2.3278  2.0788
   10MOL   H377 4175   4.441   5.893   3.468  0.1917 -1.4713 -0.5678
   10MOL   H378 4176   4.307   5.805   3.419  0.7914 -1.6250  1.9383
   10MOL   H379 4177   4.295   5.892   3.565  1.0702 -0.7496 -0.0471
   10MOL   C380 4178   4.351   6.746   3.384  0.1959  0.7610  0.1318
   10MOL   C381 4179   4.475   6.708   3.296 -0.0765 -0.0789  0.5882
   10MOL   C382 4180   4.516   6.825   3.196  0.6043  0.0385 -1.0985
   10MOL   O383 4181   4.486   6.943   3.223 -0.0228 -0.0440 -0.3419
   10MOL   O384 4182   4.585   6.791   3.089 -0.8203 -0.1864 -0.2310
   10MOL   C385 4183   4.631   6.886   2.993  0.3491 -0.4683  0.3351
   10MOL   C386 4184   4.545   6.885   2.871  0.7498 -0.6794 -0.0841
   10MOL   C387 4185   4.629   6.884   2.739  0.0524  0.1688 -0.2316
   10MOL   C388 4186   4.542   6.890   2.609  0.0299  0.1327  0.1058
   10MOL   H389 4187   4.370   6.843   3.431 -0.9638  0.5993  0.9481
   10MOL   H390 4188   4.274   6.786   3.317  0.0735  0.4832  0.1091
   10MOL   H391 4189   4.444   6.624   3.234  0.6968 -0.6106  0.9163
   10MOL   H392 4190   4.734   6.860   2.967  0.9371  0.6488  1.4859
   10MOL   H393 4191   4.659   6.984   3.033 -0.7799  0.4806 -1.1506
   10MOL   H394 4192   4.489   6.791   2.871  1.2204 -0.9859  2.0995
   10MOL   H395 4193   4.480   6.972   2.874 -1.2933 -2.2130  0.8613
   10MOL   H396 4194   4.703   6.804   2.737  1.2938  1.2457  1.4310
   10MOL   H397 4195   4.694   6.970   2.752  0.8061 -0.4692  0.2664
   10MOL   H398 4196   4.493   6.796   2.585 -0.2099  0.5496 -1.0975
   10MOL   H399 4197   4.608   6.907   2.523 -1.3366  1.1715 -0.7606
   10MOL   H400 4198   4.470   6.972   2.611  0.6535  0.7450 -1.3041
   10MOL   C401 4199   4.597   6.641   3.366 -0.0022 -0.1747 -0.1617
   10MOL   C402 4200   4.687   6.734   3.450  0.0262  1.1135  0.2147
   10MOL   C403 4201   4.640   6.751   3.592 -0.3437  0.1479  0.8412
   10MOL   O404 4202   4.595   6.657   3.660 -0.1449  0.2014 -0.3381
   10MOL   O405 4203   4.622   6.883   3.619  0.7117 -0.1803  0.0865
   10MOL   C406 4204   4.564   6.936   3.735 -0.3020  0.4306  0.4235
   10MOL   C407 4205   4.575   7.089   3.755 -0.2684  0.1403 -0.5368
   10MOL   C408 4206   4.540   7.180   3.632  0.6748 -0.5620  1.1713
   10MOL   C409 4207   4.661   7.199   3.534  0.5575 -0.0333 -0.3023
   10MOL   H410 4208   4.657   6.609   3.281 -0.2641  0.4056 -0.5704
   10MOL   H411 4209   4.573   6.550   3.420 -1.0206  0.8192  1.1034
   10MOL   H412 4210   4.709   6.830   3.403  1.8871  0.7079  0.2230
   10MOL   H413 4211   4.614   6.885   3.816 -0.7262 -1.9364 -0.7732
   10MOL   H414 4212   4.458   6.912   3.730 -0.2057  0.3345 -1.5983
   10MOL   H415 4213   4.498   7.114   3.828  0.6195 -1.9856  1.1784
   10MOL   H416 4214   4.669   7.116   3.803  0.2578  2.4104 -2.7537
   10MOL   H417 4215   4.494   7.275   3.658  1.7901  1.1419 -2.7512
   10MOL   H418 4216   4.463   7.129   3.574  0.9085  0.3102  0.0791
   10MOL   H419 4217   4.757   7.227   3.578  0.7724 -0.5168 -0.4632
   10MOL   H420 4218   4.642   7.270   3.454 -2.4754 -0.0187  0.3765
   10MOL   H421 4219   4.676   7.099   3.493  0.6318 -0.2113  0.1482
   10MOL   H422 4220   4.789   6.696   3.460 -0.2471 -0.6069 -2.8184
   11MOL     C1 4221   4.683   4.410   4.314 -0.2979  0.2524  0.5553
   11MOL     C2 4222   4.590   4.287   4.322 -0.4109  0.2322  0.4520
   11MOL     C3 4223   4.617   4.216   4.453  0.4536 -0.3702  0.0003
   11MOL     O4 4224   4.534   4.207   4.539  0.3541  0.1239 -0.2737
   11MOL     O5 4225   4.741   4.174   4.456 -0.4733  0.2242  0.2406
   11MOL     C6 4226   4.788   4.086   4.559 -1.0911 -0.1009  0.2448
   11MOL     C7 4227   4.941   4.069   4.572  0.2794  0.3157 -0.3707
   11MOL     C8 4228   5.008   4.208   4.612  0.0181 -0.2198 -0.4030
   11MOL     C9 4229   5.071   4.275   4.491 -0.3345 -0.2694  0.5329
   11MOL    H10 4230   4.662   4.465   4.222  0.2543  1.0210  0.8834
   11MOL    H11 4231   4.677   4.473   4.402 -0.0309 -1.3794  1.7774
   11MOL    H12 4232   4.612   4.218   4.241 -0.7082 -0.7179  1.1665
   11MOL    H13 4233   4.736   3.991   4.554 -1.5905  0.2697 -1.9311
   11MOL    H14 4234   4.745   4.135   4.647 -0.8333 -0.6481  0.6747
   11MOL    H15 4235   4.954   3.994   4.649  0.7062  0.1201 -0.6322
   11MOL    H16 4236   4.984   4.021   4.484  0.2389  0.3641 -0.4167
   11MOL    H17 4237   5.092   4.198   4.680 -1.1841  1.9095  1.4773
   11MOL    H18 4238   4.939   4.277   4.662  1.2421  0.0303  0.9873
   11MOL    H19 4239   5.148   4.209   4.451 -0.9540 -1.0437  0.5913
   11MOL    H20 4240   5.112   4.374   4.512 -1.3417 -0.4362  3.5517
   11MOL    H21 4241   4.998   4.276   4.410  1.5898 -2.4759 -1.2967
   11MOL    H22 4242   4.785   4.371   4.304  0.1178  0.8331  2.3878
   11MOL    C23 4243   4.442   4.319   4.299  0.4220  0.2814 -0.7391
   11MOL    C24 4244   4.360   4.189   4.289 -0.3095 -0.4841  0.2370
   11MOL    C25 4245   4.245   4.189   4.390 -0.1549  0.7979 -0.1821
   11MOL    O26 4246   4.183   4.292   4.423 -0.4456 -0.0454 -0.6410
   11MOL    O27 4247   4.201   4.069   4.418  0.5817  0.3404 -0.1723
   11MOL    C28 4248   4.078   4.043   4.489 -0.6645 -0.1942  0.6322
   11MOL    C29 4249   4.089   4.056   4.642  0.5323 -0.3022  0.6560
   11MOL    C30 4250   4.204   3.977   4.704 -0.6673 -0.8275 -0.7538
   11MOL    C31 4251   4.205   3.961   4.862  0.3804  0.0952  0.3313
   11MOL    H32 4252   4.432   4.380   4.208  2.1370  1.2765 -0.2835
   11MOL    H33 4253   4.405   4.386   4.377  0.4864 -0.7410  0.1759
   11MOL    H34 4254   4.415   4.096   4.302  0.6619  0.0792  0.1310
   11MOL    H35 4255   4.047   3.940   4.472 -1.8370  0.2811 -0.2149
   11MOL    H36 4256   3.998   4.107   4.451 -0.9594 -0.1839  1.2563
   11MOL    H37 4257   4.100   4.160   4.674 -0.4325  0.2030 -0.6378
   11MOL    H38 4258   3.994   4.032   4.690 -1.0675 -2.0448 -3.1925
   11MOL    H39 4259   4.294   4.025   4.665 -1.7160  1.0132 -0.9628
   11MOL    H40 4260   4.209   3.877   4.660  0.4009 -1.3076  0.4297
   11MOL    H41 4261   4.269   3.879   4.896 -2.7462 -2.1068  1.1840
   11MOL    H42 4262   4.110   3.936   4.908  0.8503 -0.9370  0.7605
   11MOL    H43 4263   4.221   4.057   4.910 -2.0850  0.5600  0.2853
   11MOL    C44 4264   4.304   4.171   4.146 -0.1731  0.7553  0.5274
   11MOL    C45 4265   4.406   4.183   4.033 -0.4437  0.3441 -0.2502
   11MOL    C46 4266   4.493   4.059   4.034 -0.1089  0.0609 -0.0802
   11MOL    O47 4267   4.616   4.072   4.056  0.1949  0.1563 -0.2742
   11MOL    O48 4268   4.419   3.945   4.019 -0.5522  0.6482 -0.0706
   11MOL    C49 4269   4.480   3.815   4.018 -0.2874  0.9035 -0.5331
   11MOL    C50 4270   4.477   3.775   4.166  0.3180  0.9388 -0.4767
   11MOL    C51 4271   4.531   3.634   4.190 -0.5176 -0.2792 -0.2626
   11MOL    C52 4272   4.428   3.529   4.143  0.8781 -0.1503  0.3522
   11MOL    H53 4273   4.224   4.241   4.119 -0.3018  0.1703 -0.6363
   11MOL    H54 4274   4.251   4.077   4.157 -0.4506  0.6429 -1.5362
   11MOL    H55 4275   4.474   4.265   4.057 -1.0859  1.3630 -1.8281
   11MOL    H56 4276   4.585   3.820   3.987 -0.3648  0.1419 -0.9246
   11MOL    H57 4277   4.429   3.748   3.949 -0.0214  0.2362 -0.0993
   11MOL    H58 4278   4.544   3.844   4.216  1.7819  0.4651 -1.7537
   11MOL    H59 4279   4.374   3.788   4.200 -0.8674  0.5993 -3.7091
   11MOL    H60 4280   4.554   3.622   4.296 -0.2232 -1.2754 -0.4281
   11MOL    H61 4281   4.618   3.623   4.125  0.2678 -2.1013  1.0453
   11MOL    H62 4282   4.338   3.533   4.203 -1.0003  1.1499 -2.4631
   11MOL    H63 4283   4.465   3.430   4.170  1.0102  0.6859  3.4799
   11MOL    H64 4284   4.392   3.540   4.041  0.4380 -2.1392  0.2833
   11MOL    C65 4285   4.348   4.212   3.894 -0.3941  0.5229  0.1607
   11MOL    C66 4286   4.293   4.351   3.864  0.0356 -0.0628  0.4125
   11MOL    C67 4287   4.382   4.462   3.920 -0.3593 -0.4397  0.7152
   11MOL    O68 4288   4.353   4.526   4.022  0.0625  0.3943  0.7025
   11MOL    O69 4289   4.496   4.468   3.851 -0.1681 -0.5377 -0.6939
   11MOL    C70 4290   4.613   4.537   3.904  0.1359 -0.1409  0.1600
   11MOL    C71 4291   4.746   4.474   3.864  0.0638  0.5772  0.2049
   11MOL    C72 4292   4.760   4.319   3.905  0.5934  0.0496  0.4794
   11MOL    C73 4293   4.889   4.263   3.845 -0.0603 -0.6260  0.3927
   11MOL    H74 4294   4.271   4.140   3.867  0.4727  0.2131 -1.5241
   11MOL    H75 4295   4.430   4.193   3.824  0.6633 -0.4049  1.6228
   11MOL    H76 4296   4.196   4.362   3.913 -0.8730  0.4066 -1.4372
   11MOL    H77 4297   4.611   4.531   4.013 -1.8594 -0.8170  0.1139
   11MOL    H78 4298   4.616   4.642   3.876  0.2757  0.0722  0.9501
   11MOL    H79 4299   4.755   4.478   3.755 -1.6347  1.7455  0.0879
   11MOL    H80 4300   4.825   4.525   3.918 -0.1502 -0.0268  1.0949
   11MOL    H81 4301   4.675   4.273   3.854 -0.5726  0.7976  1.7054
   11MOL    H82 4302   4.750   4.301   4.012 -2.1887  0.6596  0.3670
   11MOL    H83 4303   4.978   4.308   3.889  1.2639 -0.4306 -2.4095
   11MOL    H84 4304   4.898   4.285   3.739 -1.3799 -1.2642  0.1373
   11MOL    H85 4305   4.903   4.156   3.858 -2.3933 -0.9599  0.3921
   11MOL    C86 4306   4.262   4.362   3.715  0.1972 -0.6267 -0.0211
   11MOL    C87 4307   4.132   4.439   3.682 -0.0924 -0.0290  0.0414
   11MOL    C88 4308   4.007   4.354   3.681  0.1516  0.1271  0.1966
   11MOL    O89 4309   3.962   4.298   3.582  0.3475 -0.2956  0.0145
   11MOL    O90 4310   3.945   4.344   3.810 -0.2068 -0.2262  0.0096
   11MOL    C91 4311   3.845   4.242   3.828 -0.0545 -0.4411 -0.5646
   11MOL    C92 4312   3.848   4.192   3.973 -0.6116 -0.2295  0.1555
   11MOL    C93 4313   3.949   4.079   3.984  0.2707 -0.2263 -0.1541
   11MOL    C94 4314   3.957   4.036   4.132  0.0689  0.3499  0.1748
   11MOL    H95 4315   4.243   4.264   3.670 -1.1477  0.9738 -3.0933
   11MOL    H96 4316   4.351   4.394   3.661  0.3711 -0.2715  0.4743
   11MOL    H97 4317   4.153   4.456   3.576 -1.1518  1.3074  0.0326
   11MOL    H98 4318   3.871   4.162   3.758  0.3271 -0.4832 -0.3802
   11MOL    H99 4319   3.749   4.284   3.801 -0.1107 -0.5050 -0.4670
   11MOL   H100 4320   3.874   4.269   4.046  0.7399  0.5724 -1.1405
   11MOL   H101 4321   3.750   4.155   4.003 -1.0243 -0.0333 -0.9053
   11MOL   H102 4322   4.050   4.111   3.960  0.1041 -0.6617 -1.4306
   11MOL   H103 4323   3.919   3.994   3.923 -0.9299 -1.4461  2.0766
   11MOL   H104 4324   3.976   4.122   4.197  3.3684  0.1251 -0.3889
   11MOL   H105 4325   4.032   3.960   4.154  0.4095  1.3653  2.7699
   11MOL   H106 4326   3.867   3.985   4.165 -0.7326  2.5087  1.4210
   11MOL   C107 4327   4.116   4.572   3.744 -0.2112  0.0591 -0.3651
   11MOL   C108 4328   4.210   4.686   3.699  0.0545 -0.2136 -0.3404
   11MOL   C109 4329   4.161   4.733   3.559  0.2404 -0.3763 -0.3642
   11MOL   O110 4330   4.103   4.840   3.543 -0.0797 -0.0957 -0.4134
   11MOL   O111 4331   4.194   4.651   3.456  0.0626  0.5423 -0.5160
   11MOL   C112 4332   4.158   4.674   3.325  1.1551 -0.2256 -0.0901
   11MOL   C113 4333   4.186   4.546   3.249 -0.4094 -0.7406 -0.0288
   11MOL   C114 4334   4.065   4.497   3.165 -0.7001 -0.5775  0.3292
   11MOL   C115 4335   4.105   4.421   3.039  0.3896  0.0223 -0.7270
   11MOL   H116 4336   4.125   4.557   3.852 -1.0371  1.8088 -0.0308
   11MOL   H117 4337   4.014   4.606   3.728 -0.2052 -0.5130 -1.6518
   11MOL   H118 4338   4.307   4.639   3.686  0.0519 -0.2779 -0.1292
   11MOL   H119 4339   4.216   4.759   3.289  0.0811  1.2718  1.6271
   11MOL   H120 4340   4.056   4.713   3.317  0.5215 -1.4079  1.7948
   11MOL   H121 4341   4.261   4.564   3.171 -0.5383 -0.7263 -0.1504
   11MOL   H122 4342   4.221   4.460   3.307  2.0989 -0.3563 -0.8908
   11MOL   H123 4343   3.995   4.578   3.146  0.8158  0.4009 -1.2777
   11MOL   H124 4344   4.007   4.433   3.231  0.8480 -1.5841  0.7600
   11MOL   H125 4345   4.020   4.399   2.976 -1.6577  0.7096  1.6971
   11MOL   H126 4346   4.151   4.324   3.060  0.2681 -0.3288 -2.0885
   11MOL   H127 4347   4.182   4.477   2.985  2.1942 -0.0150  1.6806
   11MOL   C128 4348   4.221   4.788   3.811  0.1210 -0.0924  0.0591
   11MOL   C129 4349   4.317   4.907   3.796 -0.4135 -0.2317  0.8284
   11MOL   C130 4350   4.321   5.005   3.912  0.1632  0.5588  0.8548
   11MOL   O131 4351   4.420   5.066   3.939 -0.7118 -0.8432 -0.1321
   11MOL   O132 4352   4.203   5.019   3.973  0.0530  0.1143 -0.4586
   11MOL   C133 4353   4.188   5.103   4.089  0.6692  0.1868 -0.0842
   11MOL   C134 4354   4.084   5.052   4.189  0.1836  0.1094 -0.1013
   11MOL   C135 4355   4.121   4.943   4.295 -1.4666 -0.2792  0.1790
   11MOL   C136 4356   4.013   4.919   4.393  0.2585  0.0986  0.1470
   11MOL   H137 4357   4.256   4.739   3.902  0.4752  0.4784  0.2387
   11MOL   H138 4358   4.125   4.837   3.832 -0.1322 -0.5825  0.0446
   11MOL   H139 4359   4.290   4.965   3.707  0.7748 -0.0258  0.5923
   11MOL   H140 4360   4.165   5.204   4.056 -1.7918  0.6524  2.8363
   11MOL   H141 4361   4.284   5.122   4.138 -0.4020  0.9100  1.7903
   11MOL   H142 4362   4.055   5.137   4.250 -2.7895 -0.7733 -0.2183
   11MOL   H143 4363   3.994   5.017   4.138  0.0827 -0.9121  0.7485
   11MOL   H144 4364   4.212   4.968   4.350 -1.8754 -0.5208  0.9777
   11MOL   H145 4365   4.149   4.849   4.247  2.1798 -0.2299  2.0557
   11MOL   H146 4366   3.914   4.902   4.350 -0.1576 -0.0650  1.1415
   11MOL   H147 4367   4.004   5.002   4.463  0.6218 -0.9074  1.3971
   11MOL   H148 4368   4.022   4.828   4.453  3.1309  0.0019 -0.3691
   11MOL   C149 4369   4.461   4.859   3.770 -0.0069  0.3930 -0.0633
   11MOL   C150 4370   4.556   4.948   3.688 -0.9325 -0.2581 -0.0171
   11MOL   C151 4371   4.706   4.928   3.723  0.2493 -0.1825 -0.7423
   11MOL   O152 4372   4.761   4.813   3.715 -0.0357  0.3697 -0.1808
   11MOL   O153 4373   4.762   5.039   3.769 -0.2101  0.2607 -0.2333
   11MOL   C154 4374   4.885   5.025   3.840 -1.0356  0.2255  0.2006
   11MOL   C155 4375   4.943   5.155   3.893  0.2395  0.1841  0.2055
   11MOL   C156 4376   4.907   5.182   4.038 -0.1604 -0.4092  0.0854
   11MOL   C157 4377   4.959   5.326   4.090  0.4094  0.4711  0.1592
   11MOL   H158 4378   4.463   4.766   3.713 -2.6844 -0.5359  1.2721
   11MOL   H159 4379   4.509   4.834   3.864 -0.9523 -2.5120 -0.3130
   11MOL   H160 4380   4.530   5.051   3.716 -0.7438 -0.3005  0.3109
   11MOL   H161 4381   4.959   4.972   3.780  0.5961  0.8674  1.6001
   11MOL   H162 4382   4.870   4.957   3.925 -0.0824  2.0452  1.8681
   11MOL   H163 4383   5.049   5.175   3.879 -0.2558  1.6939 -1.7579
   11MOL   H164 4384   4.889   5.233   3.838  1.4957  1.1987  0.3867
   11MOL   H165 4385   4.966   5.112   4.099 -0.2613  0.7176  1.5050
   11MOL   H166 4386   4.803   5.158   4.056  0.1523 -2.7807 -1.0688
   11MOL   H167 4387   4.940   5.340   4.196  2.8983  0.4086  0.6338
   11MOL   H168 4388   4.920   5.413   4.035 -1.2774  0.2310  0.9622
   11MOL   H169 4389   5.066   5.343   4.082  0.4605  0.3511  0.6235
   11MOL   C170 4390   4.525   4.911   3.535 -0.3388  1.0568 -0.2659
   11MOL   C171 4391   4.614   4.988   3.437  0.3025  1.4413  0.3758
   11MOL   C172 4392   4.636   4.902   3.308  0.1243  1.1322 -0.2427
   11MOL   O173 4393   4.750   4.885   3.261 -0.1781 -0.2245  0.2886
   11MOL   O174 4394   4.525   4.864   3.249 -0.0387 -0.2806 -0.1378
   11MOL   C175 4395   4.515   4.770   3.143  0.1372  0.1491 -0.0658
   11MOL   C176 4396   4.423   4.825   3.032 -0.0154  0.4013  0.1161
   11MOL   C177 4397   4.421   4.717   2.914 -0.0876  0.7087  0.2528
   11MOL   C178 4398   4.324   4.769   2.811 -0.4215  0.3976  0.6089
   11MOL   H179 4399   4.421   4.938   3.520 -0.6125  0.8522  1.1952
   11MOL   H180 4400   4.545   4.804   3.522 -4.3604  0.4580 -2.2746
   11MOL   H181 4401   4.715   4.989   3.479  0.3725  0.2465  0.2542
   11MOL   H182 4402   4.459   4.682   3.172 -0.4388  0.9865  1.4202
   11MOL   H183 4403   4.617   4.744   3.118  0.2560 -1.0866  1.6639
   11MOL   H184 4404   4.323   4.850   3.065 -0.2109 -0.9475  0.5722
   11MOL   H185 4405   4.460   4.922   2.998  0.7716 -0.4486 -1.5125
   11MOL   H186 4406   4.391   4.619   2.949 -0.7050  0.2402 -1.5048
   11MOL   H187 4407   4.523   4.714   2.875 -0.8195  1.1881 -1.7539
   11MOL   H188 4408   4.354   4.862   2.762  1.2814 -1.2974 -1.6866
   11MOL   H189 4409   4.226   4.777   2.858  0.0571 -1.1046  1.8928
   11MOL   H190 4410   4.309   4.690   2.737 -1.0485  0.1485  0.9968
   11MOL   C191 4411   4.570   5.136   3.416  0.5361  0.0599  0.7889
   11MOL   C192 4412   4.653   5.216   3.315 -0.2273  0.3672  0.1493
   11MOL   C193 4413   4.568   5.275   3.199 -0.3867 -0.0313  0.6392
   11MOL   O194 4414   4.600   5.248   3.085  0.4042  0.2309  0.1755
   11MOL   O195 4415   4.466   5.360   3.236 -0.3830 -0.2127  0.1085
   11MOL   C196 4416   4.350   5.384   3.144 -0.2083 -0.8694 -0.0060
   11MOL   C197 4417   4.261   5.504   3.188  0.3197 -0.6089  0.0516
   11MOL   C198 4418   4.114   5.471   3.186  0.2568  0.2543  0.3990
   11MOL   C199 4419   4.022   5.582   3.237  0.0745  0.1562  0.4811
   11MOL   H200 4420   4.563   5.179   3.516  0.0358 -0.2327  0.8812
   11MOL   H201 4421   4.466   5.132   3.384  1.6209 -0.6056 -2.8824
   11MOL   H202 4422   4.737   5.155   3.280 -0.7209 -1.1802  1.6076
   11MOL   H203 4423   4.288   5.294   3.138  0.9823 -1.7635  0.7653
   11MOL   H204 4424   4.391   5.418   3.049  1.5681  1.0464  1.4029
   11MOL   H205 4425   4.292   5.548   3.283 -3.2358 -0.6944  1.3411
   11MOL   H206 4426   4.298   5.577   3.117  1.0449  1.2239  2.2503
   11MOL   H207 4427   4.099   5.379   3.242 -0.7774  0.0162 -0.2453
   11MOL   H208 4428   4.076   5.443   3.087  1.3440  0.2586 -0.0221
   11MOL   H209 4429   4.035   5.677   3.186  1.0122  0.1847  0.7657
   11MOL   H210 4430   4.038   5.606   3.342  2.5217  1.4457 -0.1419
   11MOL   H211 4431   3.919   5.546   3.228  0.8977 -1.8419 -1.3329
   11MOL   C212 4432   4.732   5.332   3.382 -0.0691 -0.4122  0.0230
   11MOL   C213 4433   4.820   5.311   3.508 -0.1482 -0.7348 -0.3486
   11MOL   C214 4434   4.949   5.227   3.478 -0.4141  0.5964  0.1166
   11MOL   O215 4435   5.064   5.281   3.484  0.3054  0.1210 -0.3280
   11MOL   O216 4436   4.924   5.100   3.437 -0.8513 -0.2346 -0.3571
   11MOL   C217 4437   5.032   4.999   3.412  0.3789 -0.3801  0.7644
   11MOL   C218 4438   5.075   4.921   3.540 -0.2436  0.4904  0.8288
   11MOL   C219 4439   5.208   4.835   3.515 -0.1422  0.7120  0.4054
   11MOL   C220 4440   5.248   4.751   3.638 -0.4212 -0.1537 -0.0743
   11MOL   H221 4441   4.656   5.399   3.423 -0.5357 -0.3670 -0.9137
   11MOL   H222 4442   4.780   5.392   3.304 -0.9632 -0.4094 -0.5337
   11MOL   H223 4443   4.758   5.260   3.582 -2.8389  1.1526 -1.2571
   11MOL   H224 4444   5.124   5.052   3.384  0.8460 -1.2739  0.5968
   11MOL   H225 4445   4.994   4.931   3.337 -2.7357  3.3888 -1.2250
   11MOL   H226 4446   5.099   4.984   3.625  1.7027  0.2882  0.4598
   11MOL   H227 4447   4.993   4.856   3.571  0.9213 -1.1827  0.4592
   11MOL   H228 4448   5.288   4.896   3.474 -0.5950  0.2361 -1.2224
   11MOL   H229 4449   5.174   4.769   3.435 -0.6585 -0.7206  1.7838
   11MOL   H230 4450   5.166   4.702   3.689 -0.6814  1.8013  1.4569
   11MOL   H231 4451   5.301   4.814   3.710  1.5874 -2.1143  0.2271
   11MOL   H232 4452   5.313   4.670   3.605 -0.5662  0.1861 -1.2384
   11MOL   C233 4453   4.856   5.446   3.587  0.2436  0.1860  0.5276
   11MOL   C234 4454   4.741   5.526   3.640  0.0350  0.6612  0.2077
   11MOL   C235 4455   4.644   5.449   3.722 -0.7504  0.3821  0.0919
   11MOL   O236 4456   4.677   5.370   3.808 -0.0700 -0.4090 -0.1725
   11MOL   O237 4457   4.520   5.457   3.680  0.0661 -0.0994 -0.4032
   11MOL   C238 4458   4.416   5.413   3.769 -0.6573  0.0132  0.4369
   11MOL   C239 4459   4.338   5.299   3.703  0.0694  0.3111 -0.8648
   11MOL   C240 4460   4.282   5.342   3.566 -0.0161  0.1157  0.1539
   11MOL   C241 4461   4.197   5.233   3.504  0.0084 -0.3976  0.4353
   11MOL   H242 4462   4.917   5.509   3.523  1.0967 -1.5366 -0.3772
   11MOL   H243 4463   4.906   5.415   3.679 -3.0659 -3.1168  1.3687
   11MOL   H244 4464   4.676   5.569   3.563  1.4328  0.6164 -1.0097
   11MOL   H245 4465   4.352   5.497   3.797  2.4694  1.9738  1.8905
   11MOL   H246 4466   4.447   5.392   3.871  1.1756 -2.0903 -0.5306
   11MOL   H247 4467   4.397   5.207   3.706  1.1816  1.0510  1.7283
   11MOL   H248 4468   4.250   5.282   3.764  0.2657 -0.2928 -0.7492
   11MOL   H249 4469   4.366   5.358   3.499 -0.5275 -0.4970 -0.6449
   11MOL   H250 4470   4.225   5.434   3.574  0.1247  0.4385 -2.2859
   11MOL   H251 4471   4.240   5.134   3.518 -0.9933 -1.0167 -0.8643
   11MOL   H252 4472   4.197   5.263   3.399  1.3132 -0.5971  0.3772
   11MOL   H253 4473   4.096   5.238   3.546 -0.8862 -2.1027 -1.4030
   11MOL   C254 4474   4.791   5.638   3.724  0.6865 -0.6588  0.0450
   11MOL   C255 4475   4.890   5.742   3.666 -0.1653 -0.2217  0.0780
   11MOL   C256 4476   4.843   5.817   3.546 -0.2660  0.4130 -0.0143
   11MOL   O257 4477   4.759   5.904   3.552  0.6252  0.0112  0.7247
   11MOL   O258 4478   4.900   5.773   3.432  0.1782 -0.1949 -0.3432
   11MOL   C259 4479   4.861   5.834   3.311  0.2645 -0.0236 -0.0755
   11MOL   C260 4480   4.746   5.770   3.247  0.0219 -0.1919  0.3397
   11MOL   C261 4481   4.688   5.870   3.139  0.0913  0.0707 -0.4337
   11MOL   C262 4482   4.557   5.834   3.076  0.6012 -0.2707  0.1638
   11MOL   H263 4483   4.833   5.602   3.818  1.6040  1.4573  0.4807
   11MOL   H264 4484   4.708   5.704   3.751 -0.7622 -2.6570  0.6203
   11MOL   H265 4485   4.978   5.688   3.632  1.7005  0.2431  3.8750
   11MOL   H266 4486   4.943   5.840   3.240  2.5645  1.1498  2.5766
   11MOL   H267 4487   4.841   5.939   3.331  0.5761  0.3989 -1.8751
   11MOL   H268 4488   4.768   5.680   3.189  1.6193  0.6877 -0.4506
   11MOL   H269 4489   4.669   5.744   3.321 -0.2474  0.9175  0.4484
   11MOL   H270 4490   4.759   5.882   3.057 -0.5006  1.5077 -0.7567
   11MOL   H271 4491   4.676   5.966   3.189  0.3334 -0.0006 -0.2347
   11MOL   H272 4492   4.478   5.836   3.152 -0.3663 -1.2341 -0.8018
   11MOL   H273 4493   4.550   5.735   3.030 -1.4739 -0.6250  1.1486
   11MOL   H274 4494   4.532   5.911   3.003  0.4277  0.1324  0.6464
   11MOL   C275 4495   4.937   5.838   3.781  0.5429  0.2671  0.1830
   11MOL   C276 4496   5.061   5.910   3.737  0.2131  0.0536  0.5237
   11MOL   C277 4497   5.031   6.064   3.710  0.1095  0.0783 -0.2719
   11MOL   O278 4498   5.048   6.107   3.598  0.8126 -0.0111  0.3425
   11MOL   O279 4499   4.980   6.139   3.813  0.1388  0.6817 -0.1741
   11MOL   C280 4500   4.913   6.264   3.788 -0.0272  0.2577 -0.4346
   11MOL   C281 4501   4.771   6.229   3.728  0.4110 -0.3161 -0.0342
   11MOL   C282 4502   4.681   6.349   3.723  0.1012  0.1028 -0.4282
   11MOL   C283 4503   4.542   6.317   3.668  0.2662 -0.3411 -0.0493
   11MOL   H284 4504   4.972   5.769   3.858 -0.0828  1.6034  1.6851
   11MOL   H285 4505   4.854   5.893   3.825 -0.2305 -0.3931 -0.4262
   11MOL   H286 4506   5.108   5.862   3.651 -1.3833 -2.0915  0.7940
   11MOL   H287 4507   4.972   6.323   3.717 -2.2036  1.9286 -0.9343
   11MOL   H288 4508   4.911   6.327   3.877  0.0153 -0.5178  0.1129
   11MOL   H289 4509   4.779   6.186   3.628  0.5902  0.5835 -0.4064
   11MOL   H290 4510   4.733   6.153   3.797 -0.8463  1.2698  1.0556
   11MOL   H291 4511   4.728   6.427   3.663 -2.4622  2.7711  0.8990
   11MOL   H292 4512   4.687   6.390   3.824 -0.5901 -0.6540 -0.0810
   11MOL   H293 4513   4.545   6.294   3.562  1.7374  0.5331 -0.2020
   11MOL   H294 4514   4.476   6.400   3.693 -0.3086 -0.4073 -1.3148
   11MOL   H295 4515   4.501   6.233   3.724  1.0637 -0.4147  0.4244
   11MOL   C296 4516   5.180   5.904   3.842 -0.1692 -0.2698  0.4072
   11MOL   C297 4517   5.224   5.766   3.904  0.5384 -0.1781 -0.3919
   11MOL   C298 4518   5.250   5.669   3.783  0.2789 -0.6677 -0.6493
   11MOL   O299 4519   5.296   5.706   3.675  0.0980 -0.3760  0.2411
   11MOL   O300 4520   5.219   5.541   3.815  0.2165 -0.3730 -0.4256
   11MOL   C301 4521   5.224   5.440   3.721 -0.4184  0.4311 -0.6653
   11MOL   C302 4522   5.359   5.360   3.725  0.6257 -0.5814  0.3105
   11MOL   C303 4523   5.355   5.241   3.631 -0.1381  0.2259 -0.3277
   11MOL   C304 4524   5.498   5.181   3.593 -0.0608  0.0485  0.0474
   11MOL   H305 4525   5.155   5.972   3.924 -0.9372 -0.9266  0.7329
   11MOL   H306 4526   5.270   5.944   3.796 -0.4327  2.4645  2.1118
   11MOL   H307 4527   5.138   5.733   3.964  1.9866 -1.4843  1.0196
   11MOL   H308 4528   5.201   5.469   3.619  0.1215  1.4036 -0.5238
   11MOL   H309 4529   5.148   5.367   3.745 -0.1156  0.1210 -0.6475
   11MOL   H310 4530   5.434   5.431   3.691  0.5282  1.7824  4.6479
   11MOL   H311 4531   5.390   5.330   3.825  1.9276  2.7466  0.9886
   11MOL   H312 4532   5.303   5.271   3.540  1.1102  1.6902 -0.5863
   11MOL   H313 4533   5.294   5.161   3.671  1.4435 -1.4772 -1.2678
   11MOL   H314 4534   5.557   5.157   3.682 -0.2399 -1.1930 -0.1552
   11MOL   H315 4535   5.554   5.259   3.541  0.3731 -0.3082 -0.0214
   11MOL   H316 4536   5.503   5.100   3.521 -0.9660  2.1813 -2.4847
   11MOL   C317 4537   5.346   5.779   3.988 -0.1566  0.3288  0.2519
   11MOL   C318 4538   5.391   5.651   4.058  0.0571  0.0644  0.1636
   11MOL   C319 4539   5.542   5.641   4.042  0.0484 -0.5720 -0.3399
   11MOL   O320 4540   5.618   5.694   4.127 -0.1832 -0.5667  0.5019
   11MOL   O321 4541   5.582   5.567   3.939  0.2008  0.2396  0.0059
   11MOL   C322 4542   5.723   5.547   3.905  0.0860  0.1771 -0.4680
   11MOL   C323 4543   5.737   5.456   3.791  0.0071  0.1033  0.0396
   11MOL   C324 4544   5.886   5.432   3.761 -0.4086  0.0624 -0.4073
   11MOL   C325 4545   5.910   5.387   3.615 -0.3951 -0.1778 -0.8450
   11MOL   H326 4546   5.342   5.870   4.049  2.4024  1.6284 -1.4497
   11MOL   H327 4547   5.428   5.809   3.923  1.3901 -3.1538  0.4736
   11MOL   H328 4548   5.350   5.566   4.004  1.1038 -0.3181 -0.0424
   11MOL   H329 4549   5.788   5.515   3.987 -0.3345  0.6412  0.0558
   11MOL   H330 4550   5.755   5.651   3.890  1.2397  0.3100  2.4708
   11MOL   H331 4551   5.686   5.364   3.820  0.8267 -0.3281  0.1288
   11MOL   H332 4552   5.676   5.491   3.708 -0.0189 -0.0781 -0.0190
   11MOL   H333 4553   5.940   5.371   3.834  1.5111 -0.9278 -2.6124
   11MOL   H334 4554   5.937   5.529   3.767  0.9395 -0.6784  0.3022
   11MOL   H335 4555   5.869   5.451   3.536  1.6448  1.3532 -0.6971
   11MOL   H336 4556   5.854   5.294   3.602 -0.3842 -0.5210  1.3728
   11MOL   H337 4557   6.013   5.365   3.590 -0.5586 -1.9415 -0.0338
   11MOL   C338 4558   5.355   5.649   4.209  0.7199 -0.0006  0.2876
   11MOL   C339 4559   5.402   5.521   4.286 -0.5056 -0.0028  0.2327
   11MOL   C340 4560   5.444   5.555   4.434  0.3520 -0.5750  0.6299
   11MOL   O341 4561   5.553   5.526   4.483  0.3339  0.5135 -0.0084
   11MOL   O342 4562   5.342   5.617   4.497  0.7065  0.7466 -0.0544
   11MOL   C343 4563   5.361   5.669   4.626 -0.0510  0.7766  0.2629
   11MOL   C344 4564   5.274   5.800   4.636  0.1402  0.3010 -0.1572
   11MOL   C345 4565   5.313   5.873   4.769 -0.7621 -0.7535 -0.5054
   11MOL   C346 4566   5.249   6.013   4.782  0.5566  0.4911  0.5879
   11MOL   H347 4567   5.249   5.661   4.233  0.6163 -0.7475  0.2229
   11MOL   H348 4568   5.393   5.743   4.247  0.3541 -0.8455  2.8702
   11MOL   H349 4569   5.489   5.483   4.232 -1.2665 -2.7302  0.8373
   11MOL   H350 4570   5.463   5.708   4.630 -0.2531  1.4026 -0.6323
   11MOL   H351 4571   5.337   5.599   4.706  0.3418 -0.3563 -0.5914
   11MOL   H352 4572   5.295   5.864   4.551  0.2162 -0.2577 -0.5650
   11MOL   H353 4573   5.168   5.772   4.639 -0.4156  2.4746  2.4353
   11MOL   H354 4574   5.421   5.877   4.784 -1.0025  0.8099  0.9454
   11MOL   H355 4575   5.261   5.814   4.844 -0.6950  1.3849  1.2971
   11MOL   H356 4576   5.143   6.015   4.757  0.6747  2.6354  0.2123
   11MOL   H357 4577   5.304   6.089   4.727 -0.3995  1.1289  0.5070
   11MOL   H358 4578   5.248   6.050   4.884  2.9254  0.9946  0.4468
   11MOL   C359 4579   5.308   5.408   4.251 -0.7177  0.6176  0.3321
   11MOL   C360 4580   5.362   5.265   4.267  0.2320  0.0620 -0.1359
   11MOL   C361 4581   5.298   5.203   4.392 -0.2215  0.4041 -0.0833
   11MOL   O362 4582   5.179   5.174   4.391 -0.0329  0.5319 -0.1328
   11MOL   O363 4583   5.379   5.199   4.498 -0.0812 -0.4594  0.1025
   11MOL   C364 4584   5.335   5.150   4.630 -0.1195 -0.0529 -0.1239
   11MOL   C365 4585   5.450   5.162   4.735  0.3659  0.1276  0.7185
   11MOL   C366 4586   5.564   5.063   4.711 -0.2794  0.3259  0.9330
   11MOL   C367 4587   5.682   5.067   4.814 -0.4556 -0.0708  0.6849
   11MOL   H368 4588   5.269   5.418   4.150 -3.6294  0.5352  1.3885
   11MOL   H369 4589   5.222   5.432   4.314 -1.9990  0.2696 -1.2623
   11MOL   H370 4590   5.470   5.265   4.285  0.1129 -0.0988  0.5893
   11MOL   H371 4591   5.320   5.043   4.613  0.6739 -0.1917  0.0103
   11MOL   H372 4592   5.237   5.183   4.662 -0.3188 -1.1840  0.4782
   11MOL   H373 4593   5.490   5.263   4.731  1.5206 -0.3746 -1.3787
   11MOL   H374 4594   5.415   5.143   4.837 -3.3575 -1.1889 -0.7285
   11MOL   H375 4595   5.602   5.065   4.609  0.0567  3.1765  1.0546
   11MOL   H376 4596   5.524   4.962   4.718 -0.7444  0.5910  2.1353
   11MOL   H377 4597   5.651   5.056   4.918  2.0977  0.5715  1.5536
   11MOL   H378 4598   5.747   5.154   4.808 -2.0948  1.0800 -0.6358
   11MOL   H379 4599   5.738   4.974   4.805 -4.0069 -2.2759  0.4642
   11MOL   C380 4600   5.326   5.176   4.144 -0.5174  0.3222 -0.0048
   11MOL   C381 4601   5.372   5.027   4.145  0.9114  0.4386  0.0204
   11MOL   C382 4602   5.312   4.961   4.020  0.4536  0.6981 -0.1391
   11MOL   O383 4603   5.302   5.019   3.912  0.9519 -0.0495 -0.0618
   11MOL   O384 4604   5.262   4.836   4.043  0.4303 -0.4698 -0.3691
   11MOL   C385 4605   5.178   4.764   3.952 -0.2780 -0.3897 -0.4816
   11MOL   C386 4606   5.092   4.674   4.042 -0.7483 -0.6066 -0.0622
   11MOL   C387 4607   5.026   4.747   4.162  0.4895  0.3494  0.0178
   11MOL   C388 4608   4.920   4.648   4.218 -0.4558  0.0049  0.4068
   11MOL   H389 4609   5.378   5.216   4.057  0.7835 -2.5755 -0.6158
   11MOL   H390 4610   5.218   5.180   4.135 -0.2875  1.2389 -2.6021
   11MOL   H391 4611   5.319   4.981   4.229  0.4723 -1.8972 -1.4969
   11MOL   H392 4612   5.248   4.704   3.895  0.4853 -0.5395  0.5834
   11MOL   H393 4613   5.118   4.827   3.887  1.4254  1.5981 -0.1733
   11MOL   H394 4614   5.025   4.631   3.968 -2.3247  1.4187  0.1440
   11MOL   H395 4615   5.151   4.592   4.084 -1.2347 -0.1555  1.5638
   11MOL   H396 4616   4.990   4.845   4.132  0.1984 -0.1267 -1.2163
   11MOL   H397 4617   5.107   4.769   4.232  1.9158  0.7129 -1.6891
   11MOL   H398 4618   4.854   4.603   4.143  0.5318  0.3589 -0.6992
   11MOL   H399 4619   4.867   4.710   4.289 -0.1549  1.3919 -0.5682
   11MOL   H400 4620   4.971   4.566   4.269 -1.1037  0.3158  1.5560
   11MOL   C401 4621   5.526   5.004   4.154  0.0884  0.6983 -0.1967
   11MOL   C402 4622   5.574   4.857   4.185 -0.4471 -0.0719  0.3186
   11MOL   C403 4623   5.544   4.828   4.328 -0.3284  0.8169 -0.4186
   11MOL   O404 4624   5.624   4.869   4.409  0.3188 -0.0356 -0.2352
   11MOL   O405 4625   5.426   4.757   4.347  0.2247 -0.3676 -0.4220
   11MOL   C406 4626   5.386   4.717   4.480  0.4699 -0.0321 -0.0082
   11MOL   C407 4627   5.457   4.586   4.515 -0.6850  0.2356 -0.0094
   11MOL   C408 4628   5.394   4.473   4.433  0.4185  0.6025 -0.8893
   11MOL   C409 4629   5.430   4.330   4.472 -0.5132 -0.3805 -0.4841
   11MOL   H410 4630   5.564   5.074   4.228  1.3870 -0.6783  0.4819
   11MOL   H411 4631   5.578   5.034   4.064 -0.3025  0.6660 -0.4320
   11MOL   H412 4632   5.682   4.849   4.171 -0.5344 -2.4123  0.6824
   11MOL   H413 4633   5.279   4.701   4.489  0.5954 -0.7538  0.2121
   11MOL   H414 4634   5.414   4.789   4.557 -1.4367 -1.1678  1.7978
   11MOL   H415 4635   5.561   4.595   4.482 -0.4210 -1.5021  0.3195
   11MOL   H416 4636   5.457   4.565   4.622  1.5740  2.0901  0.3985
   11MOL   H417 4637   5.408   4.492   4.326 -1.6747  0.8298 -1.1402
   11MOL   H418 4638   5.292   4.488   4.468  1.0622  2.0468  0.4082
   11MOL   H419 4639   5.392   4.256   4.401 -0.2921 -1.7304  0.7670
   11MOL   H420 4640   5.410   4.312   4.578  0.8129 -2.0996 -0.5069
   11MOL   H421 4641   5.538   4.325   4.480 -0.5498  0.0880  0.3388
   11MOL   H422 4642   5.528   4.782   4.121  0.4320 -1.1555  0.9297
   12MOL     C1 4643   4.868   1.383   4.940  0.3122  0.8129 -0.6819
   12MOL     C2 4644   5.000   1.438   4.996 -0.0048  0.5008  0.2576
   12MOL     C3 4645   5.120   1.364   4.927  0.1593  0.2981  0.0129
   12MOL     O4 4646   5.110   1.287   4.829  0.3210 -0.0477 -0.1684
   12MOL     O5 4647   5.230   1.397   4.996 -0.3117  0.2272 -0.0595
   12MOL     C6 4648   5.354   1.336   4.966 -0.2739  0.1187  0.1625
   12MOL     C7 4649   5.450   1.382   5.075  0.3971 -0.1368  0.2672
   12MOL     C8 4650   5.416   1.311   5.203 -0.1432 -0.0598 -0.4005
   12MOL     C9 4651   5.506   1.338   5.330 -0.4907 -0.5229  0.4079
   12MOL    H10 4652   4.864   1.274   4.933  4.5004  0.7473 -4.1495
   12MOL    H11 4653   4.777   1.412   4.993  1.0081 -1.9155  2.2082
   12MOL    H12 4654   5.017   1.415   5.101  1.4384  2.0750  0.4011
   12MOL    H13 4655   5.392   1.368   4.870 -0.4478  1.0670  0.4106
   12MOL    H14 4656   5.337   1.228   4.971 -2.9456  0.5355  0.8720
   12MOL    H15 4657   5.547   1.362   5.029 -0.4421 -0.3523 -1.4483
   12MOL    H16 4658   5.444   1.491   5.077  0.5211 -0.0034 -2.9137
   12MOL    H17 4659   5.405   1.203   5.191 -0.5626  0.0898 -1.4200
   12MOL    H18 4660   5.317   1.347   5.231  0.9293  0.9242  2.3670
   12MOL    H19 4661   5.517   1.445   5.345  1.7402 -0.5201 -0.9655
   12MOL    H20 4662   5.608   1.302   5.315 -0.3500 -0.2789  0.7713
   12MOL    H21 4663   5.468   1.297   5.424  1.3322 -0.0098  1.3895
   12MOL    H22 4664   4.855   1.430   4.843  0.0037  1.7225 -0.2084
   12MOL    C23 4665   5.012   1.592   4.986  0.1326 -0.3453 -0.4654
   12MOL    C24 4666   5.038   1.657   4.845  0.0992 -0.8028 -0.4318
   12MOL    C25 4667   4.929   1.755   4.795  0.6308 -0.1850  0.0484
   12MOL    O26 4668   4.934   1.877   4.787 -0.0934  0.4020 -0.1435
   12MOL    O27 4669   4.821   1.680   4.760  0.0215 -0.7519  0.0326
   12MOL    C28 4670   4.704   1.745   4.730 -0.2064  0.2892 -0.6541
   12MOL    C29 4671   4.680   1.768   4.578 -0.4970  0.3381 -0.4635
   12MOL    C30 4672   4.682   1.655   4.479  0.0210 -0.0018 -0.2416
   12MOL    C31 4673   4.696   1.711   4.339 -0.7883  0.5595  0.6324
   12MOL    H32 4674   5.088   1.643   5.046  0.6492 -2.1670  0.4417
   12MOL    H33 4675   4.919   1.631   5.029  0.6396  0.5183 -0.1327
   12MOL    H34 4676   5.028   1.584   4.765 -1.1334 -0.8098 -0.2824
   12MOL    H35 4677   4.699   1.837   4.788  1.2075 -0.7605  1.2002
   12MOL    H36 4678   4.632   1.667   4.754  1.4545 -1.0523  0.0617
   12MOL    H37 4679   4.590   1.828   4.567 -0.6774  0.2970  0.6873
   12MOL    H38 4680   4.772   1.819   4.550 -1.2338  0.2960 -3.0310
   12MOL    H39 4681   4.584   1.607   4.484  0.2357 -0.8477 -3.2687
   12MOL    H40 4682   4.760   1.579   4.487 -0.5799 -0.7278 -1.2175
   12MOL    H41 4683   4.608   1.772   4.322 -2.2885 -2.2584 -2.4118
   12MOL    H42 4684   4.701   1.634   4.261  0.4102 -0.2115  1.4475
   12MOL    H43 4685   4.783   1.776   4.335  1.2525 -2.1163 -0.2938
   12MOL    C44 4686   5.182   1.719   4.845  0.2899 -0.0177  0.7047
   12MOL    C45 4687   5.255   1.724   4.700 -0.2025 -0.5939  0.5004
   12MOL    C46 4688   5.308   1.586   4.655  1.1803  0.1621  0.3016
   12MOL    O47 4689   5.422   1.552   4.668  0.0450  0.5601 -0.1134
   12MOL    O48 4690   5.205   1.523   4.592  0.7225 -0.4667  0.0395
   12MOL    C49 4691   5.226   1.390   4.561  0.4616 -0.6920  0.3504
   12MOL    C50 4692   5.092   1.329   4.508 -0.8627 -0.6717  0.5015
   12MOL    C51 4693   5.020   1.393   4.393 -0.0494  0.6535  0.7559
   12MOL    C52 4694   5.106   1.406   4.264 -0.4124 -0.3276  0.1965
   12MOL    H53 4695   5.245   1.665   4.916  0.3481 -0.3825  0.3781
   12MOL    H54 4696   5.176   1.822   4.882  1.3029  0.0145  0.7870
   12MOL    H55 4697   5.348   1.779   4.701 -0.4985 -0.0608 -0.8333
   12MOL    H56 4698   5.258   1.329   4.645 -0.9935 -0.7831  0.8498
   12MOL    H57 4699   5.295   1.386   4.477  1.9680  1.0870  1.4663
   12MOL    H58 4700   5.109   1.224   4.485  0.5162 -0.4983  0.7186
   12MOL    H59 4701   5.016   1.318   4.586 -0.8769  2.5555  1.0055
   12MOL    H60 4702   4.994   1.496   4.418  1.8722  1.0974  0.9564
   12MOL    H61 4703   4.926   1.339   4.379 -0.0545  0.7829  0.3062
   12MOL    H62 4704   5.050   1.434   4.174 -0.8382 -1.8575 -0.0269
   12MOL    H63 4705   5.173   1.322   4.247  3.1501  2.1986  1.1565
   12MOL    H64 4706   5.176   1.489   4.278  0.9089 -1.0057 -2.1290
   12MOL    C65 4707   5.185   1.797   4.578 -0.4287 -0.2546 -0.2113
   12MOL    C66 4708   5.159   1.952   4.575 -0.2135  0.1469  0.4461
   12MOL    C67 4709   5.289   2.032   4.577 -0.3863 -0.0197 -0.5232
   12MOL    O68 4710   5.394   1.978   4.554 -0.4529  0.5083  0.4738
   12MOL    O69 4711   5.276   2.150   4.626 -0.4339 -0.4994  0.7592
   12MOL    C70 4712   5.389   2.241   4.619  0.2997 -0.0762 -0.1498
   12MOL    C71 4713   5.407   2.302   4.475 -0.7135  0.2981 -0.4584
   12MOL    C72 4714   5.302   2.410   4.439 -0.6308  0.6367 -0.1764
   12MOL    C73 4715   5.339   2.542   4.510  0.6543  0.5998  0.3741
   12MOL    H74 4716   5.092   1.747   4.553 -2.0266  3.2895 -1.6725
   12MOL    H75 4717   5.250   1.774   4.493 -0.1072 -0.3265  0.0497
   12MOL    H76 4718   5.102   1.983   4.663 -1.7275  0.4768 -0.6350
   12MOL    H77 4719   5.483   2.190   4.639  0.0711  0.3908  2.3074
   12MOL    H78 4720   5.350   2.311   4.693 -1.3140 -0.0161 -1.0432
   12MOL    H79 4721   5.506   2.344   4.459 -0.4711 -0.3497 -0.6740
   12MOL    H80 4722   5.410   2.226   4.397  1.3212 -0.9567  0.7807
   12MOL    H81 4723   5.200   2.378   4.462 -1.0469  2.4806  0.6752
   12MOL    H82 4724   5.311   2.409   4.330  2.9215 -2.7885  0.0746
   12MOL    H83 4725   5.272   2.548   4.595 -2.5626 -2.2729 -1.8115
   12MOL    H84 4726   5.310   2.635   4.461 -0.5867  0.4131  0.7441
   12MOL    H85 4727   5.442   2.553   4.543  0.4026  2.2165  0.6771
   12MOL    C86 4728   5.068   1.981   4.451  0.6291  0.1275 -0.8117
   12MOL    C87 4729   5.023   2.134   4.453  1.1614  0.3568 -0.5017
   12MOL    C88 4730   4.964   2.171   4.311 -0.1045  0.9551  0.2300
   12MOL    O89 4731   4.886   2.100   4.252 -0.4481 -0.0028  0.3285
   12MOL    O90 4732   5.002   2.289   4.270 -0.1370 -0.6110 -0.2008
   12MOL    C91 4733   4.941   2.348   4.155 -0.0520  0.3676 -0.2253
   12MOL    C92 4734   4.973   2.497   4.150 -0.5816 -0.2071 -0.3363
   12MOL    C93 4735   4.900   2.577   4.040 -0.0208  0.0371  0.0581
   12MOL    C94 4736   4.964   2.713   4.013  0.3318 -0.1673 -0.1862
   12MOL    H95 4737   4.986   1.910   4.458  1.1112 -0.2549  1.5638
   12MOL    H96 4738   5.119   1.965   4.356 -0.9155  0.6795 -1.7511
   12MOL    H97 4739   5.112   2.194   4.471  1.7074 -1.5303  3.7591
   12MOL    H98 4740   4.833   2.329   4.157  0.0555 -0.2044  0.5707
   12MOL    H99 4741   4.978   2.305   4.062  0.2383 -0.7506  0.4064
   12MOL   H100 4742   4.927   2.546   4.236 -1.0862  2.3850 -2.0446
   12MOL   H101 4743   5.080   2.513   4.139 -1.1602  3.1583 -1.5764
   12MOL   H102 4744   4.794   2.592   4.063 -0.3458 -0.8528 -0.8128
   12MOL   H103 4745   4.911   2.513   3.952  1.8022  0.1558  0.1855
   12MOL   H104 4746   5.059   2.679   3.973  0.0404 -0.7697 -0.3744
   12MOL   H105 4747   4.980   2.783   4.095  0.9140  0.8769 -1.1673
   12MOL   H106 4748   4.904   2.770   3.942 -0.8134 -0.1842  0.7507
   12MOL   C107 4749   4.907   2.168   4.557  0.4325  0.2135 -0.0145
   12MOL   C108 4750   4.912   2.301   4.632 -0.0738 -0.5284 -0.0121
   12MOL   C109 4751   4.844   2.423   4.572  0.5020  0.1404  0.4221
   12MOL   O110 4752   4.737   2.407   4.510 -0.4570  0.4289 -0.0635
   12MOL   O111 4753   4.916   2.540   4.606  0.3058 -0.0128  0.1704
   12MOL   C112 4754   4.855   2.654   4.570 -0.0861  1.2551 -0.4302
   12MOL   C113 4755   4.959   2.743   4.513  0.5873 -0.4474  0.1338
   12MOL   C114 4756   4.904   2.874   4.471  0.3060  0.2177  0.7055
   12MOL   C115 4757   5.012   2.968   4.415  0.7101 -0.8915 -0.0427
   12MOL   H116 4758   4.886   2.090   4.629 -0.3270  1.0247  0.6542
   12MOL   H117 4759   4.814   2.161   4.500  0.9732 -0.8353 -0.7718
   12MOL   H118 4760   5.018   2.324   4.650  0.1821 -1.3117 -0.5069
   12MOL   H119 4761   4.819   2.699   4.663  0.5949 -0.0235  0.4774
   12MOL   H120 4762   4.764   2.639   4.511 -0.3852  1.7210 -0.0950
   12MOL   H121 4763   5.042   2.755   4.582 -0.6128  0.8771  1.3871
   12MOL   H122 4764   5.000   2.686   4.430 -2.3764  0.8661 -2.3505
   12MOL   H123 4765   4.857   2.930   4.552 -2.0279  0.2882 -0.6612
   12MOL   H124 4766   4.827   2.864   4.395  2.1274 -1.6186 -0.9359
   12MOL   H125 4767   5.096   2.970   4.484 -1.2476 -1.4433  2.4480
   12MOL   H126 4768   4.991   3.073   4.398  1.5835 -0.2895  2.4726
   12MOL   H127 4769   5.041   2.943   4.313  0.3658  1.3763 -0.7015
   12MOL   C128 4770   4.867   2.288   4.782 -0.5419  0.0873 -0.8058
   12MOL   C129 4771   4.966   2.227   4.877  1.0951  0.6767 -0.3642
   12MOL   C130 4772   5.081   2.326   4.912 -0.4077 -0.2611 -1.4794
   12MOL   O131 4773   5.200   2.308   4.879 -0.2741  0.4129  0.2174
   12MOL   O132 4774   5.034   2.428   4.983  0.1759 -0.5207 -0.3552
   12MOL   C133 4775   5.122   2.537   5.015 -0.1016 -0.1518  0.2400
   12MOL   C134 4776   5.032   2.663   5.047 -0.8636 -0.4764  0.0291
   12MOL   C135 4777   5.117   2.770   5.116  0.6449  0.1300 -0.5954
   12MOL   C136 4778   5.044   2.888   5.164  0.3543 -1.1263  0.3967
   12MOL   H137 4779   4.782   2.222   4.800  0.7224 -1.0449  1.2890
   12MOL   H138 4780   4.834   2.384   4.823 -0.2324  0.2393 -0.9055
   12MOL   H139 4781   5.016   2.149   4.820  0.2495  0.3721 -0.6924
   12MOL   H140 4782   5.196   2.553   4.937 -1.4581 -1.4840 -1.3807
   12MOL   H141 4783   5.174   2.506   5.105  1.7751  0.4396 -0.6119
   12MOL   H142 4784   4.980   2.705   4.961 -0.2858 -0.4724 -0.3237
   12MOL   H143 4785   4.960   2.632   5.123 -1.8055  0.7319 -0.3626
   12MOL   H144 4786   5.192   2.798   5.043  3.0039 -1.6120  1.0792
   12MOL   H145 4787   5.171   2.725   5.200  0.6834  1.1812 -0.0521
   12MOL   H146 4788   5.104   2.955   5.225  0.8213 -1.7542  0.6325
   12MOL   H147 4789   4.961   2.845   5.219 -0.2436 -0.5692 -0.0668
   12MOL   H148 4790   5.018   2.943   5.074 -0.2828 -1.2612  0.4958
   12MOL   C149 4791   4.898   2.161   5.003  0.4437 -0.1519  0.4334
   12MOL   C150 4792   4.991   2.111   5.121 -0.0794 -0.5138  0.2077
   12MOL   C151 4793   4.908   2.067   5.242 -0.0811 -0.5643 -0.8267
   12MOL   O152 4794   4.874   2.139   5.332  0.0231 -0.7155  0.8038
   12MOL   O153 4795   4.865   1.944   5.228  0.5703  0.7045 -0.1767
   12MOL   C154 4796   4.779   1.896   5.326  0.4811 -0.1032  0.3416
   12MOL   C155 4797   4.701   1.770   5.280 -0.6645 -0.6092  0.0220
   12MOL   C156 4798   4.635   1.792   5.142 -0.4163  0.4974 -0.7090
   12MOL   C157 4799   4.517   1.699   5.119  0.7424 -0.0527 -0.1390
   12MOL   H158 4800   4.827   2.081   4.983  1.8079 -1.2274 -0.1551
   12MOL   H159 4801   4.838   2.244   5.043 -1.1840  0.2557 -2.7020
   12MOL   H160 4802   5.025   2.207   5.160  0.0395 -1.3440  2.2424
   12MOL   H161 4803   4.703   1.968   5.358  0.8979 -0.7537  2.9754
   12MOL   H162 4804   4.839   1.858   5.409  0.2470 -1.2047  0.0163
   12MOL   H163 4805   4.762   1.680   5.283 -1.2552 -1.0738 -1.4140
   12MOL   H164 4806   4.626   1.751   5.358 -0.3372 -0.4533  0.3773
   12MOL   H165 4807   4.699   1.792   5.053 -0.1423 -0.2587 -0.5163
   12MOL   H166 4808   4.608   1.898   5.134  0.4045  0.6142 -2.2597
   12MOL   H167 4809   4.467   1.701   5.216 -2.5316 -3.4509 -1.6452
   12MOL   H168 4810   4.553   1.600   5.092  0.6890  0.0245 -0.4968
   12MOL   H169 4811   4.442   1.730   5.046  0.5780  1.7410  0.7459
   12MOL   C170 4812   5.105   2.014   5.078 -0.7997  0.2185 -0.0390
   12MOL   C171 4813   5.215   1.998   5.185  0.6449 -0.8850  0.3806
   12MOL   C172 4814   5.178   1.893   5.294  0.8410 -0.6742  0.7694
   12MOL   O173 4815   5.177   1.922   5.412 -0.1885 -0.1018  0.2182
   12MOL   O174 4816   5.131   1.771   5.247  0.8708 -0.6511 -0.4385
   12MOL   C175 4817   5.087   1.668   5.334 -0.2561 -0.3773 -0.2253
   12MOL   C176 4818   5.209   1.605   5.403 -0.6195  0.4756 -0.1257
   12MOL   C177 4819   5.161   1.497   5.506  0.0488 -0.1774 -0.5256
   12MOL   C178 4820   5.075   1.550   5.621  0.0281  0.4875 -0.4398
   12MOL   H179 4821   5.149   2.043   4.983 -1.4014 -1.8296 -0.9755
   12MOL   H180 4822   5.051   1.921   5.058 -0.4224 -0.0268  0.0697
   12MOL   H181 4823   5.233   2.094   5.234 -0.4520  0.5070 -1.8126
   12MOL   H182 4824   5.025   1.595   5.282 -1.4153  0.1521  0.3792
   12MOL   H183 4825   5.032   1.713   5.417 -0.0589 -1.4773  0.5160
   12MOL   H184 4826   5.269   1.559   5.324 -2.3715 -2.2037  0.0564
   12MOL   H185 4827   5.273   1.685   5.441  0.5022 -0.2750 -0.4251
   12MOL   H186 4828   5.248   1.447   5.551 -0.0910 -0.9502 -1.1066
   12MOL   H187 4829   5.099   1.420   5.461 -0.4888 -0.1890  0.2147
   12MOL   H188 4830   5.111   1.644   5.663 -1.0806  0.4563  0.5813
   12MOL   H189 4831   5.068   1.482   5.706  1.8018 -0.0790 -0.7097
   12MOL   H190 4832   4.976   1.582   5.591  0.4419  2.8220  0.5893
   12MOL   C191 4833   5.351   1.971   5.112  0.0133 -0.2171 -0.5934
   12MOL   C192 4834   5.479   1.979   5.207 -0.2831  0.7096  0.0904
   12MOL   C193 4835   5.585   1.913   5.130  0.0999  0.1166 -0.2958
   12MOL   O194 4836   5.687   1.973   5.090  0.3494 -0.0815 -0.0143
   12MOL   O195 4837   5.564   1.772   5.118 -0.7013  0.5600 -0.2754
   12MOL   C196 4838   5.659   1.700   5.040  0.1655  0.2685 -0.2545
   12MOL   C197 4839   5.639   1.705   4.888  0.4418  0.7572 -0.7838
   12MOL   C198 4840   5.668   1.833   4.818 -0.2952 -0.4576  0.0694
   12MOL   C199 4841   5.657   1.822   4.666  0.1066 -0.3456  0.2686
   12MOL   H200 4842   5.359   2.056   5.045  2.7620  0.3840  0.4332
   12MOL   H201 4843   5.342   1.883   5.049  1.0048 -0.0704 -0.9611
   12MOL   H202 4844   5.471   1.910   5.291  0.3098  0.3349 -0.1516
   12MOL   H203 4845   5.658   1.597   5.078  1.2697  0.1814 -0.4293
   12MOL   H204 4846   5.757   1.743   5.062 -0.4403  1.7532 -0.4478
   12MOL   H205 4847   5.715   1.641   4.843  0.1043  0.5933 -1.1185
   12MOL   H206 4848   5.540   1.669   4.863  0.1242  3.4687 -3.8149
   12MOL   H207 4849   5.765   1.876   4.843  0.8834 -3.0364  0.1343
   12MOL   H208 4850   5.588   1.905   4.832 -0.8708 -0.9659 -0.5554
   12MOL   H209 4851   5.736   1.765   4.617 -0.4014  0.5328 -1.6431
   12MOL   H210 4852   5.666   1.925   4.631  3.9180 -0.5492  0.3785
   12MOL   H211 4853   5.557   1.794   4.634 -0.7822  0.6965  2.0562
   12MOL   C212 4854   5.515   2.125   5.258 -0.0648 -0.6480 -0.5529
   12MOL   C213 4855   5.509   2.152   5.405  0.1628  0.1892  0.1556
   12MOL   C214 4856   5.620   2.066   5.473  0.2732 -0.5472 -0.0627
   12MOL   O215 4857   5.726   2.112   5.500  0.2702  0.2342  0.0234
   12MOL   O216 4858   5.583   1.942   5.492 -0.1067 -0.0542 -0.4535
   12MOL   C217 4859   5.674   1.843   5.540 -0.3956 -0.3915 -0.4592
   12MOL   C218 4860   5.600   1.713   5.550  0.7804 -0.3054 -0.1997
   12MOL   C219 4861   5.473   1.722   5.632  0.4121  0.2110  0.3779
   12MOL   C220 4862   5.494   1.712   5.785 -0.1480 -0.4161  0.0382
   12MOL   H221 4863   5.445   2.196   5.215  2.0699  1.5531 -0.5175
   12MOL   H222 4864   5.614   2.156   5.226  0.5191 -0.5004  1.3001
   12MOL   H223 4865   5.414   2.112   5.440 -0.4751  2.1450  0.6817
   12MOL   H224 4866   5.723   1.864   5.634 -0.8926  2.9026 -0.8920
   12MOL   H225 4867   5.750   1.843   5.462  0.9369  1.0901  0.8105
   12MOL   H226 4868   5.561   1.679   5.454  2.0126 -1.5645 -0.2820
   12MOL   H227 4869   5.666   1.635   5.589  0.6675  0.8627  2.4051
   12MOL   H228 4870   5.409   1.638   5.607 -1.2375  0.8505  2.3551
   12MOL   H229 4871   5.425   1.815   5.602  0.2470  0.4053  1.2331
   12MOL   H230 4872   5.572   1.642   5.816  1.4874  1.4487  0.2474
   12MOL   H231 4873   5.402   1.697   5.842  0.8337 -1.6833  1.3325
   12MOL   H232 4874   5.533   1.805   5.826  2.4041 -0.2672 -2.5035
   12MOL   C233 4875   5.531   2.302   5.441 -0.1463 -0.1137 -0.0405
   12MOL   C234 4876   5.424   2.401   5.380  0.4388 -0.1437  0.3068
   12MOL   C235 4877   5.281   2.363   5.419  0.1196 -0.1931  0.4582
   12MOL   O236 4878   5.189   2.368   5.333  0.0945  0.8058 -0.3827
   12MOL   O237 4879   5.269   2.328   5.550 -0.2327 -0.0340 -0.5278
   12MOL   C238 4880   5.148   2.258   5.597 -0.2852 -0.1079 -0.0101
   12MOL   C239 4881   5.179   2.180   5.729 -0.5465 -0.3342 -0.2742
   12MOL   C240 4882   5.302   2.094   5.715 -0.0770 -0.2305  0.2019
   12MOL   C241 4883   5.350   2.048   5.855  0.4261  0.0441  0.6046
   12MOL   H242 4884   5.627   2.326   5.395 -0.1303  3.0898  1.5309
   12MOL   H243 4885   5.556   2.314   5.547  2.0333 -0.9373 -0.4323
   12MOL   H244 4886   5.418   2.391   5.272 -0.5013 -1.1676  0.4435
   12MOL   H245 4887   5.110   2.189   5.521  0.2850  0.5896 -0.9486
   12MOL   H246 4888   5.072   2.335   5.607 -2.4033 -1.8573 -2.1856
   12MOL   H247 4889   5.199   2.251   5.810 -0.8609 -1.5502  0.8871
   12MOL   H248 4890   5.094   2.119   5.759  1.2912 -1.8582  1.9933
   12MOL   H249 4891   5.381   2.155   5.671  0.6567 -0.0194  1.7743
   12MOL   H250 4892   5.285   2.008   5.650 -0.9197 -1.4277  1.9719
   12MOL   H251 4893   5.285   1.972   5.899  0.9596 -2.0078 -2.0115
   12MOL   H252 4894   5.374   2.128   5.925 -0.7692  0.8346  0.1320
   12MOL   H253 4895   5.445   1.997   5.844  0.6022  0.3874  0.5189
   12MOL   C254 4896   5.453   2.544   5.440  0.7111 -0.7797  0.6508
   12MOL   C255 4897   5.558   2.613   5.362 -0.3787 -0.7626  0.1668
   12MOL   C256 4898   5.505   2.658   5.219  0.0591  0.4112 -0.2857
   12MOL   O257 4899   5.448   2.764   5.190 -0.2260 -0.3677  0.0375
   12MOL   O258 4900   5.539   2.567   5.129  0.0355 -0.1894  0.0719
   12MOL   C259 4901   5.505   2.580   4.992 -0.3898 -0.4951 -0.2080
   12MOL   C260 4902   5.545   2.465   4.896  1.2976  0.6667 -0.1480
   12MOL   C261 4903   5.683   2.494   4.835  0.3913 -0.0072 -1.5007
   12MOL   C262 4904   5.709   2.410   4.714 -0.4609 -0.0705 -0.5745
   12MOL   H263 4905   5.496   2.548   5.540  2.2090 -1.6695  0.0442
   12MOL   H264 4906   5.356   2.594   5.450  2.0644  1.4847  3.2434
   12MOL   H265 4907   5.640   2.542   5.346  1.2186  0.3053  3.2091
   12MOL   H266 4908   5.538   2.678   4.956  0.6337 -0.5196  0.6631
   12MOL   H267 4909   5.397   2.593   4.983 -0.0472  1.2178 -2.2572
   12MOL   H268 4910   5.542   2.369   4.947  0.7934 -0.4079 -2.1339
   12MOL   H269 4911   5.461   2.450   4.829  1.7192 -2.1970 -0.1035
   12MOL   H270 4912   5.762   2.473   4.907 -0.9013 -0.9043 -0.3248
   12MOL   H271 4913   5.694   2.600   4.811 -2.1048  0.4620 -0.7056
   12MOL   H272 4914   5.803   2.444   4.670  0.3130 -0.2184  0.9290
   12MOL   H273 4915   5.644   2.416   4.627  0.7770 -0.7647 -1.5741
   12MOL   H274 4916   5.728   2.306   4.741  0.4466  0.0285 -0.8091
   12MOL   C275 4917   5.618   2.739   5.436 -0.5537  0.8958  0.7504
   12MOL   C276 4918   5.712   2.722   5.559  0.1821 -0.3878  0.0364
   12MOL   C277 4919   5.806   2.598   5.550  0.0356 -0.1104  0.4383
   12MOL   O278 4920   5.782   2.499   5.620  0.3676 -0.1901  0.4721
   12MOL   O279 4921   5.905   2.608   5.461 -0.3564  0.2653 -0.6603
   12MOL   C280 4922   6.005   2.500   5.470  0.7210 -0.2276  0.0480
   12MOL   C281 4923   5.981   2.371   5.384 -0.2124  0.4185  0.4306
   12MOL   C282 4924   5.979   2.385   5.235 -0.1587  0.5385 -0.3571
   12MOL   C283 4925   5.975   2.259   5.154  0.2114  0.0579 -0.0363
   12MOL   H284 4926   5.538   2.809   5.458 -0.2365  1.2665  0.7313
   12MOL   H285 4927   5.670   2.792   5.356 -0.1810  0.6795  0.8503
   12MOL   H286 4928   5.654   2.715   5.651  1.1208 -1.0034  0.5807
   12MOL   H287 4929   6.017   2.464   5.572  1.2223  0.0434  0.0861
   12MOL   H288 4930   6.100   2.540   5.434  0.1166  0.8187 -0.4055
   12MOL   H289 4931   6.059   2.303   5.419  1.1711  2.4160  1.2647
   12MOL   H290 4932   5.886   2.335   5.425  0.2235  0.4691  1.5103
   12MOL   H291 4933   6.056   2.454   5.200 -0.5904  1.3676  0.2949
   12MOL   H292 4934   5.879   2.429   5.226  0.3752  1.7291 -0.5909
   12MOL   H293 4935   6.051   2.186   5.180  1.3237 -0.0583 -3.3656
   12MOL   H294 4936   5.973   2.285   5.048  0.5375 -0.1472 -0.0940
   12MOL   H295 4937   5.890   2.195   5.176  0.3746  0.0832  0.6746
   12MOL   C296 4938   5.813   2.835   5.587 -0.9379 -0.5202  0.5783
   12MOL   C297 4939   5.737   2.967   5.615  0.7478 -0.2517  0.1686
   12MOL   C298 4940   5.670   2.961   5.750 -0.6143 -0.5012  0.1329
   12MOL   O299 4941   5.544   2.958   5.750  0.0483 -0.3887 -0.4398
   12MOL   O300 4942   5.756   2.948   5.848 -0.4695 -0.0051  0.1646
   12MOL   C301 4943   5.703   2.922   5.982 -0.1075  0.1848 -0.0210
   12MOL   C302 4944   5.816   2.919   6.080 -1.0493 -0.5656  0.5309
   12MOL   C303 4945   5.907   2.793   6.052 -0.0669  0.6120  0.1053
   12MOL   C304 4946   5.999   2.765   6.176  0.2223 -0.5747  0.0081
   12MOL   H305 4947   5.876   2.844   5.498  1.9456  0.3759  2.6280
   12MOL   H306 4948   5.887   2.814   5.664  0.0078  0.4996 -0.0300
   12MOL   H307 4949   5.657   2.971   5.541  0.1564 -1.0076  0.7652
   12MOL   H308 4950   5.664   2.821   5.996  1.8209 -0.6322 -0.2610
   12MOL   H309 4951   5.626   2.997   5.998  1.9218  2.5057 -0.7487
   12MOL   H310 4952   5.870   3.014   6.079  0.2609 -1.3177 -0.9918
   12MOL   H311 4953   5.775   2.920   6.181 -2.4837 -0.2351 -0.0386
   12MOL   H312 4954   5.956   2.807   5.955  0.0744 -0.9502 -0.0599
   12MOL   H313 4955   5.844   2.705   6.045 -0.8141  1.1494  0.0972
   12MOL   H314 4956   6.063   2.678   6.165  3.0550  1.6854 -2.1100
   12MOL   H315 4957   5.950   2.743   6.271 -1.2405 -1.0969 -0.8556
   12MOL   H316 4958   6.063   2.853   6.189  0.2409 -0.3146 -1.7890
   12MOL   C317 4959   5.829   3.092   5.584 -0.5469  0.1524 -0.6927
   12MOL   C318 4960   5.830   3.128   5.428 -0.1201  0.3572  0.2339
   12MOL   C319 4961   5.692   3.132   5.354 -0.2317  0.9650 -0.6052
   12MOL   O320 4962   5.681   3.079   5.245 -0.6568  0.6255  0.4089
   12MOL   O321 4963   5.592   3.198   5.419  0.6075  0.0415 -0.3158
   12MOL   C322 4964   5.466   3.213   5.365  0.3044  0.3201 -0.2140
   12MOL   C323 4965   5.412   3.328   5.450  0.0685 -0.2161  0.0546
   12MOL   C324 4966   5.460   3.466   5.402  0.3108  0.3209  0.3027
   12MOL   C325 4967   5.376   3.583   5.450 -0.0135  0.0579 -0.4172
   12MOL   H326 4968   5.927   3.084   5.631 -0.1452 -0.9724 -1.6894
   12MOL   H327 4969   5.773   3.166   5.640  1.3507 -1.2683  3.3011
   12MOL   H328 4970   5.890   3.050   5.381  2.8808  2.4180  0.5293
   12MOL   H329 4971   5.408   3.127   5.399 -0.7348  0.4314 -1.6650
   12MOL   H330 4972   5.457   3.231   5.258  0.9739  1.2259 -0.1198
   12MOL   H331 4973   5.307   3.320   5.425 -0.0233 -2.1321  0.9460
   12MOL   H332 4974   5.444   3.317   5.554 -0.8529  0.2765  0.3914
   12MOL   H333 4975   5.457   3.472   5.293  0.1556 -1.1432  0.2149
   12MOL   H334 4976   5.564   3.473   5.433 -0.2953 -0.5032  2.6147
   12MOL   H335 4977   5.436   3.667   5.416 -0.0397  0.6787  1.0273
   12MOL   H336 4978   5.371   3.580   5.559  0.5117 -1.9613 -0.4164
   12MOL   H337 4979   5.274   3.588   5.412 -0.2888  2.4232  0.5256
   12MOL   C338 4980   5.905   3.256   5.416  0.2177  0.2187 -0.2255
   12MOL   C339 4981   6.001   3.283   5.301 -0.4221 -0.6996  0.5122
   12MOL   C340 4982   6.115   3.186   5.301  0.8882  0.8247  0.4858
   12MOL   O341 4983   6.226   3.230   5.326  0.4894  0.1891 -0.1678
   12MOL   O342 4984   6.085   3.060   5.260  0.5581  0.0739 -0.3719
   12MOL   C343 4985   6.191   2.961   5.247  0.2788  0.2523  0.0068
   12MOL   C344 4986   6.256   2.974   5.111  0.4897  0.2872  0.3328
   12MOL   C345 4987   6.370   2.874   5.098  0.2403 -0.4451  0.9703
   12MOL   C346 4988   6.422   2.831   4.961 -0.6642  0.7625  0.1301
   12MOL   H347 4989   5.976   3.257   5.499 -0.7184 -1.9504  0.6562
   12MOL   H348 4990   5.833   3.338   5.425  0.2037  0.1107  0.7513
   12MOL   H349 4991   6.056   3.374   5.326 -0.5088 -0.7519  0.8854
   12MOL   H350 4992   6.153   2.862   5.271 -2.6972  1.4127  0.3221
   12MOL   H351 4993   6.259   2.992   5.327 -1.0640  0.0317  1.2437
   12MOL   H352 4994   6.179   2.963   5.035 -1.7569  1.5910  2.3190
   12MOL   H353 4995   6.288   3.078   5.097 -2.2710  1.2250  0.7049
   12MOL   H354 4996   6.334   2.781   5.141  0.6346 -1.5786 -1.0741
   12MOL   H355 4997   6.461   2.904   5.149  1.1737 -1.8602  0.1807
   12MOL   H356 4998   6.494   2.751   4.973 -0.3848  1.0526  0.3964
   12MOL   H357 4999   6.477   2.919   4.928  0.8841  0.2754  1.3328
   12MOL   H358 5000   6.341   2.799   4.896 -1.5626  0.4086  1.3971
   12MOL   C359 5001   5.935   3.284   5.157 -0.2336 -1.0352 -0.0053
   12MOL   C360 5002   5.822   3.386   5.134 -0.6728 -0.2035 -0.1224
   12MOL   C361 5003   5.870   3.527   5.119 -0.5298 -0.4612  0.3179
   12MOL   O362 5004   5.989   3.551   5.080 -0.6320  0.4497  0.4772
   12MOL   O363 5005   5.776   3.617   5.139 -0.5273  0.2242 -0.0184
   12MOL   C364 5006   5.823   3.753   5.155  0.3262 -0.3603 -0.4632
   12MOL   C365 5007   5.852   3.784   5.297 -0.4480  0.4957 -0.2944
   12MOL   C366 5008   5.729   3.772   5.385  0.1674 -0.5372  0.2018
   12MOL   C367 5009   5.755   3.815   5.532 -0.5530 -0.4728 -0.1978
   12MOL   H368 5010   5.888   3.186   5.148 -1.4264 -0.3757 -1.0016
   12MOL   H369 5011   6.017   3.298   5.086 -0.3243  1.2469  0.3084
   12MOL   H370 5012   5.771   3.379   5.230 -0.2558 -1.7305 -0.0118
   12MOL   H371 5013   5.744   3.822   5.129  1.2512  0.4850 -1.0629
   12MOL   H372 5014   5.912   3.774   5.095  0.3629 -1.2575 -0.7383
   12MOL   H373 5015   5.940   3.725   5.322 -0.4730  0.7683  0.4328
   12MOL   H374 5016   5.888   3.886   5.309 -2.4962  1.2983 -0.7287
   12MOL   H375 5017   5.702   3.666   5.386 -1.4792 -0.1724 -1.8148
   12MOL   H376 5018   5.643   3.817   5.337  0.9213  1.3825  0.6240
   12MOL   H377 5019   5.757   3.924   5.535  1.8545 -0.4026 -2.6179
   12MOL   H378 5020   5.849   3.781   5.577 -1.8484 -1.6816  1.7092
   12MOL   H379 5021   5.676   3.778   5.598  0.2307  1.6523  1.9888
   12MOL   C380 5022   5.713   3.348   5.024  0.2281 -0.4648  0.4660
   12MOL   C381 5023   5.763   3.339   4.879 -0.5767 -0.4030 -0.3635
   12MOL   C382 5024   5.813   3.198   4.850  0.1434 -0.9469 -0.3198
   12MOL   O383 5025   5.932   3.187   4.817  0.4296  0.0192  0.4248
   12MOL   O384 5026   5.726   3.098   4.860 -0.3416 -0.0529  0.2040
   12MOL   C385 5027   5.769   2.964   4.854  0.0296  0.6120  0.2931
   12MOL   C386 5028   5.793   2.899   4.994  0.4924  0.0294 -0.3963
   12MOL   C387 5029   5.899   2.785   4.996 -0.0477  0.7049 -0.4172
   12MOL   C388 5030   5.932   2.718   5.132  0.5067  0.2908  0.0754
   12MOL   H389 5031   5.625   3.406   5.050  0.1735 -0.6670  0.7267
   12MOL   H390 5032   5.668   3.255   5.059 -2.0315  0.4146 -0.0257
   12MOL   H391 5033   5.839   3.414   4.859 -0.3921 -1.2971 -3.1988
   12MOL   H392 5034   5.854   2.963   4.786  1.0494  1.4811  1.5222
   12MOL   H393 5035   5.692   2.903   4.807  0.1153  0.1170  0.7838
   12MOL   H394 5036   5.834   2.981   5.053  1.4802  0.1089 -1.1806
   12MOL   H395 5037   5.704   2.859   5.041  1.3389  0.3945  1.5591
   12MOL   H396 5038   5.994   2.826   4.963  0.7148 -0.2737  0.4940
   12MOL   H397 5039   5.879   2.713   4.917  2.1634 -0.8433  0.3777
   12MOL   H398 5040   6.016   2.649   5.119 -0.5342 -0.9762 -0.0045
   12MOL   H399 5041   5.836   2.679   5.163 -0.3521  1.6486 -0.8282
   12MOL   H400 5042   5.944   2.786   5.216 -1.9997  0.7096  0.1224
   12MOL   C401 5043   5.645   3.389   4.790 -0.3985 -0.0869 -1.2844
   12MOL   C402 5044   5.664   3.390   4.636 -0.1303 -0.5056 -0.0262
   12MOL   C403 5045   5.532   3.431   4.569  0.5714 -0.2988  0.1097
   12MOL   O404 5046   5.420   3.401   4.614 -0.4994  0.2481 -0.5219
   12MOL   O405 5047   5.555   3.495   4.457  0.1185 -0.0533  0.6134
   12MOL   C406 5048   5.455   3.556   4.368 -0.3454 -0.6772 -0.3272
   12MOL   C407 5049   5.416   3.695   4.437 -0.2061  0.1509  0.8801
   12MOL   C408 5050   5.296   3.766   4.366 -0.5673 -0.2852  0.0497
   12MOL   C409 5051   5.262   3.903   4.413 -0.2957 -0.3651 -0.0314
   12MOL   H410 5052   5.613   3.488   4.822 -1.3209  0.1498 -2.8657
   12MOL   H411 5053   5.555   3.332   4.812  0.8302 -0.6444  2.5654
   12MOL   H412 5054   5.694   3.289   4.612  3.0721  0.4704 -0.3879
   12MOL   H413 5055   5.361   3.502   4.362  0.6301 -2.2826 -1.5718
   12MOL   H414 5056   5.498   3.569   4.269  1.8376  0.9593  0.7878
   12MOL   H415 5057   5.397   3.690   4.545 -0.3838 -0.7113  0.8131
   12MOL   H416 5058   5.504   3.759   4.430 -0.2505  0.1441  0.2631
   12MOL   H417 5059   5.205   3.708   4.385 -0.9805 -0.0629 -1.1789
   12MOL   H418 5060   5.314   3.766   4.258  0.4058  2.5802  0.1638
   12MOL   H419 5061   5.171   3.945   4.368 -1.6463 -1.2925  1.7686
   12MOL   H420 5062   5.334   3.979   4.383 -0.4771 -0.0454  0.3353
   12MOL   H421 5063   5.244   3.915   4.520  0.5282  0.3830  0.0225
   12MOL   H422 5064   5.751   3.450   4.608 -0.4336 -0.5722 -1.1470
   13MOL     C1 5065   1.408   0.265   5.463 -0.8056  0.1675 -0.6474
   13MOL     C2 5066   1.294   0.333   5.383  0.0278 -0.3528 -0.0396
   13MOL     C3 5067   1.329   0.483   5.364 -0.1819  0.5590 -0.5699
   13MOL     O4 5068   1.317   0.559   5.464  0.6913 -0.1718 -0.4622
   13MOL     O5 5069   1.378   0.519   5.240  0.2325 -0.4735 -0.0030
   13MOL     C6 5070   1.396   0.659   5.213  0.9920  0.0362 -0.4145
   13MOL     C7 5071   1.286   0.715   5.121 -0.2891  0.0015 -0.7593
   13MOL     C8 5072   1.155   0.714   5.182  0.3540 -0.1484  0.1048
   13MOL     C9 5073   1.059   0.790   5.103 -0.3121  0.4272  0.6854
   13MOL    H10 5074   1.505   0.277   5.416 -0.8953 -0.7035 -1.0718
   13MOL    H11 5075   1.422   0.302   5.565  2.8080 -1.0883 -0.6222
   13MOL    H12 5076   1.199   0.319   5.435 -0.4532  0.6050 -0.6603
   13MOL    H13 5077   1.489   0.670   5.159  1.0916 -0.0937 -0.2689
   13MOL    H14 5078   1.400   0.723   5.301 -1.1350 -1.2446  0.6702
   13MOL    H15 5079   1.311   0.816   5.089  0.9562 -0.0194  0.1129
   13MOL    H16 5080   1.276   0.647   5.036 -1.8342 -0.1799 -0.4363
   13MOL    H17 5081   1.161   0.768   5.276  0.5757 -0.2390  0.1410
   13MOL    H18 5082   1.109   0.615   5.184  2.0495 -0.9627 -0.4778
   13MOL    H19 5083   0.969   0.747   5.149 -0.6201  0.2588 -0.0602
   13MOL    H20 5084   1.058   0.760   4.998  0.6711  0.3888  0.6865
   13MOL    H21 5085   1.076   0.897   5.112 -0.6165  0.6078 -0.7996
   13MOL    H22 5086   1.402   0.156   5.467  3.0063 -0.0460  1.7094
   13MOL    C23 5087   1.283   0.260   5.249  0.4960 -0.0944  0.2773
   13MOL    C24 5088   1.160   0.296   5.165 -0.4306  0.0589 -0.0242
   13MOL    C25 5089   1.189   0.290   5.015 -0.1701  0.3273 -0.1900
   13MOL    O26 5090   1.249   0.197   4.969  0.1828  0.6338  0.6186
   13MOL    O27 5091   1.136   0.389   4.951  0.3919 -0.0946  0.9333
   13MOL    C28 5092   1.160   0.400   4.815  0.2372  0.5045  0.3754
   13MOL    C29 5093   1.134   0.544   4.768 -0.1227 -0.7362  0.1501
   13MOL    C30 5094   0.986   0.590   4.781  0.7658  0.0935 -0.1786
   13MOL    C31 5095   0.948   0.731   4.735 -0.7260 -1.3379  0.0321
   13MOL    H32 5096   1.278   0.155   5.277  0.3398  0.1386  1.1479
   13MOL    H33 5097   1.382   0.267   5.205  0.9142 -1.8495  0.9036
   13MOL    H34 5098   1.130   0.399   5.187  0.7866  1.1248 -3.0031
   13MOL    H35 5099   1.102   0.338   4.747  1.8520  0.7966 -1.3302
   13MOL    H36 5100   1.267   0.382   4.799  0.7152  3.4629 -0.0099
   13MOL    H37 5101   1.194   0.621   4.817 -1.9895  0.3712  0.7405
   13MOL    H38 5102   1.172   0.537   4.666  1.1503  1.7635  0.4216
   13MOL    H39 5103   0.961   0.574   4.885 -1.3354 -0.1963 -0.7082
   13MOL    H40 5104   0.934   0.518   4.718  0.6162 -0.0793  0.1432
   13MOL    H41 5105   0.842   0.754   4.745 -0.7585 -1.5775  0.2311
   13MOL    H42 5106   0.970   0.723   4.628  0.5653 -0.4091  0.2102
   13MOL    H43 5107   1.006   0.814   4.775 -1.4903 -0.0667 -1.4244
   13MOL    C44 5108   1.038   0.203   5.193 -0.0400  0.3425 -0.0531
   13MOL    C45 5109   0.905   0.242   5.137 -0.5647  0.0410 -0.0265
   13MOL    C46 5110   0.808   0.123   5.129  0.4042 -1.2171  0.3907
   13MOL    O47 5111   0.809   0.023   5.200  0.2567 -0.5121  0.3558
   13MOL    O48 5112   0.742   0.130   5.008 -0.4742 -0.3807 -0.3530
   13MOL    C49 5113   0.671   0.016   4.966 -0.2544  0.3412 -0.1977
   13MOL    C50 5114   0.773   7.807   4.864  0.1289 -0.0319 -0.3049
   13MOL    C51 5115   0.691   7.718   4.766  0.2262  0.4641 -0.5893
   13MOL    C52 5116   0.775   7.659   4.658 -0.2726 -0.2901 -0.6192
   13MOL    H53 5117   1.027   0.197   5.302  2.4469 -2.4759  0.1162
   13MOL    H54 5118   1.054   0.097   5.171 -0.3997 -0.2419  2.3447
   13MOL    H55 5119   0.918   0.280   5.035 -0.7456 -0.5279 -0.2667
   13MOL    H56 5120   0.586   0.057   4.911 -1.2322 -1.6971 -0.2489
   13MOL    H57 5121   0.639   7.806   5.049  2.1265  2.2202  2.2685
   13MOL    H58 5122   0.830   0.029   4.810  1.0580 -0.5180 -0.0064
   13MOL    H59 5123   0.843   7.739   4.912 -0.0716  0.2668  0.4285
   13MOL    H60 5124   0.621   7.781   4.711 -0.9592  0.4460  0.8847
   13MOL    H61 5125   0.639   7.652   4.835 -0.5359  0.8208 -0.8166
   13MOL    H62 5126   0.841   7.589   4.709 -1.5502 -1.6915 -0.8379
   13MOL    H63 5127   0.838   7.740   4.621 -0.1196 -1.4942 -3.1127
   13MOL    H64 5128   0.717   7.619   4.575 -1.8520 -1.0362  0.8175
   13MOL    C65 5129   0.848   0.374   5.205  0.7954  0.1138  0.6379
   13MOL    C66 5130   0.820   0.363   5.356  0.6513 -0.1827 -0.1876
   13MOL    C67 5131   0.892   0.489   5.429 -0.4079  0.1827 -0.0512
   13MOL    O68 5132   0.885   0.604   5.391 -0.1852 -0.6698 -0.7352
   13MOL    O69 5133   0.966   0.439   5.527 -0.1526  0.2684  0.1282
   13MOL    C70 5134   1.040   0.519   5.616  0.3323 -0.3350 -0.2834
   13MOL    C71 5135   0.973   0.515   5.753  0.0851  0.4051 -0.2026
   13MOL    C72 5136   0.963   0.369   5.821  0.0229 -0.0275 -0.4957
   13MOL    C73 5137   0.857   0.364   5.930  0.2185  0.5576 -0.7384
   13MOL    H74 5138   0.752   0.399   5.160  0.2595 -2.3072  0.3461
   13MOL    H75 5139   0.914   0.459   5.192  1.9225 -0.8669 -0.1402
   13MOL    H76 5140   0.848   0.267   5.399  0.3409 -0.4952 -0.6803
   13MOL    H77 5141   1.037   0.623   5.583 -0.0161 -0.5765 -1.0448
   13MOL    H78 5142   1.142   0.482   5.625 -0.1819 -1.8563 -0.6307
   13MOL    H79 5143   1.010   0.583   5.830  1.6977 -1.0457  0.3267
   13MOL    H80 5144   0.872   0.553   5.734  0.3391  1.3175  0.2515
   13MOL    H81 5145   1.066   0.361   5.855  0.0979  1.9580 -0.1736
   13MOL    H82 5146   0.944   0.290   5.749 -0.0005 -2.2266  1.8494
   13MOL    H83 5147   0.761   0.388   5.884  0.5443  0.6693 -1.3587
   13MOL    H84 5148   0.874   0.437   6.010  0.4710  0.5306 -0.7653
   13MOL    H85 5149   0.833   0.266   5.972  0.2644  1.2058  0.8534
   13MOL    C86 5150   0.663   0.392   5.355 -0.6261 -0.0168  0.0986
   13MOL    C87 5151   0.587   0.374   5.495  0.3767 -0.0521  0.9182
   13MOL    C88 5152   0.622   0.223   5.543 -0.2644 -0.5017  0.4042
   13MOL    O89 5153   0.702   0.197   5.629 -0.0032  0.2848  0.0582
   13MOL    O90 5154   0.555   0.130   5.460  0.0754 -0.0529  0.3681
   13MOL    C91 5155   0.576   7.846   5.505 -0.4571 -0.0518  0.3128
   13MOL    C92 5156   0.476   7.749   5.441 -0.1551 -0.1039 -0.3324
   13MOL    C93 5157   0.340   7.758   5.511 -0.5384 -0.8544 -0.4398
   13MOL    C94 5158   0.341   7.724   5.656  0.3637 -0.0512 -0.6181
   13MOL    H95 5159   0.624   0.319   5.282 -0.0975 -1.9658  1.7160
   13MOL    H96 5160   0.652   0.491   5.312  0.3849 -0.9303 -2.4001
   13MOL    H97 5161   0.482   0.378   5.466  0.2274  1.3999  1.6172
   13MOL    H98 5162   0.560   0.002   5.612  0.8103 -1.1240  0.5955
   13MOL    H99 5163   0.678   7.816   5.480 -1.3118 -2.7847 -0.0938
   13MOL   H100 5164   0.468   7.783   5.337 -2.4806 -0.1345 -0.2062
   13MOL   H101 5165   0.517   7.649   5.446  0.4390  0.1827  0.7613
   13MOL   H102 5166   0.264   7.700   5.459 -0.2054  0.1288 -2.0409
   13MOL   H103 5167   0.305   0.008   5.506  4.3135  0.9058 -0.5801
   13MOL   H104 5168   0.236   7.719   5.685  0.4107  1.3992 -0.1210
   13MOL   H105 5169   0.387   7.802   5.718 -0.7062  0.3373 -0.2978
   13MOL   H106 5170   0.389   7.630   5.682 -0.2211 -0.4047 -0.8113
   13MOL   C107 5171   0.616   0.484   5.597  0.8932  0.4984  0.6235
   13MOL   C108 5172   0.493   0.534   5.674 -0.3533  0.4085 -0.1195
   13MOL   C109 5173   0.409   0.420   5.736 -0.4889  0.2995  0.4523
   13MOL   O110 5174   0.294   0.406   5.700 -0.7994  0.4087 -0.3380
   13MOL   O111 5175   0.468   0.346   5.834  0.1301  0.1063  0.1915
   13MOL   C112 5176   0.393   0.262   5.914  0.5423 -0.0286  0.0153
   13MOL   C113 5177   0.484   0.203   6.024  0.1515  0.4548 -0.0959
   13MOL   C114 5178   0.410   0.155   6.150 -0.6431 -0.1662 -0.2896
   13MOL   C115 5179   0.508   0.119   6.252 -0.0131 -0.2461  0.1568
   13MOL   H116 5180   0.668   0.565   5.545 -0.6651  0.6150 -0.7976
   13MOL   H117 5181   0.692   0.445   5.665  0.6180 -2.1898 -0.5531
   13MOL   H118 5182   0.440   0.590   5.597 -1.2388  0.7938  0.7524
   13MOL   H119 5183   0.348   0.180   5.859 -0.3947  0.8274 -0.5054
   13MOL   H120 5184   0.320   0.321   5.970  1.8900 -0.1946  2.0136
   13MOL   H121 5185   0.547   0.125   5.981  2.1410  1.3653  1.0730
   13MOL   H122 5186   0.546   0.286   6.060 -0.0009  0.6441 -0.2682
   13MOL   H123 5187   0.354   0.064   6.130  0.8794 -1.2766  0.4568
   13MOL   H124 5188   0.343   0.229   6.194 -0.2864 -0.0158 -0.0056
   13MOL   H125 5189   0.564   0.210   6.275 -1.4949  1.1533 -1.7113
   13MOL   H126 5190   0.584   0.045   6.223 -0.5634 -1.1588  0.9888
   13MOL   H127 5191   0.465   0.101   6.351  1.2189  0.7841  0.8966
   13MOL   C128 5192   0.540   0.630   5.790  0.9215  0.5370 -0.3182
   13MOL   C129 5193   0.603   0.765   5.755 -0.2066 -0.3699  0.1875
   13MOL   C130 5194   0.499   0.868   5.700 -0.1226 -0.6255  0.2117
   13MOL   O131 5195   0.383   0.840   5.710  0.3824  0.4081 -0.5133
   13MOL   O132 5196   0.552   0.964   5.626 -0.2808  0.0152  0.3957
   13MOL   C133 5197   0.461   1.066   5.572  0.5496 -0.0760 -0.2674
   13MOL   C134 5198   0.535   1.154   5.472  0.0329  0.1337  0.7718
   13MOL   C135 5199   0.454   1.266   5.424  0.4010  0.1070  0.2292
   13MOL   C136 5200   0.520   1.354   5.325 -0.4978 -0.4754 -0.2735
   13MOL   H137 5201   0.603   0.574   5.859  1.2910  2.9376  1.3445
   13MOL   H138 5202   0.445   0.650   5.839  1.6829  2.8322  0.2753
   13MOL   H139 5203   0.686   0.754   5.686 -1.0119 -3.0481 -0.4278
   13MOL   H140 5204   0.413   1.121   5.653  0.2904 -1.9901  0.9188
   13MOL   H141 5205   0.371   1.025   5.526  0.4626 -0.7525  0.5008
   13MOL   H142 5206   0.634   1.180   5.509  1.2483 -1.4210 -1.3241
   13MOL   H143 5207   0.552   1.096   5.382 -1.1349  0.4931  0.3012
   13MOL   H144 5208   0.422   1.338   5.499 -2.4488 -0.0703 -0.7821
   13MOL   H145 5209   0.365   1.234   5.370 -0.2358  0.2978  1.1579
   13MOL   H146 5210   0.558   1.295   5.241 -1.4254  0.9742 -1.7563
   13MOL   H147 5211   0.601   1.405   5.377 -2.0742  0.7723  1.0054
   13MOL   H148 5212   0.456   1.435   5.292 -0.7705 -0.2884  0.7253
   13MOL   C149 5213   0.678   0.818   5.882  0.1920  0.1124 -0.2669
   13MOL   C150 5214   0.605   0.845   6.011 -0.5308 -0.0685 -0.4880
   13MOL   C151 5215   0.589   0.720   6.097 -0.1674  0.4803  0.6026
   13MOL   O152 5216   0.688   0.638   6.101  0.0910 -0.2986  0.5971
   13MOL   O153 5217   0.473   0.715   6.169  0.6578  0.0698  0.0591
   13MOL   C154 5218   0.462   0.623   6.271 -0.1009  0.2531  0.4835
   13MOL   C155 5219   0.346   0.663   6.362  0.3034 -0.0784 -0.3892
   13MOL   C156 5220   0.291   0.552   6.457  0.6254 -0.2415  0.0911
   13MOL   C157 5221   0.208   0.446   6.384  0.3880  0.5035  1.2656
   13MOL   H158 5222   0.729   0.911   5.857 -1.1677  0.6302 -1.1723
   13MOL   H159 5223   0.768   0.761   5.903 -1.0200 -1.5016  0.7376
   13MOL   H160 5224   0.503   0.873   5.985 -1.2896  1.2539  3.5473
   13MOL   H161 5225   0.557   0.620   6.325  0.1840 -1.1977 -0.0601
   13MOL   H162 5226   0.442   0.525   6.228  1.2062 -0.0870  0.6252
   13MOL   H163 5227   0.371   0.754   6.416  3.2253 -0.6458 -0.7333
   13MOL   H164 5228   0.260   0.691   6.299  1.0540 -0.1185 -1.4480
   13MOL   H165 5229   0.222   0.591   6.531 -1.2383 -1.1631 -1.0977
   13MOL   H166 5230   0.378   0.505   6.503  0.5607 -0.2158  0.2395
   13MOL   H167 5231   0.274   0.365   6.352 -1.2776  0.0138 -1.0152
   13MOL   H168 5232   0.155   0.478   6.295 -1.8152 -2.1659  1.5413
   13MOL   H169 5233   0.126   0.396   6.436 -0.1426  0.1154  0.0856
   13MOL   C170 5234   0.673   0.960   6.093 -0.7158  0.0960  0.0645
   13MOL   C171 5235   0.625   1.102   6.060 -0.4502  1.5581  0.1034
   13MOL   C172 5236   0.476   1.131   6.078  0.6219 -0.3447  0.6713
   13MOL   O173 5237   0.397   1.154   5.987  0.2915  0.3768  0.2543
   13MOL   O174 5238   0.438   1.134   6.202 -0.1775  0.5258 -0.2739
   13MOL   C175 5239   0.305   1.171   6.246 -0.1296 -0.0066 -0.7207
   13MOL   C176 5240   0.219   1.047   6.268  0.3891  0.0647 -0.6295
   13MOL   C177 5241   0.087   1.084   6.336  0.0308 -0.6558  0.1685
   13MOL   C178 5242   7.849   0.969   6.371 -0.2330 -0.6817 -0.3220
   13MOL   H179 5243   0.781   0.948   6.091 -0.9251 -1.8432 -1.0812
   13MOL   H180 5244   0.647   0.952   6.199  0.6076  0.3310  0.4189
   13MOL   H181 5245   0.646   1.113   5.953  1.4645 -0.6684  0.2348
   13MOL   H182 5246   0.265   1.247   6.179  1.1011  1.8736  0.6087
   13MOL   H183 5247   0.317   1.218   6.344 -0.2348 -1.6011  0.0648
   13MOL   H184 5248   0.198   1.001   6.171 -1.6632  1.8898 -1.1156
   13MOL   H185 5249   0.274   0.975   6.328 -1.4088  0.8780  2.1311
   13MOL   H186 5250   0.031   1.152   6.271  0.4846 -0.7594 -0.3317
   13MOL   H187 5251   0.099   1.130   6.434  0.7042 -1.2371  0.3631
   13MOL   H188 5252   0.051   0.882   6.409 -1.4021 -0.8701  0.9597
   13MOL   H189 5253   7.797   0.929   6.283 -0.9063  1.9689 -1.1557
   13MOL   H190 5254   7.769   0.995   6.439 -0.1654 -1.0364 -0.1031
   13MOL   C191 5255   0.710   1.208   6.129  0.2972  0.0185 -0.8656
   13MOL   C192 5256   0.864   1.226   6.083 -0.0316  0.7657  0.3217
   13MOL   C193 5257   0.868   1.258   5.932 -0.3918 -0.7055  0.0752
   13MOL   O194 5258   0.940   1.190   5.848  0.1423  0.4924  0.0372
   13MOL   O195 5259   0.788   1.359   5.895  0.3498  0.4728  0.1025
   13MOL   C196 5260   0.782   1.397   5.760  0.3895 -0.1733 -0.5764
   13MOL   C197 5261   0.655   1.485   5.731  0.7159 -0.0883 -0.3357
   13MOL   C198 5262   0.524   1.400   5.759  0.6571  0.2362  0.4194
   13MOL   C199 5263   0.397   1.487   5.752 -0.2613 -0.0074 -0.7142
   13MOL   H200 5264   0.705   1.179   6.234 -0.0738 -0.2928 -0.9674
   13MOL   H201 5265   0.655   1.301   6.143 -1.8436 -1.2934 -0.3789
   13MOL   H202 5266   0.904   1.124   6.081 -0.9367  0.3987 -2.8249
   13MOL   H203 5267   0.774   1.304   5.703 -2.4156 -0.9912  1.0212
   13MOL   H204 5268   0.871   1.455   5.737  0.8492 -0.9220 -0.6735
   13MOL   H205 5269   0.652   1.574   5.795  1.2446  0.1309 -0.6195
   13MOL   H206 5270   0.658   1.506   5.625  1.1501  0.0186 -0.3000
   13MOL   H207 5271   0.536   1.368   5.863 -1.2358 -0.5624  0.4005
   13MOL   H208 5272   0.523   1.308   5.701 -0.5201  0.3728  0.2123
   13MOL   H209 5273   0.398   1.583   5.802 -3.0090 -0.6503  0.7178
   13MOL   H210 5274   0.310   1.438   5.798  0.0792  0.8963  0.9236
   13MOL   H211 5275   0.363   1.517   5.653  0.7984  0.8128 -0.8335
   13MOL   C212 5276   0.954   1.300   6.187  0.1081 -0.7223 -0.3993
   13MOL   C213 5277   1.099   1.337   6.161  0.4373  0.1993  0.4163
   13MOL   C214 5278   1.192   1.224   6.143  0.5326  0.0855  0.0210
   13MOL   O215 5279   1.285   1.210   6.230  0.3594  0.5378  0.3984
   13MOL   O216 5280   1.164   1.144   6.039 -0.5711 -0.4997 -0.1323
   13MOL   C217 5281   1.221   1.016   6.044 -0.3646  0.0597 -0.1065
   13MOL   C218 5282   1.169   0.928   5.926  0.8429  0.0822 -0.1628
   13MOL   C219 5283   1.225   0.787   5.928  0.2469  0.1525 -0.6857
   13MOL   C220 5284   1.182   0.708   6.041  0.0868 -0.2264  0.0793
   13MOL   H221 5285   0.953   1.246   6.281 -1.3340 -0.6537 -0.3627
   13MOL   H222 5286   0.906   1.394   6.213  1.6165 -0.4187  1.3523
   13MOL   H223 5287   1.133   1.381   6.254 -0.4498  0.0898  0.7965
   13MOL   H224 5288   1.207   0.966   6.140  5.1461 -1.8043 -0.1172
   13MOL   H225 5289   1.329   1.029   6.036 -0.4828  0.4892 -1.1529
   13MOL   H226 5290   1.060   0.926   5.936  0.9161 -1.4055  0.5079
   13MOL   H227 5291   1.200   0.976   5.834  0.1729  0.1138 -0.3745
   13MOL   H228 5292   1.333   0.796   5.943  0.1529  2.1863 -1.0432
   13MOL   H229 5293   1.201   0.730   5.838  0.2576 -1.1826  0.1561
   13MOL   H230 5294   1.074   0.715   6.048  0.2981  0.6343  3.2329
   13MOL   H231 5295   1.222   0.746   6.135  2.6205 -3.2224  0.3257
   13MOL   H232 5296   1.208   0.602   6.029 -1.6780 -0.7769  0.9205
   13MOL   C233 5297   1.114   1.444   6.048  0.2025 -0.2320 -0.1781
   13MOL   C234 5298   1.060   1.586   6.095  0.3690  0.5415  0.2145
   13MOL   C235 5299   1.168   1.653   6.179  0.0300  0.2275 -0.5901
   13MOL   O236 5300   1.267   1.708   6.127  0.1381 -0.2844  0.2858
   13MOL   O237 5301   1.127   1.658   6.307  0.7446 -0.3657 -0.0738
   13MOL   C238 5302   1.191   1.747   6.394 -0.3351  0.6031 -0.1976
   13MOL   C239 5303   1.114   1.882   6.387  0.2565 -0.2359  0.7389
   13MOL   C240 5304   1.181   1.990   6.475  0.1595 -0.9550  0.8136
   13MOL   C241 5305   1.088   2.106   6.506 -0.9639 -0.0533  0.2050
   13MOL   H242 5306   1.068   1.423   5.952  1.0197 -0.0791 -0.6052
   13MOL   H243 5307   1.215   1.472   6.018  0.1349 -0.0872 -0.2707
   13MOL   H244 5308   0.966   1.581   6.150 -0.1317  1.4138 -0.5303
   13MOL   H245 5309   1.296   1.769   6.372 -0.2633  0.7639  0.3051
   13MOL   H246 5310   1.176   1.728   6.500  0.0627  1.4903  0.0220
   13MOL   H247 5311   1.111   1.912   6.282  0.4935  1.3500  1.1777
   13MOL   H248 5312   1.010   1.872   6.419  0.4310 -2.9591  0.5795
   13MOL   H249 5313   1.274   2.022   6.428  0.6961 -1.0675  1.7936
   13MOL   H250 5314   1.227   1.941   6.561  0.0031  0.4305  1.7039
   13MOL   H251 5315   1.070   2.168   6.418 -0.2251 -0.3483 -0.1608
   13MOL   H252 5316   1.129   2.168   6.586  1.7653  0.0238 -1.1971
   13MOL   H253 5317   0.991   2.066   6.536 -0.3431 -0.0370  2.3170
   13MOL   C254 5318   1.043   1.678   5.972 -0.3150 -0.1214  0.4170
   13MOL   C255 5319   0.977   1.816   5.990 -0.2050  0.6335  0.3491
   13MOL   C256 5320   0.981   1.890   5.850  0.1075  0.3027  0.4168
   13MOL   O257 5321   0.970   2.012   5.834  0.0554 -0.2521  0.1658
   13MOL   O258 5322   0.983   1.808   5.747  0.2046 -0.7340  0.1507
   13MOL   C259 5323   0.952   1.855   5.619 -0.4570 -0.3806  0.0493
   13MOL   C260 5324   0.839   1.759   5.563  0.3299  0.3500 -0.3779
   13MOL   C261 5325   0.790   1.783   5.421  0.1232 -0.4065  0.8067
   13MOL   C262 5326   0.695   1.666   5.380  0.1356  0.1329 -0.6082
   13MOL   H263 5327   0.986   1.623   5.897  2.3621 -0.8986 -1.0861
   13MOL   H264 5328   1.132   1.701   5.914 -0.9061  3.2322  0.7414
   13MOL   H265 5329   1.032   1.875   6.063  0.7442 -0.4757  0.5396
   13MOL   H266 5330   1.038   1.832   5.556 -2.1691 -1.9337 -1.7727
   13MOL   H267 5331   0.917   1.958   5.620  0.1187 -0.1785  1.4221
   13MOL   H268 5332   0.875   1.657   5.577 -0.4539  0.1575  0.2877
   13MOL   H269 5333   0.764   1.772   5.642 -2.4201 -2.9812 -2.3351
   13MOL   H270 5334   0.878   1.796   5.358 -1.2952  3.3084 -0.5725
   13MOL   H271 5335   0.743   1.881   5.413 -1.1761 -1.0876 -0.1160
   13MOL   H272 5336   0.666   1.671   5.275 -0.5237  1.9478 -0.3649
   13MOL   H273 5337   0.601   1.657   5.433  0.2035 -1.3942 -0.7287
   13MOL   H274 5338   0.747   1.571   5.385 -1.0049 -0.6512 -2.9852
   13MOL   C275 5339   0.826   1.797   6.032  1.2029  0.6873 -0.3268
   13MOL   C276 5340   0.782   1.870   6.165 -0.1135 -0.1683 -0.0780
   13MOL   C277 5341   0.809   2.023   6.152  0.1976  0.6371 -0.1661
   13MOL   O278 5342   0.911   2.063   6.208 -0.0782 -0.0960  0.2325
   13MOL   O279 5343   0.728   2.088   6.059 -0.2660 -0.1616  0.4175
   13MOL   C280 5344   0.768   2.225   6.031 -0.3952  0.3570 -0.6776
   13MOL   C281 5345   0.701   2.331   6.125  0.0013 -0.6038 -0.4882
   13MOL   C282 5346   0.544   2.331   6.105  0.0501 -0.6520 -0.7738
   13MOL   C283 5347   0.483   2.454   6.169 -0.0894 -0.1684 -0.5670
   13MOL   H284 5348   0.801   1.692   6.049  0.2724  0.8656 -0.5711
   13MOL   H285 5349   0.762   1.832   5.951 -0.9992 -0.7790  0.7231
   13MOL   H286 5350   0.846   1.839   6.247  2.0176  0.2148 -1.5491
   13MOL   H287 5351   0.742   2.257   5.930  0.4901 -0.2075 -1.0911
   13MOL   H288 5352   0.877   2.228   6.030 -0.2991  0.2277  2.3923
   13MOL   H289 5353   0.730   2.309   6.228 -0.7218 -0.8151 -0.3270
   13MOL   H290 5354   0.741   2.429   6.099  0.8142 -0.3310  1.6329
   13MOL   H291 5355   0.500   2.250   6.163 -0.2892 -0.0001 -0.0976
   13MOL   H292 5356   0.520   2.319   6.000  0.8761  4.2276 -1.6495
   13MOL   H293 5357   0.408   2.489   6.097 -0.2532  0.2040 -0.2128
   13MOL   H294 5358   0.554   2.535   6.182  0.8976 -0.8293 -1.6617
   13MOL   H295 5359   0.435   2.429   6.263 -0.9173  0.2048 -0.8815
   13MOL   C296 5360   0.638   1.840   6.195  0.2403  0.9837 -0.3341
   13MOL   C297 5361   0.583   1.913   6.317  0.1706  0.0915  0.8697
   13MOL   C298 5362   0.428   1.934   6.299 -0.6014  0.8423 -0.2218
   13MOL   O299 5363   0.373   2.037   6.282  0.5779  0.3079 -0.0077
   13MOL   O300 5364   0.371   1.811   6.305 -0.8914 -0.2929  0.2260
   13MOL   C301 5365   0.226   1.800   6.310 -0.2768 -0.9611  0.0423
   13MOL   C302 5366   0.171   1.670   6.359  0.1443  0.3195  0.0992
   13MOL   C303 5367   0.142   1.569   6.255 -0.2153  0.6823  0.4710
   13MOL   C304 5368   0.099   1.428   6.308 -0.1117  0.2896 -0.0548
   13MOL   H305 5369   0.635   1.732   6.207 -0.0054  1.1768  1.5012
   13MOL   H306 5370   0.572   1.858   6.110 -0.3124  1.0210  0.0997
   13MOL   H307 5371   0.619   2.015   6.301 -1.2922  0.3961 -0.6619
   13MOL   H308 5372   0.190   1.812   6.208 -0.5968  0.5665  0.3256
   13MOL   H309 5373   0.178   1.874   6.375 -1.8653 -1.3512 -0.6668
   13MOL   H310 5374   0.248   1.631   6.425 -0.0955  0.9006  0.7252
   13MOL   H311 5375   0.080   1.671   6.419 -1.1387  2.7840 -1.8102
   13MOL   H312 5376   0.230   1.559   6.192 -0.9173  2.1432 -0.7886
   13MOL   H313 5377   0.070   1.607   6.183  0.2104  1.9284  0.7029
   13MOL   H314 5378   0.090   1.350   6.232 -1.3015 -0.9887  1.3644
   13MOL   H315 5379   7.852   1.447   6.346  0.0215 -2.3200  1.7096
   13MOL   H316 5380   0.164   1.393   6.389 -1.7241 -1.5908  0.4677
   13MOL   C317 5381   0.622   1.854   6.457 -0.2704  0.0031  0.6326
   13MOL   C318 5382   0.717   1.944   6.534  0.0329 -0.2956  0.7687
   13MOL   C319 5383   0.651   2.066   6.596 -0.3688  0.4834 -0.0493
   13MOL   O320 5384   0.532   2.068   6.637 -0.6005 -0.0716 -0.4358
   13MOL   O321 5385   0.734   2.160   6.604 -0.5561  0.2517 -0.0640
   13MOL   C322 5386   0.704   2.296   6.626  0.2556 -0.7966  0.2198
   13MOL   C323 5387   0.830   2.379   6.584 -0.6967 -0.2089  0.8697
   13MOL   C324 5388   0.813   2.529   6.608  0.1971 -0.1698  0.7507
   13MOL   C325 5389   0.720   2.585   6.503  1.0165 -0.2194  0.0687
   13MOL   H326 5390   0.654   1.752   6.438 -1.6656 -0.2536 -0.4789
   13MOL   H327 5391   0.530   1.845   6.515  0.3781 -0.5313  1.5767
   13MOL   H328 5392   0.783   1.985   6.458 -2.4823 -1.1804 -1.9833
   13MOL   H329 5393   0.682   2.306   6.732  0.1060 -0.7470  0.1832
   13MOL   H330 5394   0.628   2.330   6.556 -0.0499 -1.8109  0.0443
   13MOL   H331 5395   0.923   2.351   6.633  0.6544  1.1182 -0.8954
   13MOL   H332 5396   0.853   2.355   6.481  0.7399 -1.8115  1.5429
   13MOL   H333 5397   0.909   2.581   6.600 -0.3713  0.8591  0.5965
   13MOL   H334 5398   0.778   2.555   6.708  0.8186  0.0958  0.9092
   13MOL   H335 5399   0.729   2.694   6.500 -0.9647  0.0390  1.9774
   13MOL   H336 5400   0.616   2.563   6.526  0.6677  1.9625  0.7111
   13MOL   H337 5401   0.749   2.547   6.405 -0.3041 -0.6093 -0.1822
   13MOL   C338 5402   0.815   1.868   6.629 -0.6914  0.2583 -0.1894
   13MOL   C339 5403   0.757   1.829   6.768 -0.7173  0.1261  0.0517
   13MOL   C340 5404   0.660   1.718   6.755 -0.6895 -0.0004  0.0834
   13MOL   O341 5405   0.548   1.719   6.796 -0.2561  0.1816 -0.2728
   13MOL   O342 5406   0.705   1.614   6.688  0.2477 -0.1347 -0.4011
   13MOL   C343 5407   0.643   1.493   6.697  0.3484  0.2612 -0.0161
   13MOL   C344 5408   0.623   1.440   6.555 -0.2362 -0.0090 -0.1205
   13MOL   C345 5409   0.502   1.496   6.478 -0.2073  0.3576 -0.7335
   13MOL   C346 5410   0.517   1.456   6.340  0.2224  0.5621  0.0744
   13MOL   H347 5411   0.907   1.922   6.651  0.4207 -1.5627 -0.2844
   13MOL   H348 5412   0.852   1.774   6.588  0.3547  1.0758 -1.1573
   13MOL   H349 5413   0.690   1.911   6.794  0.0944  1.2193 -1.2718
   13MOL   H350 5414   0.549   1.495   6.753  0.2008  0.6496 -0.2749
   13MOL   H351 5415   0.711   1.428   6.752  1.3305  0.8037 -0.5785
   13MOL   H352 5416   0.705   1.468   6.489 -1.1714 -1.4109 -1.9262
   13MOL   H353 5417   0.623   1.331   6.550  0.7243 -0.0879  1.1406
   13MOL   H354 5418   0.512   1.604   6.487 -2.6900  0.5215  0.4550
   13MOL   H355 5419   0.404   1.466   6.516  0.2623 -0.8009 -0.4235
   13MOL   H356 5420   0.428   1.482   6.283  0.2937  0.6169 -0.0123
   13MOL   H357 5421   0.533   1.348   6.340 -2.8815  0.0629  1.3346
   13MOL   H358 5422   0.593   1.518   6.293  2.6141 -1.4224  1.1861
   13MOL   C359 5423   0.853   1.802   6.883  0.3296  0.0964  0.0484
   13MOL   C360 5424   0.927   1.665   6.886 -0.3904 -0.2138 -0.1129
   13MOL   C361 5425   1.000   1.641   6.750 -0.1505  0.5265  0.1004
   13MOL   O362 5426   1.067   1.733   6.702 -0.5298 -0.5745  0.2210
   13MOL   O363 5427   0.989   1.517   6.704  0.1132 -0.5239  0.2362
   13MOL   C364 5428   1.059   1.485   6.593  0.7357  0.5830 -0.2178
   13MOL   C365 5429   1.196   1.438   6.647  0.3044 -0.1749  0.9430
   13MOL   C366 5430   1.285   1.377   6.538  0.0509  0.4053  0.2956
   13MOL   C367 5431   1.431   1.345   6.601 -0.8923  0.2135 -0.1552
   13MOL   H368 5432   0.807   1.816   6.981 -0.1273 -0.9358 -0.0162
   13MOL   H369 5433   0.934   1.875   6.872 -1.5775  2.4857  1.2594
   13MOL   H370 5434   0.846   1.592   6.896 -0.1736 -0.5399 -0.7157
   13MOL   H371 5435   1.073   1.570   6.527  1.2883  0.8872  0.2924
   13MOL   H372 5436   1.011   1.399   6.546  0.3989 -0.0107  1.1902
   13MOL   H373 5437   1.252   1.522   6.689 -1.8757  1.7055  0.2270
   13MOL   H374 5438   1.193   1.357   6.718 -1.1310 -2.9769 -2.1763
   13MOL   H375 5439   1.296   1.436   6.447  1.8846 -1.8570 -1.0240
   13MOL   H376 5440   1.249   1.279   6.506  1.2902 -0.9753  2.9590
   13MOL   H377 5441   1.430   1.257   6.666 -1.1442  1.0363  0.9849
   13MOL   H378 5442   1.471   1.431   6.655  0.1994 -0.9388  0.9089
   13MOL   H379 5443   1.508   1.323   6.527 -0.2696 -1.6999  1.0142
   13MOL   C380 5444   1.022   1.642   7.004  0.2013 -0.5449 -0.0546
   13MOL   C381 5445   1.064   1.498   7.027 -0.5281  0.4916 -0.2119
   13MOL   C382 5446   1.205   1.486   7.077 -0.0982 -0.0400  0.3995
   13MOL   O383 5447   1.226   1.417   7.178 -0.3828 -0.0397 -0.3209
   13MOL   O384 5448   1.295   1.558   7.003 -0.1715  0.5233  0.3914
   13MOL   C385 5449   1.433   1.536   7.037 -0.0726  0.3315 -0.5023
   13MOL   C386 5450   1.510   1.479   6.921 -0.3319  0.0008  0.4037
   13MOL   C387 5451   1.658   1.438   6.959 -0.8840 -0.0214  0.1152
   13MOL   C388 5452   1.747   1.550   7.022  0.1305 -0.6509  0.7083
   13MOL   H389 5453   0.975   1.673   7.097  2.0099 -0.1881  0.7622
   13MOL   H390 5454   1.103   1.709   6.975  0.5538 -1.4048 -1.1444
   13MOL   H391 5455   1.058   1.440   6.935 -0.3123 -0.1203  0.1629
   13MOL   H392 5456   1.448   1.479   7.129  1.1061  1.7180  0.1889
   13MOL   H393 5457   1.469   1.639   7.047  1.4564 -0.2747  0.5134
   13MOL   H394 5458   1.463   1.388   6.886 -0.8355 -0.1491  1.4686
   13MOL   H395 5459   1.521   1.558   6.846 -2.2886  0.7693  0.8983
   13MOL   H396 5460   1.705   1.420   6.862 -1.1808  2.1907 -0.4637
   13MOL   H397 5461   1.675   1.344   7.012  0.3388 -0.7699 -1.5581
   13MOL   H398 5462   1.701   1.579   7.117 -1.2948 -0.0995 -0.1298
   13MOL   H399 5463   1.748   1.643   6.966 -0.5723 -1.1845 -0.2041
   13MOL   H400 5464   1.847   1.509   7.036  0.1417 -1.6452 -1.9649
   13MOL   C401 5465   0.956   1.426   7.117  0.2666  0.1071  0.8167
   13MOL   C402 5466   0.972   1.273   7.113  0.3508  0.3196  0.0602
   13MOL   C403 5467   0.843   1.201   7.065  0.0199 -0.8372  0.1915
   13MOL   O404 5468   0.759   1.253   6.987 -0.1262 -0.1868 -0.6582
   13MOL   O405 5469   0.841   1.077   7.124  0.7425 -0.5543 -0.2908
   13MOL   C406 5470   0.763   0.974   7.073 -0.9644  0.2939  0.3900
   13MOL   C407 5471   0.636   0.961   7.152 -0.2326 -0.0221  0.0802
   13MOL   C408 5472   0.526   0.861   7.120  0.3760 -0.7076  0.1345
   13MOL   C409 5473   0.412   0.857   7.226  0.4201 -0.6216 -0.3944
   13MOL   H410 5474   0.857   1.456   7.082  0.4886  2.7391  2.2841
   13MOL   H411 5475   0.979   1.453   7.221  1.2020 -2.0618  1.2017
   13MOL   H412 5476   0.993   1.229   7.210  2.1266  1.9106  0.4411
   13MOL   H413 5477   0.808   0.877   7.094  0.4238  1.0288  0.8073
   13MOL   H414 5478   0.744   0.991   6.967  0.9689  1.7505  0.2566
   13MOL   H415 5479   0.656   0.955   7.259  0.6156 -0.8334 -0.1156
   13MOL   H416 5480   0.594   1.061   7.145  2.7504  1.2135 -1.3554
   13MOL   H417 5481   0.575   0.766   7.098 -0.7620 -1.1552 -0.4891
   13MOL   H418 5482   0.485   0.888   7.023 -2.5329  0.6139  1.6683
   13MOL   H419 5483   0.453   0.836   7.325 -2.1938 -0.8174  0.6619
   13MOL   H420 5484   0.335   0.785   7.198 -2.4494  1.0760  2.8232
   13MOL   H421 5485   0.364   0.953   7.241 -0.6874 -1.0836 -0.9862
   13MOL   H422 5486   1.057   1.237   7.054  0.7010 -0.5570  1.0894
   14MOL     C1 5487   5.542   3.392   3.864  0.2202  0.4604  0.1983
   14MOL     C2 5488   5.641   3.515   3.874  0.6871  0.3225 -0.8167
   14MOL     C3 5489   5.570   3.652   3.847  0.3450 -0.0108  0.6734
   14MOL     O4 5490   5.525   3.724   3.933  0.2267  0.5145 -0.5534
   14MOL     O5 5491   5.566   3.682   3.718  0.0291  0.0581 -0.3092
   14MOL     C6 5492   5.523   3.808   3.684  0.0379  0.4222 -1.1015
   14MOL     C7 5493   5.532   3.837   3.531 -0.1365  0.3046  0.1276
   14MOL     C8 5494   5.674   3.852   3.482 -0.1075  0.0617 -0.0408
   14MOL     C9 5495   5.655   3.902   3.339 -0.0172 -0.1405 -0.2752
   14MOL    H10 5496   5.495   3.359   3.957  1.6697 -4.1318 -0.5715
   14MOL    H11 5497   5.461   3.414   3.794 -0.7629  3.7046  2.2600
   14MOL    H12 5498   5.720   3.502   3.800  0.2040  0.7167 -1.4107
   14MOL    H13 5499   5.577   3.887   3.737 -1.0236  1.0402 -0.9191
   14MOL    H14 5500   5.419   3.811   3.715  0.3086  2.0086 -0.3154
   14MOL    H15 5501   5.486   3.756   3.474 -0.3121  1.0101 -0.7410
   14MOL    H16 5502   5.475   3.927   3.508 -2.8398 -1.6683 -1.1531
   14MOL    H17 5503   5.730   3.759   3.483 -0.4720 -0.1601  0.7144
   14MOL    H18 5504   5.729   3.911   3.557  0.3321 -0.3659 -0.0289
   14MOL    H19 5505   5.608   4.001   3.338 -1.3456 -0.6913  2.9484
   14MOL    H20 5506   5.609   3.827   3.274  1.6218 -1.7067  0.3614
   14MOL    H21 5507   5.751   3.904   3.289  1.0959 -1.9908  1.7187
   14MOL    H22 5508   5.603   3.310   3.825 -1.1944 -0.3353 -0.4164
   14MOL    C23 5509   5.702   3.523   4.017  0.1427 -0.1332 -0.2346
   14MOL    C24 5510   5.791   3.399   4.058 -0.2749 -0.1578  0.1045
   14MOL    C25 5511   5.914   3.375   3.962 -0.6331 -0.0406  0.1571
   14MOL    O26 5512   6.019   3.441   3.974 -0.4020 -0.1328  0.1921
   14MOL    O27 5513   5.898   3.265   3.887 -0.1934  0.1096  0.0097
   14MOL    C28 5514   5.987   3.221   3.792 -0.1188  0.5816  0.3386
   14MOL    C29 5515   5.930   3.228   3.645  0.0446 -0.6473 -1.2146
   14MOL    C30 5516   6.036   3.228   3.544 -0.1843  0.2064 -0.0840
   14MOL    C31 5517   6.105   3.365   3.530  0.1362 -1.0554 -0.2064
   14MOL    H32 5518   5.628   3.543   4.094  0.7340  1.7745 -0.1212
   14MOL    H33 5519   5.769   3.608   4.003 -0.0747  0.3247  1.3853
   14MOL    H34 5520   5.736   3.305   4.045 -0.2016 -0.3175  0.8691
   14MOL    H35 5521   6.017   3.117   3.801 -0.5773  0.3700 -0.5377
   14MOL    H36 5522   6.078   3.280   3.795 -1.7614  3.2847 -0.9830
   14MOL    H37 5523   5.875   3.135   3.628  0.3657 -0.4699 -3.4060
   14MOL    H38 5524   5.865   3.313   3.621 -1.8708 -1.3612  1.3214
   14MOL    H39 5525   5.982   3.222   3.449  1.0045 -2.4732 -0.6615
   14MOL    H40 5526   6.107   3.144   3.542  2.3340  2.2883 -2.0718
   14MOL    H41 5527   6.142   3.397   3.627  1.9723 -0.1444 -1.1774
   14MOL    H42 5528   6.049   3.442   3.476  1.9958 -1.0754 -2.2344
   14MOL    H43 5529   6.193   3.358   3.466 -0.8976 -0.2566 -1.7652
   14MOL    C44 5530   5.843   3.415   4.208 -0.5369 -0.1637  0.3906
   14MOL    C45 5531   5.828   3.289   4.302 -0.2104 -0.5705 -0.1729
   14MOL    C46 5532   5.679   3.237   4.307 -1.3695 -0.6467 -0.1951
   14MOL    O47 5533   5.590   3.281   4.230  0.0533  0.2814  0.7801
   14MOL    O48 5534   5.667   3.125   4.386  0.5765 -0.0523  0.1224
   14MOL    C49 5535   5.545   3.053   4.403  0.0916 -0.4072 -0.3842
   14MOL    C50 5536   5.503   2.976   4.276 -0.5284  0.2754  0.1355
   14MOL    C51 5537   5.394   2.871   4.296 -0.2509 -0.9633 -0.6223
   14MOL    C52 5538   5.327   2.806   4.173  0.0255 -0.4371  0.9253
   14MOL    H53 5539   5.784   3.497   4.249  1.9027  2.0476 -0.3588
   14MOL    H54 5540   5.944   3.456   4.211 -0.8621  0.8775 -1.5792
   14MOL    H55 5541   5.854   3.306   4.406 -1.1681  1.7266 -0.3027
   14MOL    H56 5542   5.474   3.132   4.428 -1.2787 -2.3476  2.1152
   14MOL    H57 5543   5.548   3.000   4.498  1.5006 -0.7235 -0.5887
   14MOL    H58 5544   5.459   3.041   4.200  3.0603  2.2323 -0.4106
   14MOL    H59 5545   5.585   2.923   4.227 -0.1539 -0.1867  1.2447
   14MOL    H60 5546   5.325   2.909   4.372  0.3808  0.1023 -0.5684
   14MOL    H61 5547   5.452   2.789   4.338  0.7955  0.4955  0.9086
   14MOL    H62 5548   5.396   2.777   4.094 -1.2005 -1.1972  0.1059
   14MOL    H63 5549   5.268   2.885   4.126  1.6600 -1.2963 -2.7158
   14MOL    H64 5550   5.268   2.717   4.194 -2.3914  0.6761 -0.9028
   14MOL    C65 5551   5.931   3.177   4.260  0.5161  0.1727  0.4633
   14MOL    C66 5552   6.078   3.229   4.273 -0.2828 -0.3329  0.4244
   14MOL    C67 5553   6.130   3.225   4.411 -0.1502  1.2418 -0.2289
   14MOL    O68 5554   6.200   3.317   4.457 -0.0258 -1.2198 -0.0364
   14MOL    O69 5555   6.096   3.113   4.477  0.2573 -0.2375 -0.2741
   14MOL    C70 5556   6.128   3.095   4.621  0.0596 -0.0980  1.0142
   14MOL    C71 5557   6.252   3.007   4.661 -0.5211 -0.0893  0.0542
   14MOL    C72 5558   6.260   2.877   4.579 -0.0376  0.1318  0.5319
   14MOL    C73 5559   6.396   2.813   4.584  0.3689  0.1305  0.0548
   14MOL    H74 5560   5.914   3.166   4.153 -0.5778 -0.3614  0.6897
   14MOL    H75 5561   5.903   3.085   4.311  1.0906 -0.8423 -1.0372
   14MOL    H76 5562   6.085   3.332   4.240  1.4025  0.0603  1.9342
   14MOL    H77 5563   6.041   3.050   4.670  0.1285 -0.1852  1.0588
   14MOL    H78 5564   6.133   3.196   4.662 -0.3510  0.4367 -0.2388
   14MOL    H79 5565   6.342   3.065   4.636 -0.4149 -0.2698  0.0194
   14MOL    H80 5566   6.253   2.985   4.767 -0.8355 -1.1742 -0.1679
   14MOL    H81 5567   6.230   2.904   4.477  1.9796  0.5440  0.0324
   14MOL    H82 5568   6.183   2.807   4.611  0.2977  0.1943  1.4838
   14MOL    H83 5569   6.392   2.728   4.516 -0.9230 -1.0115  1.5352
   14MOL    H84 5570   6.424   2.783   4.685 -0.9163  0.5276  0.5311
   14MOL    H85 5571   6.470   2.884   4.546 -0.9080  0.3148 -2.1927
   14MOL    C86 5572   6.168   3.165   4.165 -0.3135  0.0796 -0.3865
   14MOL    C87 5573   6.192   3.014   4.159  0.3621 -0.7229  0.0643
   14MOL    C88 5574   6.094   2.948   4.064  0.1157  0.3799  0.4109
   14MOL    O89 5575   6.114   2.941   3.939  0.3406 -0.4909 -0.4367
   14MOL    O90 5576   5.992   2.893   4.131  0.4908  0.4336 -0.2385
   14MOL    C91 5577   5.895   2.819   4.059 -0.2549 -0.5000  0.4828
   14MOL    C92 5578   5.784   2.920   4.011  0.2485  0.3248  0.0439
   14MOL    C93 5579   5.667   2.849   3.953  0.3062  0.2172  0.3732
   14MOL    C94 5580   5.558   2.948   3.905 -0.2917  0.1569  0.2191
   14MOL    H95 5581   6.266   3.207   4.183 -0.9588  0.9858  1.0768
   14MOL    H96 5582   6.139   3.205   4.067 -0.4592  1.0059  0.0328
   14MOL    H97 5583   6.176   2.975   4.259  1.8131 -1.7159 -0.0720
   14MOL    H98 5584   5.855   2.740   4.123 -0.3161 -1.1589 -0.3646
   14MOL    H99 5585   5.932   2.769   3.970 -1.2966 -0.1636 -0.1522
   14MOL   H100 5586   5.758   2.977   4.099  1.7233  1.5003 -0.2563
   14MOL   H101 5587   5.825   2.991   3.939 -0.0179  1.3349  0.8883
   14MOL   H102 5588   5.618   2.796   4.035 -2.5041  0.8619 -0.8107
   14MOL   H103 5589   5.695   2.774   3.879  0.8581  0.0447  0.7578
   14MOL   H104 5590   5.461   2.901   3.890 -1.1545  1.7234  0.8784
   14MOL   H105 5591   5.571   3.007   3.814  1.0206  0.4922  0.6177
   14MOL   H106 5592   5.539   3.015   3.988 -1.4461 -0.7845  0.7302
   14MOL   C107 5593   6.341   2.979   4.127  0.1575 -0.3078 -0.0922
   14MOL   C108 5594   6.368   2.832   4.097 -0.5726 -0.0572 -0.9228
   14MOL   C109 5595   6.504   2.814   4.034 -0.6524  0.0256  0.4101
   14MOL   O110 5596   6.601   2.768   4.097 -0.1522  0.6927  0.0603
   14MOL   O111 5597   6.518   2.848   3.905 -0.1217 -0.3266  0.3131
   14MOL   C112 5598   6.644   2.870   3.840  0.0692 -0.4816 -0.3193
   14MOL   C113 5599   6.668   2.760   3.729  0.2310 -0.7213 -0.0143
   14MOL   C114 5600   6.656   2.618   3.781 -0.5618 -0.0908 -0.3601
   14MOL   C115 5601   6.663   2.502   3.671  0.2703 -0.4773 -1.1162
   14MOL   H116 5602   6.407   3.013   4.208 -0.6018 -1.9850  1.2574
   14MOL   H117 5603   6.363   3.038   4.038  0.6852  0.1262  0.3194
   14MOL   H118 5604   6.298   2.807   4.017  0.5751 -2.5533 -1.1917
   14MOL   H119 5605   6.722   2.882   3.914  1.2083  1.7110 -1.8171
   14MOL   H120 5606   6.632   2.968   3.795  1.4345  0.1073  0.5691
   14MOL   H121 5607   6.608   2.782   3.641 -0.5662  3.8962  1.5464
   14MOL   H122 5608   6.772   2.775   3.701  0.1997  0.9483  0.6780
   14MOL   H123 5609   6.564   2.603   3.837 -0.0305  2.1114  1.1630
   14MOL   H124 5610   6.737   2.603   3.852 -1.6388 -0.7039  0.7648
   14MOL   H125 5611   6.649   2.408   3.726 -0.4755 -0.6068 -1.5150
   14MOL   H126 5612   6.757   2.502   3.616 -0.0348  0.9288 -1.6538
   14MOL   H127 5613   6.577   2.503   3.603  0.6117  2.8707 -1.5398
   14MOL   C128 5614   6.352   2.747   4.226  0.4822 -0.4930 -0.1865
   14MOL   C129 5615   6.331   2.597   4.191  0.0504 -0.2315  0.3045
   14MOL   C130 5616   6.276   2.530   4.315  0.6382  0.1475 -0.7559
   14MOL   O131 5617   6.159   2.527   4.341  0.6350 -0.6247 -0.6411
   14MOL   O132 5618   6.370   2.470   4.394  0.2707  0.6224  0.0116
   14MOL   C133 5619   6.324   2.393   4.506 -0.0751 -0.1121  0.0980
   14MOL   C134 5620   6.296   2.485   4.634  0.0955  0.1730 -0.8244
   14MOL   C135 5621   6.231   2.411   4.747  0.2048 -0.4378  0.0109
   14MOL   C136 5622   6.163   2.496   4.851  0.2547  0.2448  0.3819
   14MOL   H137 5623   6.260   2.776   4.275  0.0805  0.3040 -1.3917
   14MOL   H138 5624   6.438   2.769   4.289  0.4646 -2.7596  0.6890
   14MOL   H139 5625   6.428   2.555   4.167  0.0704 -0.3680  0.6154
   14MOL   H140 5626   6.394   2.313   4.528  0.7911  0.1915 -1.5552
   14MOL   H141 5627   6.239   2.329   4.482  0.0257  0.0410 -0.6802
   14MOL   H142 5628   6.388   2.530   4.671  0.1991 -0.8904  0.2300
   14MOL   H143 5629   6.235   2.575   4.623 -0.4761  0.1734  2.1051
   14MOL   H144 5630   6.312   2.353   4.791 -0.8230 -1.6639  0.3082
   14MOL   H145 5631   6.160   2.332   4.723  1.2763 -1.4212  0.0219
   14MOL   H146 5632   6.107   2.574   4.798  0.4850  0.5787  0.6279
   14MOL   H147 5633   6.234   2.539   4.922 -2.2713  0.8447  2.6105
   14MOL   H148 5634   6.100   2.439   4.918 -1.0302  1.3694  0.1648
   14MOL   C149 5635   6.249   2.558   4.060 -0.1862 -0.2504  0.1150
   14MOL   C150 5636   6.242   2.418   3.995 -0.3999  0.3219 -0.1787
   14MOL   C151 5637   6.365   2.320   4.009  1.1256  0.0451 -0.5253
   14MOL   O152 5638   6.429   2.293   3.902  0.3246  0.2576  1.0707
   14MOL   O153 5639   6.409   2.281   4.136  0.3475 -0.0060  0.1936
   14MOL   C154 5640   6.524   2.196   4.142 -0.0709  0.1957  0.0090
   14MOL   C155 5641   6.559   2.160   4.286  0.1700  0.4224 -0.5606
   14MOL   C156 5642   6.445   2.075   4.358  0.4692  0.3600 -0.0634
   14MOL   C157 5643   6.489   2.017   4.496  0.5132 -0.3976  0.1442
   14MOL   H158 5644   6.284   2.617   3.975 -3.3189  2.0572  0.3602
   14MOL   H159 5645   6.144   2.585   4.068 -0.3254 -0.1133 -1.8792
   14MOL   H160 5646   6.231   2.437   3.888  0.7955 -1.6295 -0.6681
   14MOL   H161 5647   6.607   2.251   4.100  1.1826 -1.6896 -0.0549
   14MOL   H162 5648   6.504   2.106   4.083  1.0906  1.6019 -2.5601
   14MOL   H163 5649   6.654   2.108   4.298 -0.4664 -0.2685  1.8047
   14MOL   H164 5650   6.576   2.248   4.348  0.2648 -0.1244  0.2048
   14MOL   H165 5651   6.420   1.991   4.294  2.6692  0.2150 -0.7723
   14MOL   H166 5652   6.359   2.142   4.367  0.5696  0.6484 -1.2659
   14MOL   H167 5653   6.416   1.956   4.549 -1.2371  0.7407 -0.9206
   14MOL   H168 5654   6.510   2.094   4.570  0.3891  0.0584 -0.2931
   14MOL   H169 5655   6.584   1.964   4.490 -0.5624 -2.5330  1.4545
   14MOL   C170 5656   6.110   2.347   4.047 -0.3804  1.3425  0.1919
   14MOL   C171 5657   6.082   2.219   3.965  0.7013 -0.4791 -0.4179
   14MOL   C172 5658   6.135   2.079   4.026 -1.0781  0.2150  0.1423
   14MOL   O173 5659   6.099   2.036   4.133 -0.8761  0.1772 -0.3642
   14MOL   O174 5660   6.220   2.022   3.937 -0.1258  0.0747 -0.4041
   14MOL   C175 5661   6.288   1.898   3.967 -0.9555  0.2223 -0.0643
   14MOL   C176 5662   6.381   1.849   3.857 -0.3730 -0.5419 -0.3682
   14MOL   C177 5663   6.520   1.921   3.848 -0.0674 -0.1566  0.6974
   14MOL   C178 5664   6.628   1.848   3.763 -0.5410  0.7070  0.1860
   14MOL   H179 5665   6.021   2.410   4.046  0.4717  2.5746  0.1810
   14MOL   H180 5666   6.129   2.326   4.153  1.7897 -1.9722 -0.7555
   14MOL   H181 5667   6.136   2.225   3.871 -0.2921  0.5077 -0.9290
   14MOL   H182 5668   6.213   1.827   4.003 -1.7326  1.2922  0.4478
   14MOL   H183 5669   6.364   1.925   4.041 -1.6210  0.3036  0.5964
   14MOL   H184 5670   6.413   1.750   3.890  0.6764  0.0943  0.5460
   14MOL   H185 5671   6.346   1.848   3.754 -1.1598  3.2362 -0.2079
   14MOL   H186 5672   6.553   1.923   3.952 -0.1627 -0.0462  0.7257
   14MOL   H187 5673   6.504   2.025   3.817  2.4460 -0.0800 -0.5263
   14MOL   H188 5674   6.651   1.750   3.805 -1.4334 -0.0362 -1.0449
   14MOL   H189 5675   6.726   1.893   3.746 -1.1101  0.4370 -4.2254
   14MOL   H190 5676   6.588   1.820   3.666 -0.1754  1.8819 -0.3161
   14MOL   C191 5677   5.932   2.205   3.940 -0.3559 -0.4039  0.4841
   14MOL   C192 5678   5.854   2.293   3.839  0.5544 -0.2103 -0.7198
   14MOL   C193 5679   5.880   2.266   3.699 -0.5559 -0.6983  0.5781
   14MOL   O194 5680   5.826   2.330   3.613  0.2506  0.2787  0.2125
   14MOL   O195 5681   5.977   2.173   3.689  0.4448  0.6247 -0.5055
   14MOL   C196 5682   6.009   2.135   3.557  0.2324 -0.0266  0.1298
   14MOL   C197 5683   6.089   2.241   3.479 -0.6175  0.2771 -0.0450
   14MOL   C198 5684   6.204   2.313   3.563 -1.1073 -0.2329  0.0272
   14MOL   C199 5685   6.320   2.221   3.607  0.1939 -0.1670  0.0732
   14MOL   H200 5686   5.899   2.219   4.043  1.9354  0.1735  1.1619
   14MOL   H201 5687   5.915   2.098   3.923  2.0310 -0.6595 -0.4928
   14MOL   H202 5688   5.884   2.395   3.864  3.6332 -1.2235 -0.1091
   14MOL   H203 5689   5.920   2.108   3.500 -0.6923 -0.5938  1.8003
   14MOL   H204 5690   6.070   2.047   3.575  0.9849  0.4636  0.0091
   14MOL   H205 5691   6.126   2.191   3.389 -0.4769 -0.9083  0.6582
   14MOL   H206 5692   6.027   2.328   3.456 -0.5816  0.4740  0.6032
   14MOL   H207 5693   6.160   2.345   3.657 -0.6539  1.0422 -0.1734
   14MOL   H208 5694   6.239   2.398   3.504 -0.9331 -0.4534 -0.1876
   14MOL   H209 5695   6.358   2.179   3.514  1.1733  1.0195 -0.0826
   14MOL   H210 5696   6.282   2.142   3.672 -0.6126  0.2768  0.1537
   14MOL   H211 5697   6.389   2.281   3.667 -0.8304  0.6603  0.4460
   14MOL   C212 5698   5.703   2.306   3.872  0.5488  0.6073  0.0072
   14MOL   C213 5699   5.650   2.325   4.017  1.0001  0.4687 -0.0659
   14MOL   C214 5700   5.722   2.441   4.086  0.5896  0.1169  0.1998
   14MOL   O215 5701   5.749   2.540   4.020 -0.0123 -0.3595 -0.3895
   14MOL   O216 5702   5.756   2.416   4.210 -0.0119  0.1081  0.2506
   14MOL   C217 5703   5.842   2.508   4.282 -0.0277  0.1960  0.4471
   14MOL   C218 5704   5.770   2.609   4.371 -0.4722 -0.4154 -0.1785
   14MOL   C219 5705   5.864   2.704   4.443 -0.1317 -0.3161 -0.1031
   14MOL   C220 5706   5.793   2.799   4.541 -0.5213  0.5408 -0.0761
   14MOL   H221 5707   5.645   2.224   3.829  0.2841  0.1257  1.2628
   14MOL   H222 5708   5.662   2.386   3.811 -0.7151  1.0205  1.3564
   14MOL   H223 5709   5.679   2.234   4.069 -0.7724  0.3878  0.8362
   14MOL   H224 5710   5.903   2.560   4.208  1.0550 -1.3253  0.2457
   14MOL   H225 5711   5.906   2.450   4.349  1.3615  1.1905 -0.0103
   14MOL   H226 5712   5.689   2.657   4.316  1.0116 -1.6385 -3.6004
   14MOL   H227 5713   5.715   2.556   4.449  0.4090  1.0936  1.4919
   14MOL   H228 5714   5.923   2.758   4.369  0.4576 -1.1536 -0.2576
   14MOL   H229 5715   5.950   2.657   4.492  1.4931  1.5301 -1.1087
   14MOL   H230 5716   5.864   2.846   4.610 -0.5112 -1.2007  1.1216
   14MOL   H231 5717   5.733   2.740   4.610 -2.4302  1.9663 -0.4790
   14MOL   H232 5718   5.737   2.879   4.493 -1.8085  2.1565  3.8531
   14MOL   C233 5719   5.498   2.348   4.039 -0.4511  0.0260  0.1473
   14MOL   C234 5720   5.403   2.232   4.008 -0.5898  0.3393 -0.1117
   14MOL   C235 5721   5.391   2.135   4.128 -0.5837  0.5322  0.1101
   14MOL   O236 5722   5.295   2.100   4.198  0.0160  0.2303  0.3336
   14MOL   O237 5723   5.515   2.073   4.145 -0.3281  0.6168 -0.5198
   14MOL   C238 5724   5.534   1.973   4.238  0.1476  0.1355 -0.6625
   14MOL   C239 5725   5.682   1.962   4.282 -0.0351 -0.3881 -0.3484
   14MOL   C240 5726   5.735   2.079   4.364  0.4682 -0.1286  0.2468
   14MOL   C241 5727   5.869   2.047   4.425 -0.1503  0.8319 -0.0343
   14MOL   H242 5728   5.478   2.424   3.963  2.0297 -0.7755 -1.3726
   14MOL   H243 5729   5.469   2.380   4.139 -3.7830  2.6111 -1.5231
   14MOL   H244 5730   5.453   2.175   3.929 -0.1250  2.9010 -1.7277
   14MOL   H245 5731   5.505   1.874   4.201 -1.8025 -0.7276  2.9088
   14MOL   H246 5732   5.469   1.974   4.326  0.9077  1.9431 -0.1157
   14MOL   H247 5733   5.701   1.867   4.331  1.8882 -0.2780 -0.8424
   14MOL   H248 5734   5.742   1.958   4.191  0.3702 -0.2507 -0.0890
   14MOL   H249 5735   5.671   2.097   4.450  2.4991  2.5615  1.2781
   14MOL   H250 5736   5.721   2.174   4.311  0.5716  0.2264  0.8544
   14MOL   H251 5737   5.941   2.011   4.351  0.5545 -1.3543  1.6774
   14MOL   H252 5738   5.870   1.974   4.506 -1.4664  0.4518 -0.3350
   14MOL   H253 5739   5.920   2.138   4.458 -0.4967  0.3975  1.7214
   14MOL   C254 5740   5.264   2.276   3.958 -0.8223 -0.2649  0.0956
   14MOL   C255 5741   5.267   2.332   3.808  0.0277  0.0402 -0.8007
   14MOL   C256 5742   5.263   2.218   3.703  0.4921 -0.3245  0.7291
   14MOL   O257 5743   5.344   2.124   3.707 -0.4009 -0.0692  0.1454
   14MOL   O258 5744   5.177   2.225   3.597 -0.3325  0.1228 -0.2681
   14MOL   C259 5745   5.171   2.116   3.505 -0.1356  0.7480  0.4248
   14MOL   C260 5746   5.032   2.074   3.497 -0.3145  0.6439  0.2490
   14MOL   C261 5747   4.989   2.014   3.628  0.3139  0.1998 -0.5104
   14MOL   C262 5748   4.847   1.970   3.611 -0.0784  0.4861 -0.2726
   14MOL   H263 5749   5.230   2.353   4.027 -0.1487  0.0072  0.1223
   14MOL   H264 5750   5.188   2.198   3.971 -1.2803  0.4532  1.9715
   14MOL   H265 5751   5.366   2.378   3.804  1.0266 -2.1790 -2.4715
   14MOL   H266 5752   5.231   2.029   3.532  1.4709  1.5164 -0.5376
   14MOL   H267 5753   5.209   2.152   3.409  2.1261 -1.0222  0.6151
   14MOL   H268 5754   4.983   2.169   3.477  0.2902  0.8144 -0.4573
   14MOL   H269 5755   5.018   2.008   3.411  0.5185  1.9944 -0.9477
   14MOL   H270 5756   4.999   2.076   3.717 -0.0346 -2.3185  1.3439
   14MOL   H271 5757   5.047   1.922   3.640 -1.8335 -1.0421  0.7274
   14MOL   H272 5758   4.845   1.893   3.534  1.2886 -0.3684  0.5140
   14MOL   H273 5759   4.775   2.041   3.571  0.0873 -0.6644 -2.7117
   14MOL   H274 5760   4.797   1.933   3.701  2.5391 -0.3228  0.9072
   14MOL   C275 5761   5.161   2.448   3.788  0.3058  0.0277 -0.2604
   14MOL   C276 5762   5.192   2.537   3.669 -0.8399 -0.0536 -0.5167
   14MOL   C277 5763   5.060   2.592   3.599 -0.8996 -0.0449  0.4001
   14MOL   O278 5764   5.021   2.704   3.611 -0.0202  0.4754 -0.2544
   14MOL   O279 5765   5.002   2.502   3.518  0.0144 -0.7905 -0.1695
   14MOL   C280 5766   4.901   2.535   3.425 -0.2135 -0.8229 -0.8792
   14MOL   C281 5767   4.831   2.409   3.379  0.7044  0.3385  0.4415
   14MOL   C282 5768   4.718   2.368   3.474  0.3016 -0.2761  0.5806
   14MOL   C283 5769   4.641   2.246   3.417 -0.0436 -0.4717  0.7068
   14MOL   H284 5770   5.158   2.503   3.882  0.8220 -0.0978 -0.1647
   14MOL   H285 5771   5.064   2.399   3.783 -0.4933  1.7247 -1.2901
   14MOL   H286 5772   5.252   2.473   3.605  0.5997 -0.2986  1.0554
   14MOL   H287 5773   4.952   2.596   3.351  0.0333  2.4318  1.8796
   14MOL   H288 5774   4.832   2.606   3.471  0.1241 -0.3529 -1.0983
   14MOL   H289 5775   4.780   2.429   3.285  1.1030  1.0326  0.3630
   14MOL   H290 5776   4.888   2.321   3.352  2.0651  0.9726  1.1750
   14MOL   H291 5777   4.653   2.453   3.494  1.2579  0.5661  0.2109
   14MOL   H292 5778   4.757   2.340   3.571  0.1496  0.4265  0.8470
   14MOL   H293 5779   4.565   2.209   3.486  0.9181  1.2363  2.7335
   14MOL   H294 5780   4.715   2.168   3.398  0.8488  0.9996 -2.0755
   14MOL   H295 5781   4.590   2.261   3.322 -0.3915  0.1559  0.9925
   14MOL   C296 5782   5.274   2.663   3.717 -0.2937  0.2169 -0.1156
   14MOL   C297 5783   5.386   2.722   3.630 -0.0128  0.6683 -0.2846
   14MOL   C298 5784   5.506   2.623   3.602  0.3879 -0.8567  0.5554
   14MOL   O299 5785   5.490   2.505   3.592  0.0976  0.2383  0.0464
   14MOL   O300 5786   5.619   2.704   3.601  0.3004  0.1732 -0.9332
   14MOL   C301 5787   5.734   2.650   3.543 -0.0447 -0.5636  0.0140
   14MOL   C302 5788   5.857   2.688   3.626  0.7390 -0.2685  0.0396
   14MOL   C303 5789   6.000   2.660   3.575 -0.3125 -0.0942 -0.4996
   14MOL   C304 5790   6.108   2.704   3.678  0.6590  0.1871 -0.2382
   14MOL   H305 5791   5.322   2.632   3.810 -0.7060  3.8744  1.3913
   14MOL   H306 5792   5.212   2.745   3.753  0.0882  1.2773 -1.8026
   14MOL   H307 5793   5.425   2.809   3.682  3.4895  0.0667 -1.7616
   14MOL   H308 5794   5.743   2.670   3.436 -0.6041  1.9385  0.3888
   14MOL   H309 5795   5.729   2.541   3.542  0.1583 -0.5864  0.9040
   14MOL   H310 5796   5.849   2.794   3.652 -0.3710  0.0622 -1.5662
   14MOL   H311 5797   5.850   2.632   3.719  0.9481  0.1845  0.3317
   14MOL   H312 5798   6.021   2.718   3.485 -0.0278 -0.4395 -0.6574
   14MOL   H313 5799   5.992   2.552   3.559  1.2220 -0.2361 -0.3770
   14MOL   H314 5800   6.201   2.652   3.655  0.0545 -0.1258 -2.0880
   14MOL   H315 5801   6.082   2.676   3.780  0.6644  1.4260  0.1069
   14MOL   H316 5802   6.129   2.811   3.672 -0.5202  0.3443 -2.0310
   14MOL   C317 5803   5.329   2.777   3.494 -0.0480 -0.5773 -0.0589
   14MOL   C318 5804   5.425   2.851   3.396 -0.0420  0.5241 -0.3402
   14MOL   C319 5805   5.339   2.870   3.266 -0.4954 -0.5151  0.8049
   14MOL   O320 5806   5.297   2.986   3.243 -0.5502  0.8152 -0.1032
   14MOL   O321 5807   5.313   2.760   3.192 -0.6805 -0.1991 -0.0146
   14MOL   C322 5808   5.234   2.767   3.076 -0.7484  0.3563 -0.3158
   14MOL   C323 5809   5.082   2.732   3.110 -0.9166  0.1637  0.3576
   14MOL   C324 5810   4.983   2.747   2.990  0.5269  0.3308  0.3772
   14MOL   C325 5811   4.979   2.898   2.957  0.1576 -0.3329  0.2760
   14MOL   H326 5812   5.238   2.837   3.503 -0.1740 -0.7608 -0.0886
   14MOL   H327 5813   5.299   2.689   3.436 -0.5789 -0.6779  0.3584
   14MOL   H328 5814   5.500   2.779   3.364 -0.2070  0.4708 -0.6030
   14MOL   H329 5815   5.287   2.702   3.006 -0.1373  0.9915 -0.4481
   14MOL   H330 5816   5.242   2.868   3.036  0.6874 -0.2831 -1.7114
   14MOL   H331 5817   5.077   2.632   3.155  0.8350 -0.3872 -0.5877
   14MOL   H332 5818   5.047   2.795   3.191 -0.0219  0.8562  0.2178
   14MOL   H333 5819   4.885   2.705   3.013 -0.5571  2.8410  0.4615
   14MOL   H334 5820   5.014   2.691   2.901  0.3658  0.7100  0.0835
   14MOL   H335 5821   4.908   2.901   2.874  0.8416  1.0662 -0.2640
   14MOL   H336 5822   5.076   2.937   2.926 -0.3139  0.6800  0.0640
   14MOL   H337 5823   4.944   2.966   3.034 -0.1472  1.0597 -1.0674
   14MOL   C338 5824   5.484   2.976   3.467  0.2986  0.0277  0.2671
   14MOL   C339 5825   5.579   3.062   3.381 -0.0676 -0.3615 -0.3950
   14MOL   C340 5826   5.597   3.203   3.444  0.0184  0.5979  0.0726
   14MOL   O341 5827   5.573   3.225   3.565 -0.2762  0.4868 -0.4195
   14MOL   O342 5828   5.641   3.288   3.356  0.3599 -0.5196  0.5909
   14MOL   C343 5829   5.661   3.432   3.385  0.6359  0.2699  0.3765
   14MOL   C344 5830   5.560   3.500   3.299  0.1562 -0.1585 -0.1934
   14MOL   C345 5831   5.420   3.461   3.344 -0.2455  0.2864  0.7180
   14MOL   C346 5832   5.328   3.539   3.244 -0.7369 -0.0406 -0.3145
   14MOL   H347 5833   5.535   2.940   3.556 -1.3842  0.5520  1.4502
   14MOL   H348 5834   5.400   3.032   3.506  0.0555 -1.2899  1.6821
   14MOL   H349 5835   5.530   3.077   3.285 -0.3975  0.8379 -0.0473
   14MOL   H350 5836   5.763   3.456   3.355  0.0620  0.6817 -1.2558
   14MOL   H351 5837   5.652   3.457   3.491  1.9509 -0.5034  0.6815
   14MOL   H352 5838   5.572   3.608   3.310  0.5135 -0.0827 -1.2624
   14MOL   H353 5839   5.586   3.470   3.198  1.4525  2.7931 -0.8013
   14MOL   H354 5840   5.396   3.494   3.445  0.9123  3.6111 -0.0190
   14MOL   H355 5841   5.396   3.356   3.329 -1.4967  0.3896  1.9585
   14MOL   H356 5842   5.340   3.499   3.144  2.4436  0.5217 -0.2253
   14MOL   H357 5843   5.352   3.645   3.241  2.9301 -0.7576  0.6456
   14MOL   H358 5844   5.222   3.519   3.260 -0.6319  0.4901  1.1578
   14MOL   C359 5845   5.708   2.980   3.347 -0.7904  0.2040  0.2454
   14MOL   C360 5846   5.776   3.017   3.213 -0.5219  1.0390 -0.2306
   14MOL   C361 5847   5.907   2.945   3.187 -0.0408  0.1968 -0.2494
   14MOL   O362 5848   5.917   2.836   3.128 -0.0321  0.1731 -0.4593
   14MOL   O363 5849   6.012   3.026   3.223 -0.3461 -0.0264  0.1841
   14MOL   C364 5850   6.152   2.981   3.209  0.6006 -0.8424  0.4736
   14MOL   C365 5851   6.200   2.886   3.314 -0.1363  0.6726  0.1079
   14MOL   C366 5852   6.354   2.863   3.316  0.1289  0.3271  0.4451
   14MOL   C367 5853   6.390   2.762   3.427 -0.3397  0.2050 -0.2479
   14MOL   H368 5854   5.682   2.875   3.349 -2.7630  0.6443 -0.9186
   14MOL   H369 5855   5.784   2.996   3.424  0.9783 -0.1466 -1.3631
   14MOL   H370 5856   5.801   3.122   3.225  2.1923  0.4507 -0.5954
   14MOL   H371 5857   6.223   3.064   3.218 -0.5668  0.5108 -2.2486
   14MOL   H372 5858   6.184   2.945   3.110  2.8310  2.7961 -0.2415
   14MOL   H373 5859   6.171   2.926   3.412 -0.3218 -2.4100  1.3724
   14MOL   H374 5860   6.151   2.790   3.298  1.8326 -0.4834  0.8471
   14MOL   H375 5861   6.409   2.956   3.326 -2.7377  1.7690  3.6138
   14MOL   H376 5862   6.374   2.816   3.220  2.2813 -1.3197  1.6579
   14MOL   H377 5863   6.371   2.819   3.518 -1.0346 -0.3075 -0.0739
   14MOL   H378 5864   6.493   2.725   3.430 -1.0841 -1.8119  1.5617
   14MOL   H379 5865   6.316   2.682   3.430  0.5456 -0.6293 -0.2644
   14MOL   C380 5866   5.686   3.001   3.088 -0.1754  0.7276  0.9259
   14MOL   C381 5867   5.606   3.133   3.043 -0.5050 -0.0366  0.2428
   14MOL   C382 5868   5.701   3.238   2.989 -0.6269 -0.0725 -0.1887
   14MOL   O383 5869   5.710   3.349   3.044 -0.0489 -0.1127  0.0521
   14MOL   O384 5870   5.775   3.193   2.886  0.0952  0.8086 -0.3826
   14MOL   C385 5871   5.876   3.274   2.830  1.1926 -0.6210  0.2737
   14MOL   C386 5872   5.995   3.257   2.916  0.0715  0.5137 -0.1026
   14MOL   C387 5873   6.135   3.288   2.865 -0.2342  0.1864 -0.3009
   14MOL   C388 5874   6.253   3.231   2.951 -0.3267  0.1431  0.1979
   14MOL   H389 5875   5.614   2.921   3.100  0.4408  0.0883  0.3906
   14MOL   H390 5876   5.741   2.966   3.001 -0.7673  1.1654  0.3709
   14MOL   H391 5877   5.562   3.186   3.127  0.5401 -1.1213  1.4892
   14MOL   H392 5878   5.849   3.379   2.822  0.1791 -1.0043 -1.7252
   14MOL   H393 5879   5.886   3.248   2.725 -1.8890  1.9693 -0.7419
   14MOL   H394 5880   5.980   3.317   3.006 -2.2011  0.0963 -0.1771
   14MOL   H395 5881   6.004   3.159   2.962 -0.7288  0.0367 -0.9568
   14MOL   H396 5882   6.132   3.396   2.848 -1.6071  0.6056  2.4458
   14MOL   H397 5883   6.141   3.253   2.762  0.0845  0.3471 -0.3366
   14MOL   H398 5884   6.250   3.274   3.051  1.2526  0.5199  0.0925
   14MOL   H399 5885   6.345   3.269   2.906  0.5638  0.2822  2.1096
   14MOL   H400 5886   6.257   3.122   2.952  0.2100  0.1594  0.1389
   14MOL   C401 5887   5.498   3.106   2.932  0.5078 -0.7195 -0.5327
   14MOL   C402 5888   5.397   3.219   2.919 -0.2899  0.1491 -0.5160
   14MOL   C403 5889   5.284   3.189   2.819 -0.1036 -0.3178 -0.6207
   14MOL   O404 5890   5.168   3.178   2.853  0.3930  0.1374  0.1589
   14MOL   O405 5891   5.334   3.163   2.690  0.1686  0.1271  0.0886
   14MOL   C406 5892   5.243   3.135   2.592  0.1647  0.1852  0.2925
   14MOL   C407 5893   5.319   3.063   2.470 -0.7046 -0.7688  0.8824
   14MOL   C408 5894   5.401   3.161   2.380 -0.4661  0.4581 -0.2485
   14MOL   C409 5895   5.450   3.095   2.248 -0.3839  0.4569  0.5439
   14MOL   H410 5896   5.459   3.007   2.955  2.1074 -1.2193  0.0782
   14MOL   H411 5897   5.546   3.077   2.839  1.2898  1.9617 -1.0018
   14MOL   H412 5898   5.454   3.304   2.882 -1.1836  1.3325  0.7780
   14MOL   H413 5899   5.167   3.209   2.567  0.4326  0.8551  1.4199
   14MOL   H414 5900   5.191   3.055   2.644  0.3017  0.6309  1.1246
   14MOL   H415 5901   5.391   2.995   2.514 -0.2672 -1.1526 -0.4009
   14MOL   H416 5902   5.233   3.016   2.423 -1.0108  0.7747 -0.1681
   14MOL   H417 5903   5.478   3.206   2.443 -0.1578 -1.2844  0.6344
   14MOL   H418 5904   5.340   3.245   2.345 -2.1992 -1.0966 -1.0199
   14MOL   H419 5905   5.369   3.095   2.175  1.8177  0.3247 -1.9516
   14MOL   H420 5906   5.496   2.997   2.260 -3.2840 -0.8961  1.0494
   14MOL   H421 5907   5.528   3.153   2.199 -0.5322 -0.6006 -1.0176
   14MOL   H422 5908   5.350   3.237   3.015  1.7607 -2.2474  0.9881
   15MOL     C1 5909   3.379   7.424   0.276  0.7653 -0.2699 -0.2259
   15MOL     C2 5910   3.349   7.410   0.430 -0.8847 -0.8842  0.2252
   15MOL     C3 5911   3.361   7.266   0.472  0.4749 -0.6140 -0.2051
   15MOL     O4 5912   3.268   7.199   0.518 -0.0459  0.0804 -0.3356
   15MOL     O5 5913   3.476   7.209   0.443  0.1855  0.1766 -0.1812
   15MOL     C6 5914   3.489   7.073   0.492  0.7201  0.0905 -0.9701
   15MOL     C7 5915   3.617   7.010   0.443 -0.2274 -0.1661  0.1872
   15MOL     C8 5916   3.738   7.031   0.532 -0.5655  1.2444 -0.2073
   15MOL     C9 5917   3.767   6.909   0.622  0.5107 -0.2779  0.3597
   15MOL    H10 5918   3.350   7.522   0.240  1.1234  0.4571  1.3954
   15MOL    H11 5919   3.483   7.401   0.252  1.7852  1.5602  2.1503
   15MOL    H12 5920   3.246   7.441   0.451 -0.7497  0.0819 -0.4790
   15MOL    H13 5921   3.405   7.015   0.452 -0.0848  1.1306 -0.8114
   15MOL    H14 5922   3.483   7.070   0.601 -1.8761  2.8007 -0.9804
   15MOL    H15 5923   3.601   6.902   0.437 -1.5748 -0.0188  0.8596
   15MOL    H16 5924   3.644   7.050   0.346 -0.7165 -0.9678 -0.2841
   15MOL    H17 5925   3.729   7.110   0.606  0.8436 -1.1916  2.6843
   15MOL    H18 5926   3.831   7.043   0.475  0.1528 -0.7013  0.4936
   15MOL    H19 5927   3.848   6.945   0.687  0.3353 -1.3091  1.1518
   15MOL    H20 5928   3.796   6.823   0.563  0.1579 -0.7538  0.8700
   15MOL    H21 5929   3.676   6.891   0.679 -0.5210  1.2484 -0.7530
   15MOL    H22 5930   3.317   7.354   0.221  1.9227 -1.1110 -0.4711
   15MOL    C23 5931   3.430   7.503   0.520  0.2805 -0.1977  0.4109
   15MOL    C24 5932   3.351   7.526   0.656  0.2070 -0.4910 -0.4487
   15MOL    C25 5933   3.442   7.530   0.781  0.3871 -0.0590 -0.0046
   15MOL    O26 5934   3.423   7.467   0.881  0.2682 -0.1027  0.6574
   15MOL    O27 5935   3.545   7.609   0.762 -0.2758 -0.6567  0.4455
   15MOL    C28 5936   3.652   7.621   0.853 -0.4156  0.9125  0.3424
   15MOL    C29 5937   3.779   7.565   0.795 -0.1823  0.8197  0.2039
   15MOL    C30 5938   3.780   7.412   0.789 -0.2010  0.5560 -0.0780
   15MOL    C31 5939   3.914   7.351   0.734  0.2506 -0.6458  0.2612
   15MOL    H32 5940   3.456   7.598   0.473 -0.7900  0.6904  1.5750
   15MOL    H33 5941   3.529   7.459   0.530  0.7545  0.9143  0.7959
   15MOL    H34 5942   3.302   7.431   0.680 -1.4138  0.2783 -0.5982
   15MOL    H35 5943   3.641   7.571   0.950 -0.3167  0.7324  0.2599
   15MOL    H36 5944   3.670   7.728   0.862 -0.5550  1.2797 -3.2048
   15MOL    H37 5945   3.782   7.601   0.693 -0.6437 -0.0748 -0.1275
   15MOL    H38 5946   3.862   7.608   0.852  0.7601 -0.4753 -0.1726
   15MOL    H39 5947   3.692   7.397   0.726  0.7683  0.4968 -1.4545
   15MOL    H40 5948   3.757   7.378   0.890 -0.0796 -3.0479 -1.2085
   15MOL    H41 5949   3.913   7.242   0.723  0.5942 -0.9272  2.6369
   15MOL    H42 5950   3.999   7.373   0.799  1.2673 -1.2340 -0.8511
   15MOL    H43 5951   3.934   7.397   0.638 -2.8262  1.3419  0.5080
   15MOL    C44 5952   3.251   7.647   0.646  0.4034 -0.5855 -0.1315
   15MOL    C45 5953   3.149   7.653   0.762 -0.3090 -0.3835 -0.4514
   15MOL    C46 5954   3.077   7.790   0.758  0.1231  0.3319 -0.3304
   15MOL    O47 5955   3.075   0.020   0.851 -0.3976  0.2397  0.2111
   15MOL    O48 5956   3.008   7.813   0.649 -0.0004 -0.3504  0.1420
   15MOL    C49 5957   2.920   0.070   0.647 -0.0278 -0.3506  0.1531
   15MOL    C50 5958   2.788   0.026   0.699 -0.5492 -0.3820  0.8343
   15MOL    C51 5959   2.716   7.767   0.624 -0.0686 -0.1867 -0.6370
   15MOL    C52 5960   2.621   7.692   0.713  0.3073  0.8046  0.0743
   15MOL    H53 5961   3.191   7.642   0.555  0.4159  1.4223 -0.2890
   15MOL    H54 5962   3.318   7.733   0.638  0.2778 -0.5981 -1.4686
   15MOL    H55 5963   3.199   7.647   0.859 -0.4079 -1.6965 -0.4727
   15MOL    H56 5964   2.910   0.098   0.542  0.9149 -0.2290  0.0888
   15MOL    H57 5965   2.969   0.151   0.701  3.1945 -3.2777  1.8408
   15MOL    H58 5966   2.806   0.003   0.804  2.2113  0.4358  0.5736
   15MOL    H59 5967   2.730   0.118   0.704  0.5135  0.3922 -0.5692
   15MOL    H60 5968   2.792   7.699   0.587 -2.6058 -3.5249  0.0477
   15MOL    H61 5969   2.671   7.809   0.534  0.4732  1.9941  0.0803
   15MOL    H62 5970   2.535   7.746   0.753  0.3970 -1.6231  3.8438
   15MOL    H63 5971   2.681   7.642   0.789 -0.0904  0.9984  0.5178
   15MOL    H64 5972   2.585   7.606   0.657 -0.1814  0.3076  1.1339
   15MOL    C65 5973   3.053   7.534   0.745 -0.1215 -0.0780 -0.2580
   15MOL    C66 5974   3.055   7.419   0.852 -0.4655  0.1687 -0.8298
   15MOL    C67 5975   2.959   7.451   0.967  0.5542 -0.0872 -0.6925
   15MOL    O68 5976   2.865   7.385   1.004 -0.0773 -0.1202 -0.0307
   15MOL    O69 5977   2.997   7.561   1.038  0.2746 -0.0136  0.4469
   15MOL    C70 5978   2.927   7.604   1.152 -0.1141 -0.0393 -0.0458
   15MOL    C71 5979   2.811   7.698   1.130  0.5533  0.0887 -0.1171
   15MOL    C72 5980   2.712   7.682   1.241 -0.0096  0.5005 -0.1844
   15MOL    C73 5981   2.770   7.733   1.379 -0.4155 -0.0562  0.6080
   15MOL    H74 5982   3.060   7.489   0.646 -1.4563  0.8675 -0.7883
   15MOL    H75 5983   2.948   7.561   0.747  0.2118  1.1858  1.5121
   15MOL    H76 5984   3.157   7.414   0.889 -0.5544  0.4911 -0.5399
   15MOL    H77 5985   3.008   7.660   1.198 -0.8684 -0.2995  1.6347
   15MOL    H78 5986   2.896   7.524   1.219 -0.7691  0.3316  0.1030
   15MOL    H79 5987   2.852   7.796   1.109  3.4187 -1.1416 -0.4796
   15MOL    H80 5988   2.769   7.680   1.031  2.6326  2.3015 -1.4248
   15MOL    H81 5989   2.694   7.579   1.272  1.0826  0.0755 -0.9243
   15MOL    H82 5990   2.620   7.726   1.203 -0.9961 -1.2023  0.1828
   15MOL    H83 5991   2.870   7.691   1.394 -0.1424  0.7824  1.1831
   15MOL    H84 5992   2.697   7.714   1.458 -0.5303 -0.7529  0.3319
   15MOL    H85 5993   2.775   7.841   1.396 -2.6245  0.0315  0.8520
   15MOL    C86 5994   3.015   7.286   0.776 -0.3842  0.0255 -0.2182
   15MOL    C87 5995   3.040   7.152   0.856 -0.2065 -0.8995 -0.0983
   15MOL    C88 5996   2.939   7.051   0.830 -0.0603 -0.0393  0.2859
   15MOL    O89 5997   2.882   7.042   0.725  0.3157 -0.4708 -0.9518
   15MOL    O90 5998   2.915   6.966   0.934 -0.1124 -0.2366 -0.7681
   15MOL    C91 5999   2.820   6.867   0.923  0.0802  0.0469  0.0004
   15MOL    C92 6000   2.680   6.923   0.939  0.6803 -0.0053  0.0808
   15MOL    C93 6001   2.579   6.815   0.969 -0.3393 -0.1522 -0.4738
   15MOL    C94 6002   2.436   6.859   0.950  0.7416  0.4176 -0.1164
   15MOL    H95 6003   3.049   7.275   0.673 -0.1358 -1.1009 -0.0276
   15MOL    H96 6004   2.908   7.293   0.754 -0.1417  0.1374 -1.4115
   15MOL    H97 6005   3.029   7.178   0.961  0.1071  0.1098 -0.3002
   15MOL    H98 6006   2.839   6.789   0.996 -2.5994  2.0548  2.9747
   15MOL    H99 6007   2.830   6.811   0.830  0.2640 -1.0435  0.6752
   15MOL   H100 6008   2.690   6.992   1.022  2.6558  1.3309 -1.2225
   15MOL   H101 6009   2.652   6.983   0.852 -1.1703  0.5626  1.0497
   15MOL   H102 6010   2.593   6.788   1.074 -1.0540  1.1263 -0.0345
   15MOL   H103 6011   2.595   6.724   0.910 -1.2080 -1.4073  1.1813
   15MOL   H104 6012   2.369   6.786   0.996  1.5559 -0.4121 -0.2503
   15MOL   H105 6013   2.404   6.866   0.846  2.8061 -0.1666 -0.8059
   15MOL   H106 6014   2.410   6.954   0.998  1.8571 -1.0596  3.5746
   15MOL   C107 6015   3.185   7.095   0.834  0.0449 -0.0035  0.2396
   15MOL   C108 6016   3.277   7.110   0.956  0.4040 -0.3936 -0.1505
   15MOL   C109 6017   3.220   7.029   1.075 -0.7620  0.1048  0.0637
   15MOL   O110 6018   3.220   6.908   1.081  0.1826  0.6033 -0.2783
   15MOL   O111 6019   3.156   7.108   1.165 -0.0115 -0.1354 -0.6882
   15MOL   C112 6020   3.098   7.067   1.286 -0.1248 -0.0673  0.2825
   15MOL   C113 6021   2.951   7.118   1.283 -0.5311 -0.7014  0.1488
   15MOL   C114 6022   2.935   7.261   1.343  1.4365 -0.4192 -0.2794
   15MOL   C115 6023   2.790   7.320   1.343 -0.2971 -0.9253 -0.3082
   15MOL   H116 6024   3.221   7.152   0.749 -0.8763  1.5117  0.8380
   15MOL   H117 6025   3.183   6.992   0.799 -0.5879  0.2832 -0.5658
   15MOL   H118 6026   3.276   7.217   0.975  0.6964 -0.7809  2.2760
   15MOL   H119 6027   3.143   7.081   1.385  0.0031  2.6931 -0.1306
   15MOL   H120 6028   3.075   6.961   1.283  0.0034 -0.1062  0.6556
   15MOL   H121 6029   2.906   7.107   1.185  1.3100 -2.7335 -0.5102
   15MOL   H122 6030   2.892   7.043   1.335  0.2171 -0.5841  1.2082
   15MOL   H123 6031   3.001   7.337   1.302  1.6079 -0.1562  0.4611
   15MOL   H124 6032   2.973   7.249   1.445 -3.7028 -2.4949  1.5549
   15MOL   H125 6033   2.716   7.245   1.372 -0.8823  0.2889  1.4038
   15MOL   H126 6034   2.758   7.343   1.241  0.6096  1.6560 -0.0509
   15MOL   H127 6035   2.772   7.406   1.407  1.6546 -1.2180  0.6753
   15MOL   C128 6036   3.424   7.061   0.926  0.7478 -0.2496 -0.2952
   15MOL   C129 6037   3.539   7.087   1.027  0.1475  0.1940  0.3201
   15MOL   C130 6038   3.676   7.046   0.965  0.2537 -0.8404  0.3128
   15MOL   O131 6039   3.723   7.100   0.870  1.0145  0.0572  0.4474
   15MOL   O132 6040   3.722   6.932   1.033  0.3864  0.2625 -0.1834
   15MOL   C133 6041   3.860   6.881   1.018  0.0554 -0.2434  0.1411
   15MOL   C134 6042   3.951   6.940   1.133 -0.3783 -0.0648 -0.1725
   15MOL   C135 6043   4.094   6.906   1.126 -0.1958  0.4762 -0.4222
   15MOL   C136 6044   4.184   6.956   1.244 -0.2967  0.4354 -0.3811
   15MOL   H137 6045   3.458   7.118   0.840 -1.5433  1.0484 -0.3752
   15MOL   H138 6046   3.419   6.958   0.892  0.5490  0.0476 -1.1646
   15MOL   H139 6047   3.518   7.022   1.112  0.3949  0.7574  0.8201
   15MOL   H140 6048   3.903   6.908   0.921 -1.3351  1.0120 -0.1472
   15MOL   H141 6049   3.863   6.773   1.014 -1.7216 -0.3093  0.3921
   15MOL   H142 6050   3.943   7.049   1.121  2.1795  0.1980  0.2943
   15MOL   H143 6051   3.913   6.905   1.229 -0.7410 -0.8295 -0.5916
   15MOL   H144 6052   4.138   6.932   1.030 -0.8776  0.8926 -0.6243
   15MOL   H145 6053   4.085   6.797   1.129 -2.1377  0.6620  1.8122
   15MOL   H146 6054   4.154   6.926   1.345 -0.2450  1.1029 -0.1677
   15MOL   H147 6055   4.177   7.064   1.243 -0.1422  0.4936  2.0779
   15MOL   H148 6056   4.287   6.927   1.224 -0.2785  0.8534 -0.8997
   15MOL   C149 6057   3.536   7.228   1.087  0.2033 -0.0440  0.4634
   15MOL   C150 6058   3.626   7.257   1.215  0.0851  0.3700 -0.0968
   15MOL   C151 6059   3.642   7.403   1.244  0.1610  0.5094  0.8594
   15MOL   O152 6060   3.743   7.470   1.212  0.8620 -0.2023  0.2088
   15MOL   O153 6061   3.534   7.460   1.299  0.5117  0.4015 -0.4680
   15MOL   C154 6062   3.538   7.600   1.333  0.0524  0.0747  0.4826
   15MOL   C155 6063   3.495   7.692   1.214  0.5180  0.5088  0.0196
   15MOL   C156 6064   3.347   7.663   1.178 -1.2135 -0.1580  0.4859
   15MOL   C157 6065   3.281   7.780   1.098  1.4190 -0.5587  0.6797
   15MOL   H158 6066   3.435   7.241   1.126  1.3107  1.4720  2.9731
   15MOL   H159 6067   3.567   7.294   1.006 -1.7032  2.3474  1.6232
   15MOL   H160 6068   3.727   7.230   1.184 -0.0706 -0.9625  0.5218
   15MOL   H161 6069   3.637   7.631   1.365 -0.7911  2.0675  1.2357
   15MOL   H162 6070   3.467   7.617   1.413  1.0614  0.3145  1.3386
   15MOL   H163 6071   3.504   7.795   1.248  0.5790  0.1151  1.2126
   15MOL   H164 6072   3.567   7.683   1.132 -1.0272  0.4206 -1.3553
   15MOL   H165 6073   3.293   7.655   1.273 -0.2045  0.3641  1.1219
   15MOL   H166 6074   3.342   7.572   1.118 -0.8489  0.0699  0.1122
   15MOL   H167 6075   3.341   7.808   1.011  0.4860  1.1620  0.5788
   15MOL   H168 6076   3.272   0.011   1.166  0.4469 -0.8895  0.9562
   15MOL   H169 6077   3.183   7.755   1.057  1.0989  0.9177  0.5069
   15MOL   C170 6078   3.596   7.164   1.342  0.4554  0.1199 -0.1500
   15MOL   C171 6079   3.718   7.097   1.418 -0.1626 -1.0137 -0.3614
   15MOL   C172 6080   3.821   7.197   1.462  0.5018  0.3087  0.3814
   15MOL   O173 6081   3.937   7.191   1.418 -0.0103 -0.0498 -0.3142
   15MOL   O174 6082   3.774   7.291   1.545 -0.6175 -0.3449  0.2016
   15MOL   C175 6083   3.840   7.417   1.562  0.6225  0.4846 -0.0377
   15MOL   C176 6084   3.829   7.465   1.708 -0.4967  0.1055  0.6965
   15MOL   C177 6085   3.687   7.458   1.765 -0.3098  0.3915  0.4045
   15MOL   C178 6086   3.671   7.533   1.895  0.0725  0.7608 -0.5556
   15MOL   H179 6087   3.530   7.081   1.317  2.0958 -1.2407 -0.0875
   15MOL   H180 6088   3.551   7.224   1.421 -0.7075  0.0876 -0.7746
   15MOL   H181 6089   3.775   7.035   1.348  1.2258 -0.4256  0.2429
   15MOL   H182 6090   3.790   7.492   1.501 -0.0714  1.3738  1.5890
   15MOL   H183 6091   3.948   7.413   1.548  0.7765 -2.2674  1.5402
   15MOL   H184 6092   3.903   7.399   1.753  0.6814 -1.0650 -2.8031
   15MOL   H185 6093   3.858   7.570   1.715 -1.2885  0.3486  0.3322
   15MOL   H186 6094   3.671   7.351   1.779  1.0245  0.6695  4.6078
   15MOL   H187 6095   3.616   7.498   1.693 -0.5295 -0.3399  0.2092
   15MOL   H188 6096   3.755   7.509   1.961 -0.6589  2.5716  1.0750
   15MOL   H189 6097   3.581   7.485   1.933  1.1880 -0.1134  1.0465
   15MOL   H190 6098   3.658   7.640   1.880  1.5651  0.9333 -0.6982
   15MOL   C191 6099   3.669   7.013   1.540  1.1691  0.1560 -0.2151
   15MOL   C192 6100   3.698   6.861   1.539  0.1634  0.4517 -0.2796
   15MOL   C193 6101   3.625   6.795   1.416 -0.2358 -1.0673  0.1772
   15MOL   O194 6102   3.678   6.715   1.336 -0.0504 -0.0111  0.0311
   15MOL   O195 6103   3.500   6.834   1.405 -0.1140 -0.3534 -0.0746
   15MOL   C196 6104   3.427   6.791   1.295  0.7232  0.3043  0.0783
   15MOL   C197 6105   3.360   6.649   1.306 -0.1634 -0.2286  0.2943
   15MOL   C198 6106   3.236   6.621   1.217 -0.6478  0.0407  0.2158
   15MOL   C199 6107   3.196   6.470   1.224  0.0377  0.0154 -0.3000
   15MOL   H200 6108   3.562   7.024   1.560  1.4693  1.3995  0.7499
   15MOL   H201 6109   3.703   7.056   1.634 -1.4737  1.1989  0.3174
   15MOL   H202 6110   3.650   6.820   1.628  0.3351 -0.5273 -0.6210
   15MOL   H203 6111   3.485   6.792   1.203 -0.1886  1.2486 -0.5020
   15MOL   H204 6112   3.349   6.865   1.276 -0.8253 -0.8895  1.6967
   15MOL   H205 6113   3.433   6.568   1.296 -0.1699 -0.2170  0.1546
   15MOL   H206 6114   3.328   6.649   1.410 -0.3529  2.1176  0.2763
   15MOL   H207 6115   3.253   6.655   1.115  0.3823 -2.8190 -0.6320
   15MOL   H208 6116   3.158   6.692   1.244  0.3486  1.2664 -0.0635
   15MOL   H209 6117   3.184   6.446   1.330  0.5096  0.7241 -0.0797
   15MOL   H210 6118   3.273   6.398   1.196  0.2623 -0.0753  0.5424
   15MOL   H211 6119   3.114   6.452   1.154  1.5710  1.8832 -2.6576
   15MOL   C212 6120   3.850   6.831   1.544  0.2371  0.5706 -0.0940
   15MOL   C213 6121   3.895   6.691   1.586  0.0231 -0.3657  0.4545
   15MOL   C214 6122   4.011   6.638   1.505 -0.5863  0.6677 -0.1815
   15MOL   O215 6123   4.111   6.708   1.470 -0.2896  0.2055  0.2274
   15MOL   O216 6124   3.990   6.503   1.486  0.1603 -0.3803  0.1921
   15MOL   C217 6125   4.091   6.436   1.419  1.0074  0.6359  0.9200
   15MOL   C218 6126   4.094   6.462   1.266 -0.3748 -0.5935 -0.2983
   15MOL   C219 6127   3.979   6.388   1.186  0.1930 -0.5093 -0.3247
   15MOL   C220 6128   4.000   6.402   1.033  0.5407  0.9085 -1.0476
   15MOL   H221 6129   3.889   6.909   1.610  1.4955 -1.1157  1.1989
   15MOL   H222 6130   3.896   6.860   1.449  0.8436  1.7591  0.5567
   15MOL   H223 6131   3.807   6.630   1.567 -0.3214  0.6539 -1.3215
   15MOL   H224 6132   4.076   6.329   1.432  0.0742  0.7717  1.0268
   15MOL   H225 6133   4.183   6.466   1.469  2.4807 -0.7448 -0.9132
   15MOL   H226 6134   4.096   6.563   1.225  0.2203 -1.1662 -1.7218
   15MOL   H227 6135   4.188   6.418   1.231 -1.2429 -1.8256 -1.1363
   15MOL   H228 6136   3.885   6.435   1.213 -0.1614 -0.9351 -0.7979
   15MOL   H229 6137   3.975   6.281   1.209 -1.8369 -0.4000 -0.0980
   15MOL   H230 6138   3.918   6.363   0.973  0.2320  1.2683 -0.8629
   15MOL   H231 6139   4.083   6.339   1.001  0.0718 -0.1478 -0.1832
   15MOL   H232 6140   4.022   6.507   1.015 -0.3111  1.6721  2.1239
   15MOL   C233 6141   3.921   6.675   1.743  0.3989  0.2167  0.1423
   15MOL   C234 6142   3.797   6.686   1.842  0.5419  0.6811 -0.4766
   15MOL   C235 6143   3.713   6.559   1.833 -0.1418  0.0958 -0.3626
   15MOL   O236 6144   3.761   6.453   1.871 -0.3491  0.1650 -0.1100
   15MOL   O237 6145   3.605   6.582   1.755  0.7065  0.2991  0.3340
   15MOL   C238 6146   3.541   6.464   1.703 -0.1902  0.3569  0.0959
   15MOL   C239 6147   3.616   6.434   1.573 -0.1248 -0.2008  0.5593
   15MOL   C240 6148   3.567   6.320   1.478 -0.9840 -0.1668  0.1343
   15MOL   C241 6149   3.646   6.332   1.347 -0.4594 -0.1791 -0.1829
   15MOL   H242 6150   4.006   6.732   1.782  0.5734  0.6038 -0.7912
   15MOL   H243 6151   3.954   6.572   1.757 -0.5704 -0.4945 -2.5261
   15MOL   H244 6152   3.742   6.774   1.810 -0.8711  0.7941  2.1689
   15MOL   H245 6153   3.433   6.466   1.689 -0.1235  2.1162 -0.1812
   15MOL   H246 6154   3.545   6.370   1.758 -0.9002 -0.9350 -1.9786
   15MOL   H247 6155   3.622   6.521   1.508 -1.6009 -1.6617 -1.6217
   15MOL   H248 6156   3.716   6.398   1.598 -0.0851  0.4345  1.3442
   15MOL   H249 6157   3.467   6.321   1.434 -0.5822  1.0915 -0.7978
   15MOL   H250 6158   3.584   6.223   1.525 -3.5795 -0.3547  0.7805
   15MOL   H251 6159   3.639   6.428   1.297  1.7141  0.9428  1.5964
   15MOL   H252 6160   3.613   6.248   1.285 -1.5953 -0.0622  0.2474
   15MOL   H253 6161   3.751   6.315   1.372 -0.2444  1.5163  0.1246
   15MOL   C254 6162   3.845   6.722   1.983  0.4154 -0.0547 -0.1983
   15MOL   C255 6163   3.723   6.780   2.063 -0.0142 -0.0791 -0.2613
   15MOL   C256 6164   3.686   6.678   2.179 -0.1102 -0.3042 -0.3335
   15MOL   O257 6165   3.710   6.697   2.297 -0.6764 -0.0289  0.1896
   15MOL   O258 6166   3.612   6.578   2.138 -0.2875 -0.0421  0.0517
   15MOL   C259 6167   3.567   6.487   2.231 -0.1898  0.3720  0.2310
   15MOL   C260 6168   3.534   6.346   2.166 -0.6851  0.3246  0.5800
   15MOL   C261 6169   3.419   6.345   2.070 -0.1279  0.3051 -0.4388
   15MOL   C262 6170   3.279   6.366   2.132 -0.0706  0.7053 -0.0723
   15MOL   H263 6171   3.914   6.806   1.968 -0.6952  0.6304 -1.7207
   15MOL   H264 6172   3.900   6.648   2.040  1.4253  0.7284 -0.1405
   15MOL   H265 6173   3.632   6.781   2.003 -1.2619  1.5884  1.5914
   15MOL   H266 6174   3.484   6.528   2.288  0.9438  2.6218  0.3147
   15MOL   H267 6175   3.643   6.465   2.306  0.2653  1.4416  0.0865
   15MOL   H268 6176   3.624   6.317   2.112 -2.5479  1.0134 -3.1120
   15MOL   H269 6177   3.523   6.268   2.241  3.4110  0.0459  0.9966
   15MOL   H270 6178   3.425   6.249   2.020 -1.1537  0.1466 -0.2679
   15MOL   H271 6179   3.437   6.420   1.992  0.7889  0.3620 -0.1850
   15MOL   H272 6180   3.202   6.365   2.055  1.0657  0.3309 -1.2030
   15MOL   H273 6181   3.265   6.455   2.194 -0.8987 -0.1000  0.9282
   15MOL   H274 6182   3.264   6.280   2.198  1.5748  0.1665 -0.3862
   15MOL   C275 6183   3.745   6.927   2.113 -0.2265 -0.5471 -0.2127
   15MOL   C276 6184   3.739   7.038   2.003  0.3029  0.3247  0.0195
   15MOL   C277 6185   3.589   7.077   1.973 -0.3949  0.1773  0.4869
   15MOL   O278 6186   3.532   7.061   1.863 -0.6748  0.2410 -0.1489
   15MOL   O279 6187   3.529   7.141   2.079 -0.0756 -0.0282 -0.2149
   15MOL   C280 6188   3.393   7.182   2.075 -0.3971 -0.1618 -0.1173
   15MOL   C281 6189   3.349   7.217   2.219  0.3679 -0.1477  0.5934
   15MOL   C282 6190   3.205   7.268   2.233  0.3582  0.1266  0.8195
   15MOL   C283 6191   3.161   7.279   2.379  0.4433  0.8892  0.1068
   15MOL   H284 6192   3.831   6.937   2.179  0.0384 -1.6032 -0.3937
   15MOL   H285 6193   3.664   6.945   2.184  0.8449  1.8401  0.4641
   15MOL   H286 6194   3.762   6.995   1.906 -1.5872 -0.0300 -0.3033
   15MOL   H287 6195   3.343   7.095   2.034 -0.6849 -1.2999  2.4906
   15MOL   H288 6196   3.379   7.271   2.014  2.2409  2.5689  2.9857
   15MOL   H289 6197   3.368   7.128   2.279 -0.0019 -2.4427 -2.5636
   15MOL   H290 6198   3.414   7.295   2.258  0.9187 -0.2047 -0.2021
   15MOL   H291 6199   3.126   7.217   2.177  2.1768  0.5264 -2.2034
   15MOL   H292 6200   3.211   7.371   2.197  1.6978 -0.5169 -0.8597
   15MOL   H293 6201   3.162   7.185   2.435 -0.0882  1.0330  0.3628
   15MOL   H294 6202   3.072   7.341   2.393  0.4743  0.9558  0.0139
   15MOL   H295 6203   3.234   7.334   2.438 -0.9503  1.4700  1.3233
   15MOL   C296 6204   3.833   7.160   2.025  0.6262  0.0075 -0.5766
   15MOL   C297 6205   3.982   7.125   1.997 -1.1124 -0.1522  0.3561
   15MOL   C298 6206   4.018   7.106   1.849 -0.3202  0.0714  0.4135
   15MOL   O299 6207   3.943   7.108   1.753  1.0255  0.3643 -0.4985
   15MOL   O300 6208   4.146   7.088   1.835 -0.1314  0.5050  0.2194
   15MOL   C301 6209   4.198   7.014   1.725  0.8888  0.3215  0.1168
   15MOL   C302 6210   4.344   7.032   1.726 -1.3437 -0.4610 -1.1053
   15MOL   C303 6211   4.420   6.971   1.604  0.0211 -0.1004  0.6347
   15MOL   C304 6212   4.566   6.940   1.631  0.0836  0.3120  0.0914
   15MOL   H305 6213   3.812   7.212   2.118  0.7485  3.1374 -2.2040
   15MOL   H306 6214   3.812   7.237   1.950  3.0697  1.3404  0.0607
   15MOL   H307 6215   4.005   7.027   2.040  2.7308  0.2538 -0.5583
   15MOL   H308 6216   4.157   7.037   1.627 -1.8505 -0.3824  1.0428
   15MOL   H309 6217   4.181   6.907   1.741  1.0695  0.0148 -1.6868
   15MOL   H310 6218   4.355   7.140   1.728 -3.0034 -0.2681 -1.1635
   15MOL   H311 6219   4.384   6.975   1.810 -0.0855  1.5130 -0.3462
   15MOL   H312 6220   4.416   7.022   1.508  0.6628  1.0683  1.2185
   15MOL   H313 6221   4.371   6.876   1.580  0.4658 -1.0305  3.2348
   15MOL   H314 6222   4.617   6.915   1.537  0.6161 -1.8411  0.9168
   15MOL   H315 6223   4.572   6.863   1.708 -1.3791 -0.6032 -0.6835
   15MOL   H316 6224   4.599   7.037   1.666  1.3230  0.6099 -1.7759
   15MOL   C317 6225   4.070   7.242   2.056  0.0640 -0.6433 -0.2384
   15MOL   C318 6226   4.161   7.204   2.171 -0.1155  0.6795 -0.6848
   15MOL   C319 6227   4.104   7.123   2.292 -1.0291 -0.2258 -0.0312
   15MOL   O320 6228   4.054   7.177   2.393 -0.1553  0.3646 -1.1761
   15MOL   O321 6229   4.120   6.991   2.276  0.3984 -0.2217  0.1312
   15MOL   C322 6230   4.075   6.901   2.381 -0.7864 -0.0475 -0.3531
   15MOL   C323 6231   4.184   6.860   2.482 -0.1945 -0.3032  0.2912
   15MOL   C324 6232   4.121   6.767   2.589 -0.4683  0.0486  0.4879
   15MOL   C325 6233   4.223   6.691   2.679 -0.2630  1.2366 -0.0828
   15MOL   H326 6234   4.006   7.318   2.099  2.4642  1.1178  0.3006
   15MOL   H327 6235   4.123   7.302   1.982  0.6734  1.6431  1.9796
   15MOL   H328 6236   4.199   7.294   2.219 -0.6146  0.9786 -0.8545
   15MOL   H329 6237   4.032   6.809   2.341 -2.0268  1.3275 -2.2216
   15MOL   H330 6238   4.001   6.951   2.443 -1.7740 -0.0027 -1.5633
   15MOL   H331 6239   4.260   6.804   2.429 -0.3648 -1.1168  0.9031
   15MOL   H332 6240   4.238   6.947   2.520 -0.0017  0.2574 -1.2370
   15MOL   H333 6241   4.055   6.693   2.544 -1.3467  0.8593  0.4539
   15MOL   H334 6242   4.056   6.833   2.645  0.7630  0.6855  1.1852
   15MOL   H335 6243   4.297   6.760   2.717  0.3166  0.6008 -0.0572
   15MOL   H336 6244   4.281   6.615   2.628  1.7620  2.5507  0.2366
   15MOL   H337 6245   4.167   6.646   2.761  1.0162 -2.1018 -0.9339
   15MOL   C338 6246   4.305   7.147   2.135 -0.1263 -0.1606 -0.0080
   15MOL   C339 6247   4.411   7.233   2.056 -0.4244  0.6142  0.2922
   15MOL   C340 6248   4.447   7.361   2.130 -0.0855 -0.5233 -0.5005
   15MOL   O341 6249   4.430   7.474   2.085 -0.5066 -0.0133 -0.1454
   15MOL   O342 6250   4.508   7.330   2.241 -0.3980 -0.4689  0.5745
   15MOL   C343 6251   4.556   7.440   2.315 -0.1716 -0.5237 -0.4098
   15MOL   C344 6252   4.674   7.399   2.399  0.1554  0.0677 -0.2683
   15MOL   C345 6253   4.641   7.303   2.515  0.1387  0.3422 -0.0914
   15MOL   C346 6254   4.757   7.272   2.611 -0.1736 -0.2201  0.0360
   15MOL   H347 6255   4.305   7.047   2.091 -0.9163 -1.5265  3.0062
   15MOL   H348 6256   4.350   7.119   2.230 -0.3271 -0.5300 -0.0209
   15MOL   H349 6257   4.367   7.266   1.962 -0.1834  1.2691  0.4051
   15MOL   H350 6258   4.472   7.463   2.382 -1.0113 -2.1262 -0.8792
   15MOL   H351 6259   4.583   7.524   2.252  0.7077 -0.9146 -0.5500
   15MOL   H352 6260   4.753   7.358   2.336  0.5803  0.1670  0.1973
   15MOL   H353 6261   4.715   7.488   2.446 -1.4951  0.4022  0.5922
   15MOL   H354 6262   4.578   7.214   2.506  0.8898 -0.3530  1.3285
   15MOL   H355 6263   4.575   7.367   2.575  0.9309  2.1365 -1.1007
   15MOL   H356 6264   4.795   7.365   2.653  1.1353 -1.8625  2.6234
   15MOL   H357 6265   4.836   7.223   2.554  1.1863  0.1691  1.5389
   15MOL   H358 6266   4.736   7.209   2.698  0.3804 -1.3142 -0.6029
   15MOL   C359 6267   4.540   7.161   1.999  0.6499 -0.1711 -0.0406
   15MOL   C360 6268   4.654   7.122   2.090  0.6679  0.1770  0.2253
   15MOL   C361 6269   4.617   7.021   2.192 -0.3854  0.7014  0.1728
   15MOL   O362 6270   4.668   7.033   2.300  0.3610 -0.6610  0.4511
   15MOL   O363 6271   4.549   6.921   2.147 -0.1923 -0.0540 -0.9946
   15MOL   C364 6272   4.535   6.802   2.229  0.1052  0.5337  0.3652
   15MOL   C365 6273   4.461   6.695   2.137 -0.1114  0.2791 -0.4020
   15MOL   C366 6274   4.312   6.723   2.128  0.7702  0.3491  0.1608
   15MOL   C367 6275   4.238   6.627   2.025 -0.7088  0.5648  0.3918
   15MOL   H368 6276   4.575   7.218   1.913  0.3310  1.1804  0.7206
   15MOL   H369 6277   4.509   7.066   1.953 -0.7885  0.2416  0.0413
   15MOL   H370 6278   4.699   7.206   2.144  2.2240 -0.2988 -0.3121
   15MOL   H371 6279   4.482   6.835   2.318 -0.6299  1.2938 -0.3385
   15MOL   H372 6280   4.637   6.770   2.251  0.6690  1.3823 -0.9080
   15MOL   H373 6281   4.493   6.703   2.033  0.6416  1.1285 -0.1164
   15MOL   H374 6282   4.492   6.594   2.162 -0.3138  0.2187 -0.3983
   15MOL   H375 6283   4.299   6.828   2.101  0.9096  0.1935 -0.5181
   15MOL   H376 6284   4.267   6.711   2.227 -0.6793  1.7147 -0.3181
   15MOL   H377 6285   4.247   6.524   2.059  2.7702  1.6507  3.1321
   15MOL   H378 6286   4.279   6.631   1.924 -0.0299  2.5244  0.7218
   15MOL   H379 6287   4.134   6.658   2.015 -0.5416  0.4112 -2.1911
   15MOL   C380 6288   4.771   7.068   2.004  0.6866 -0.6058  0.1446
   15MOL   C381 6289   4.908   7.105   2.064 -0.1242  0.6924  0.2972
   15MOL   C382 6290   5.016   7.012   2.006 -0.0469  0.2298  0.2648
   15MOL   O383 6291   4.994   6.923   1.918  0.0899  0.2799  0.2858
   15MOL   O384 6292   5.128   7.015   2.088  0.0157 -0.0499 -0.3841
   15MOL   C385 6293   5.215   6.903   2.082 -0.2959  0.4733  0.2421
   15MOL   C386 6294   5.202   6.809   2.217  0.1600 -0.0113 -0.0761
   15MOL   C387 6295   5.303   6.700   2.221  0.0092  0.2405  0.6427
   15MOL   C388 6296   5.274   6.589   2.314 -0.0345 -0.1790  0.3158
   15MOL   H389 6297   4.776   7.118   1.907  1.3370  2.2463  1.5753
   15MOL   H390 6298   4.753   6.963   1.983  0.8030 -0.6361  0.2006
   15MOL   H391 6299   4.901   7.072   2.168 -1.3865  1.8119  0.5653
   15MOL   H392 6300   5.319   6.935   2.070  0.3840 -1.6374  0.3075
   15MOL   H393 6301   5.199   6.841   1.994  0.3483  0.3115  0.2340
   15MOL   H394 6302   5.200   6.868   2.308 -1.6045 -0.0371 -0.0675
   15MOL   H395 6303   5.101   6.768   2.207 -0.1183 -0.6235  4.2586
   15MOL   H396 6304   5.394   6.745   2.260 -0.3163  0.7533  0.8101
   15MOL   H397 6305   5.321   6.667   2.119  2.2274 -0.0584  1.1009
   15MOL   H398 6306   5.270   6.622   2.418  1.1969  1.8103 -0.2249
   15MOL   H399 6307   5.356   6.519   2.300 -0.0223 -0.5402  2.1041
   15MOL   H400 6308   5.190   6.530   2.278 -0.0379  1.0274 -1.7696
   15MOL   C401 6309   4.946   7.255   2.057  0.0985  0.2545  0.4268
   15MOL   C402 6310   5.048   7.303   2.162  0.0067  0.3703  0.1989
   15MOL   C403 6311   5.074   7.450   2.139 -0.5195  0.0329  0.0938
   15MOL   O404 6312   5.189   7.488   2.116  0.5865  0.2147  0.0412
   15MOL   O405 6313   4.964   7.520   2.164 -0.3127 -0.5677 -0.0139
   15MOL   C406 6314   4.965   7.660   2.187 -0.8822 -0.5739  0.2893
   15MOL   C407 6315   4.904   7.692   2.320 -0.0080 -0.2929 -0.2447
   15MOL   C408 6316   4.976   7.634   2.439  0.3662 -0.8269 -0.5701
   15MOL   C409 6317   4.908   7.680   2.574 -0.3436  0.3292 -0.1256
   15MOL   H410 6318   4.854   7.313   2.060  0.6998  1.1704  2.4248
   15MOL   H411 6319   4.993   7.267   1.960 -0.9841 -0.8848 -0.2498
   15MOL   H412 6320   5.140   7.245   2.166  0.4362  1.1222  1.9429
   15MOL   H413 6321   4.907   7.700   2.104 -3.9468 -1.3371  2.0088
   15MOL   H414 6322   5.065   7.705   2.184 -1.1985  0.2303  1.4538
   15MOL   H415 6323   4.885   7.799   2.323  1.8572  0.0765 -0.8822
   15MOL   H416 6324   4.801   7.659   2.310  0.5012 -1.7287 -1.0138
   15MOL   H417 6325   5.083   7.653   2.434 -0.0728  1.4045 -2.8704
   15MOL   H418 6326   4.953   7.528   2.443  1.1645 -0.9471  1.1354
   15MOL   H419 6327   4.803   7.654   2.583  0.3888 -2.7362  0.0154
   15MOL   H420 6328   4.913   7.789   2.582 -2.2475  0.4270 -0.1525
   15MOL   H421 6329   4.954   7.638   2.664  0.3873 -1.2125 -1.2091
   15MOL   H422 6330   5.006   7.290   2.262  0.5977 -1.8176  0.1709
   16MOL     C1 6331   5.909   2.084   6.823 -0.3863 -0.2478  0.7177
   16MOL     C2 6332   6.011   2.038   6.713  0.1338  0.5473 -0.6587
   16MOL     C3 6333   6.157   2.043   6.766 -0.3279 -0.4573 -0.2639
   16MOL     O4 6334   6.231   2.136   6.740  0.0447  0.1950  0.5957
   16MOL     O5 6335   6.179   1.947   6.861  0.0243  0.1118  0.0714
   16MOL     C6 6336   6.293   1.967   6.947  0.4873 -0.3835  0.2709
   16MOL     C7 6337   6.256   2.045   7.083 -0.0737  0.9806 -0.0914
   16MOL     C8 6338   6.376   2.118   7.151 -0.0756 -0.0393 -0.5220
   16MOL     C9 6339   6.355   2.166   7.298  0.4683 -0.2390  0.7406
   16MOL    H10 6340   5.811   2.037   6.820 -1.1979  1.4189  0.9785
   16MOL    H11 6341   5.953   2.050   6.917  1.1061 -0.8053 -0.1604
   16MOL    H12 6342   6.010   2.121   6.642  0.3863  0.7062 -0.4760
   16MOL    H13 6343   6.377   2.021   6.903  0.1296  1.6142  1.9568
   16MOL    H14 6344   6.342   1.871   6.966 -0.0732 -0.5952  0.6582
   16MOL    H15 6345   6.191   2.128   7.056 -0.9393 -0.3263 -2.1406
   16MOL    H16 6346   6.203   1.972   7.145 -1.7635  1.1772 -1.2812
   16MOL    H17 6347   6.412   2.208   7.100  0.5778 -2.0863 -3.7679
   16MOL    H18 6348   6.461   2.051   7.153 -0.2455 -0.3086 -2.1093
   16MOL    H19 6349   6.282   2.245   7.312 -0.4623 -1.1491  1.0564
   16MOL    H20 6350   6.451   2.204   7.335  1.2351 -1.4075 -0.0240
   16MOL    H21 6351   6.342   2.086   7.371 -0.6684 -1.1472 -0.4297
   16MOL    H22 6352   5.889   2.191   6.826  0.7944  0.0177 -0.3213
   16MOL    C23 6353   5.985   1.906   6.638  0.0898 -0.3052  0.0163
   16MOL    C24 6354   6.080   1.831   6.548  0.3846  0.4562  0.1117
   16MOL    C25 6355   6.017   1.697   6.502 -0.6735  0.1225 -0.1162
   16MOL    O26 6356   5.896   1.684   6.480 -0.4855  0.1344 -0.0283
   16MOL    O27 6357   6.097   1.602   6.497 -0.0494  0.6250 -0.5260
   16MOL    C28 6358   6.056   1.472   6.446 -0.0577  0.9673 -0.3513
   16MOL    C29 6359   6.152   1.364   6.498  0.0494  0.4080  0.3112
   16MOL    C30 6360   6.131   1.219   6.443 -0.0880 -0.0059  0.3398
   16MOL    C31 6361   6.246   1.127   6.490  0.3403 -0.0619  0.5636
   16MOL    H32 6362   5.893   1.932   6.586  0.9552 -1.0621 -1.9409
   16MOL    H33 6363   5.954   1.833   6.714 -0.8071 -1.1308 -1.1222
   16MOL    H34 6364   6.172   1.798   6.597 -0.5683 -1.2383  0.8457
   16MOL    H35 6365   6.061   1.473   6.337  0.4462 -1.0376 -0.3691
   16MOL    H36 6366   5.954   1.446   6.474 -0.1061 -0.6958 -1.9395
   16MOL    H37 6367   6.253   1.401   6.483  0.0199  0.6076  0.5986
   16MOL    H38 6368   6.134   1.373   6.605  1.6925  3.1825  0.3869
   16MOL    H39 6369   6.119   1.222   6.334 -2.8686 -0.0605  0.6102
   16MOL    H40 6370   6.028   1.195   6.467  0.2202 -1.1074  0.5858
   16MOL    H41 6371   6.237   1.114   6.598 -1.4836  2.1941  0.7216
   16MOL    H42 6372   6.343   1.167   6.464 -0.5937  0.6551 -1.8922
   16MOL    H43 6373   6.243   1.032   6.436  0.4606  0.6812 -0.7511
   16MOL    C44 6374   6.123   1.908   6.425 -0.1202  0.4831 -0.4034
   16MOL    C45 6375   6.254   1.858   6.357 -0.3290  0.3756 -1.0492
   16MOL    C46 6376   6.291   1.924   6.222 -0.1800 -0.5186 -0.2558
   16MOL    O47 6377   6.242   2.033   6.186 -0.0375  0.1114 -0.0515
   16MOL    O48 6378   6.384   1.854   6.156 -0.2706  0.0640 -0.1709
   16MOL    C49 6379   6.413   1.895   6.017  0.0332  0.6821  0.2168
   16MOL    C50 6380   6.528   2.002   6.008  0.5815 -0.6502 -1.2063
   16MOL    C51 6381   6.644   1.963   6.098  0.0071 -0.6636 -0.4988
   16MOL    C52 6382   6.763   2.062   6.082  0.2032 -0.3245  0.2858
   16MOL    H53 6383   6.143   2.012   6.454 -1.1336  0.7166 -0.5483
   16MOL    H54 6384   6.043   1.908   6.351  0.7685  0.8331 -1.3768
   16MOL    H55 6385   6.237   1.753   6.332 -1.0868  0.1482  0.3733
   16MOL    H56 6386   6.324   1.928   5.964  1.3767 -0.4730 -2.8266
   16MOL    H57 6387   6.441   1.802   5.967  1.2501 -1.3071  4.2833
   16MOL    H58 6388   6.557   2.016   5.904 -0.9869  1.4728 -1.3786
   16MOL    H59 6389   6.492   2.099   6.041  0.4012 -2.0536  2.9531
   16MOL    H60 6390   6.659   1.861   6.064  1.3618  0.0319 -2.0638
   16MOL    H61 6391   6.612   1.963   6.202  1.4731  0.0343 -0.0389
   16MOL    H62 6392   6.828   2.058   6.169 -0.4118  3.0882  0.9518
   16MOL    H63 6393   6.737   2.167   6.072  2.8259  0.2649 -0.7634
   16MOL    H64 6394   6.827   2.042   5.995  0.0147  4.2417 -1.0231
   16MOL    C65 6395   6.378   1.851   6.454  0.3325  0.4669  0.2413
   16MOL    C66 6396   6.433   1.705   6.485 -1.4068 -0.3371  0.7256
   16MOL    C67 6397   6.528   1.647   6.375 -0.5373 -0.0909 -0.9916
   16MOL    O68 6398   6.631   1.702   6.337  0.5749 -0.8556  0.5386
   16MOL    O69 6399   6.479   1.527   6.330  0.0342 -0.3646 -0.3989
   16MOL    C70 6400   6.552   1.454   6.235  0.5029  0.1037  0.5216
   16MOL    C71 6401   6.535   1.307   6.266  0.1053  0.4958  0.5562
   16MOL    C72 6402   6.564   1.216   6.155 -0.1235  0.5985  0.2962
   16MOL    C73 6403   6.543   1.063   6.177 -0.1047 -0.5053  0.1642
   16MOL    H74 6404   6.360   1.903   6.548 -0.2653  0.8927 -0.1115
   16MOL    H75 6405   6.460   1.914   6.420  0.1674  0.5227 -0.0527
   16MOL    H76 6406   6.349   1.638   6.507 -1.4852 -0.4662  0.0346
   16MOL    H77 6407   6.657   1.483   6.231  0.3306  0.9559  1.9624
   16MOL    H78 6408   6.494   1.465   6.143  0.7350 -2.0380  0.0903
   16MOL    H79 6409   6.603   1.275   6.345  0.6151  0.0818 -0.0435
   16MOL    H80 6410   6.432   1.293   6.299 -0.7573 -1.8930 -2.8780
   16MOL    H81 6411   6.670   1.224   6.130 -0.2969  0.4591 -0.4946
   16MOL    H82 6412   6.499   1.240   6.071 -0.4886 -1.1998  0.0580
   16MOL    H83 6413   6.630   1.028   6.232  0.0967 -2.3836 -1.3086
   16MOL    H84 6414   6.527   1.030   6.074  1.6709 -0.3051 -0.1905
   16MOL    H85 6415   6.453   1.049   6.237  0.9956 -3.1026  1.2693
   16MOL    C86 6416   6.521   1.712   6.620  0.7870  0.9939 -0.6494
   16MOL    C87 6417   6.497   1.575   6.699 -0.4850  0.7912  0.2305
   16MOL    C88 6418   6.600   1.469   6.653  0.4366  0.7083 -0.0291
   16MOL    O89 6419   6.553   1.362   6.603 -0.2669  0.1389 -0.1619
   16MOL    O90 6420   6.727   1.504   6.692  0.2780  0.2698 -0.2167
   16MOL    C91 6421   6.830   1.413   6.652  0.5169  0.1089 -0.3409
   16MOL    C92 6422   6.961   1.477   6.705  0.1890  0.1571 -0.0648
   16MOL    C93 6423   7.002   1.602   6.620 -0.2486 -0.5946 -0.2841
   16MOL    C94 6424   7.144   1.646   6.661 -0.1442 -0.3262  0.5664
   16MOL    H95 6425   6.479   1.794   6.678 -1.3751 -0.3442 -0.2707
   16MOL    H96 6426   6.629   1.726   6.614  1.1863 -1.1834  1.2545
   16MOL    H97 6427   6.399   1.531   6.681  0.6151 -1.6000 -0.2421
   16MOL    H98 6428   6.835   1.386   6.546  1.3802  3.4017 -1.2035
   16MOL    H99 6429   6.804   1.316   6.695  0.8837 -0.2918 -1.0065
   16MOL   H100 6430   6.956   1.507   6.810 -0.5867 -0.8214  0.1762
   16MOL   H101 6431   7.029   1.392   6.698 -0.5584 -0.4380 -0.1454
   16MOL   H102 6432   6.937   1.688   6.634  1.5530  0.7339  0.1140
   16MOL   H103 6433   7.001   1.580   6.513  0.1654  2.4072 -0.9384
   16MOL   H104 6434   7.141   1.723   6.738 -0.1351 -1.1440  1.3955
   16MOL   H105 6435   7.205   1.696   6.586  1.0474  1.1233  2.4538
   16MOL   H106 6436   7.195   1.564   6.711 -1.6557 -0.6541  1.6161
   16MOL   C107 6437   6.506   1.598   6.853 -0.2036 -0.3460  0.4905
   16MOL   C108 6438   6.425   1.510   6.950  0.1359  0.8766 -0.2844
   16MOL   C109 6439   6.283   1.559   6.963 -0.5882 -0.0815  0.1298
   16MOL   O110 6440   6.253   1.634   7.052  0.3856  0.5805 -0.1403
   16MOL   O111 6441   6.200   1.518   6.862  0.2656  0.0733  0.1527
   16MOL   C112 6442   6.063   1.550   6.860  0.4399  0.2952  0.3505
   16MOL   C113 6443   5.987   1.429   6.925 -0.0056 -0.4733  0.1978
   16MOL   C114 6444   5.991   1.441   7.075  0.3454  0.0875  0.5167
   16MOL   C115 6445   5.930   1.314   7.142 -0.7632 -0.6540 -0.2697
   16MOL   H116 6446   6.474   1.698   6.884  1.2218  0.1363  0.4128
   16MOL   H117 6447   6.606   1.588   6.894 -0.7132 -0.3572  1.7922
   16MOL   H118 6448   6.484   1.530   7.040  2.4477 -1.4811 -1.2039
   16MOL   H119 6449   6.046   1.558   6.753 -0.5242 -2.3563  0.2626
   16MOL   H120 6450   6.026   1.646   6.897 -2.7974 -0.2173 -1.3544
   16MOL   H121 6451   5.882   1.434   6.897  0.1481 -0.9921 -0.4742
   16MOL   H122 6452   6.037   1.337   6.895  1.2287 -0.0457  0.9140
   16MOL   H123 6453   5.926   1.523   7.103 -0.2084 -0.1596 -0.0304
   16MOL   H124 6454   6.093   1.457   7.111  0.6210 -1.1373  0.2988
   16MOL   H125 6455   5.987   1.223   7.121  2.0647  0.5007  1.9713
   16MOL   H126 6456   5.822   1.300   7.132 -0.5806 -1.0307 -1.7548
   16MOL   H127 6457   5.946   1.327   7.249  0.4260  2.2567 -0.7567
   16MOL   C128 6458   6.442   1.352   6.942 -0.6981  0.6373  0.2152
   16MOL   C129 6459   6.457   1.275   7.079  0.6306 -0.9605 -0.0489
   16MOL   C130 6460   6.576   1.327   7.160  0.2244  0.1397 -0.1723
   16MOL   O131 6461   6.559   1.396   7.262 -0.2224  0.0636  0.2288
   16MOL   O132 6462   6.691   1.277   7.114 -0.1195 -0.0856  0.0652
   16MOL   C133 6463   6.806   1.300   7.191  0.0366 -0.0129  0.5740
   16MOL   C134 6464   6.930   1.259   7.100  0.3586 -0.2466  0.7527
   16MOL   C135 6465   7.060   1.312   7.158  0.0905  0.8294 -0.3566
   16MOL   C136 6466   7.174   1.256   7.081 -0.5738  0.1404  0.4216
   16MOL   H137 6467   6.531   1.328   6.885 -0.0058  0.2301  1.4471
   16MOL   H138 6468   6.371   1.313   6.869  0.8642  0.2633 -1.1320
   16MOL   H139 6469   6.487   1.173   7.056  0.7802 -0.9435  0.0729
   16MOL   H140 6470   6.806   1.238   7.281 -0.0843 -0.4150  0.2944
   16MOL   H141 6471   6.821   1.405   7.220  0.2203  0.4020 -1.0033
   16MOL   H142 6472   6.921   1.150   7.099  1.2128 -0.3526  2.9010
   16MOL   H143 6473   6.921   1.296   6.997 -0.5693  3.2038  2.0093
   16MOL   H144 6474   7.061   1.296   7.266  1.8407  1.9146 -0.1982
   16MOL   H145 6475   7.067   1.420   7.140 -1.0428  0.8331 -0.8688
   16MOL   H146 6476   7.269   1.292   7.121  1.2256 -3.2570 -0.5703
   16MOL   H147 6477   7.166   1.287   6.977 -1.2874  1.1274  0.7702
   16MOL   H148 6478   7.171   1.147   7.091  0.2959  0.3438  3.7136
   16MOL   C149 6479   6.320   1.273   7.156 -0.0520 -0.5555  0.5878
   16MOL   C150 6480   6.318   1.170   7.267 -0.3035  0.3459 -0.3480
   16MOL   C151 6481   6.214   1.197   7.377 -0.0501 -0.6292  0.4161
   16MOL   O152 6482   6.172   1.102   7.449 -0.0128  0.0423  0.2939
   16MOL   O153 6483   6.191   1.326   7.397 -0.1661 -0.0963  0.5728
   16MOL   C154 6484   6.133   1.373   7.516  0.8860 -0.1061 -0.1153
   16MOL   C155 6485   6.049   1.501   7.488  0.8367  0.2576 -0.1621
   16MOL   C156 6486   6.140   1.612   7.429 -0.2020 -0.1870 -0.2924
   16MOL   C157 6487   6.062   1.734   7.378 -1.0529  0.4983 -0.9110
   16MOL   H158 6488   6.229   1.258   7.097  0.4680  1.0446 -0.6632
   16MOL   H159 6489   6.304   1.371   7.199 -1.8875 -0.3365 -0.5376
   16MOL   H160 6490   6.416   1.175   7.315 -0.8470 -0.5616  0.8726
   16MOL   H161 6491   6.202   1.373   7.600  0.6325 -0.6555  0.0985
   16MOL   H162 6492   6.058   1.298   7.541 -0.8543  1.7026  0.2466
   16MOL   H163 6493   5.967   1.483   7.419 -1.2386 -1.2497  2.6232
   16MOL   H164 6494   5.997   1.528   7.580 -0.4842  0.6290 -1.0117
   16MOL   H165 6495   6.210   1.570   7.357  0.8208 -1.1651  1.2317
   16MOL   H166 6496   6.213   1.656   7.498  0.0824 -1.3762  0.1831
   16MOL   H167 6497   5.969   1.704   7.328 -2.1600  1.0488  0.7761
   16MOL   H168 6498   6.110   1.776   7.289  0.6693 -0.1254 -0.2979
   16MOL   H169 6499   6.033   1.815   7.446 -2.8868 -0.5212 -0.4462
   16MOL   C170 6500   6.313   1.021   7.212 -0.3547  0.1976 -0.2059
   16MOL   C171 6501   6.453   0.948   7.240  0.4439 -0.7130 -0.2628
   16MOL   C172 6502   6.471   0.914   7.389 -0.3174  0.7129 -0.0863
   16MOL   O173 6503   6.419   0.815   7.447  0.6661  0.1891 -0.1140
   16MOL   O174 6504   6.538   1.006   7.459 -1.0298  0.2717 -0.0220
   16MOL   C175 6505   6.543   1.001   7.601 -0.1885 -0.8856  0.0018
   16MOL   C176 6506   6.604   1.137   7.640 -0.2322  0.6133 -0.3739
   16MOL   C177 6507   6.506   1.260   7.607  0.2506 -0.3075 -0.2020
   16MOL   C178 6508   6.552   1.384   7.699 -0.4732  0.7847 -0.2405
   16MOL   H179 6509   6.279   1.017   7.109  1.9513 -1.5214 -0.9489
   16MOL   H180 6510   6.241   0.954   7.259  0.2957 -0.0462  0.4688
   16MOL   H181 6511   6.530   1.007   7.191 -0.1576 -0.1510 -0.5411
   16MOL   H182 6512   6.601   0.914   7.633  0.1642 -0.8842 -0.6312
   16MOL   H183 6513   6.441   0.989   7.637 -0.5660 -0.4713 -0.9203
   16MOL   H184 6514   6.615   1.135   7.748 -0.6269  2.0812 -0.2964
   16MOL   H185 6515   6.703   1.148   7.597 -0.6412  0.1397 -1.4721
   16MOL   H186 6516   6.402   1.233   7.626  0.1344 -0.5531 -1.1671
   16MOL   H187 6517   6.512   1.274   7.499  2.0145  0.2600 -0.0509
   16MOL   H188 6518   6.490   1.473   7.693 -3.4006 -1.2861 -2.1277
   16MOL   H189 6519   6.655   1.410   7.676 -0.7072  1.0886 -0.9593
   16MOL   H190 6520   6.544   1.345   7.801 -1.9337 -0.5264 -0.8336
   16MOL   C191 6521   6.444   0.811   7.172  1.1038  0.5462 -0.1732
   16MOL   C192 6522   6.437   0.807   7.015 -0.4271 -1.6287 -0.1566
   16MOL   C193 6523   6.556   0.878   6.951 -0.2307 -0.1949  0.5621
   16MOL   O194 6524   6.675   0.859   6.986  0.0526 -0.1080  1.2839
   16MOL   O195 6525   6.514   0.959   6.856 -0.7177 -0.1257 -0.0795
   16MOL   C196 6526   6.613   1.034   6.786 -0.2915 -1.0060  0.3878
   16MOL   C197 6527   6.680   0.944   6.678  0.4386 -0.2188  0.2954
   16MOL   C198 6528   6.792   1.013   6.602  0.0003 -0.4150 -0.8642
   16MOL   C199 6529   6.840   0.933   6.492  0.3431  0.0475 -0.1073
   16MOL   H200 6530   6.362   0.755   7.217  0.4060  0.8674 -1.0377
   16MOL   H201 6531   6.525   0.747   7.207 -0.7861 -1.6708  0.2874
   16MOL   H202 6532   6.359   0.877   6.986  0.6048  0.5691  2.1796
   16MOL   H203 6533   6.690   1.083   6.844 -1.4800  1.2146  0.1289
   16MOL   H204 6534   6.556   1.114   6.740  0.9346  1.5779  3.2636
   16MOL   H205 6535   6.717   0.850   6.718 -1.4466 -1.8270 -1.5430
   16MOL   H206 6536   6.603   0.920   6.604  0.1953 -0.9536  0.7840
   16MOL   H207 6537   6.862   1.045   6.679  0.7798 -1.0205 -1.3233
   16MOL   H208 6538   6.748   1.106   6.565  0.9091 -0.1713 -1.3316
   16MOL   H209 6539   6.762   0.938   6.416  1.2088 -2.1594 -1.1942
   16MOL   H210 6540   6.845   0.827   6.519  0.4303 -0.0111 -0.3529
   16MOL   H211 6541   6.936   0.972   6.459  0.5938  2.0711  2.9310
   16MOL   C212 6542   6.413   0.663   6.961  0.4406  0.3235  0.2138
   16MOL   C213 6543   6.289   0.589   7.010  0.0291 -1.1317  0.6360
   16MOL   C214 6544   6.164   0.669   6.983  0.3765 -0.2073  0.4779
   16MOL   O215 6545   6.097   0.716   7.078 -0.2479  0.2785 -0.5800
   16MOL   O216 6546   6.141   0.687   6.857 -0.8990  0.3765  0.0889
   16MOL   C217 6547   6.035   0.762   6.809  0.6232 -0.2440 -0.2038
   16MOL   C218 6548   6.068   0.916   6.802  0.7332  0.3687 -0.0522
   16MOL   C219 6549   5.942   1.006   6.811 -0.2709 -0.3442  0.4040
   16MOL   C220 6550   5.884   1.044   6.680 -0.6327 -0.1915  0.1356
   16MOL   H221 6551   6.493   0.600   7.000  2.3035  2.3016 -0.3881
   16MOL   H222 6552   6.423   0.656   6.853 -1.4489 -0.4421  0.0711
   16MOL   H223 6553   6.303   0.571   7.117 -0.1967 -0.3273  0.8025
   16MOL   H224 6554   5.956   0.747   6.883  0.4767 -0.8757 -0.4880
   16MOL   H225 6555   6.003   0.717   6.715 -1.4166  0.6350  0.0406
   16MOL   H226 6556   6.113   0.933   6.900 -0.8653  0.9397  0.6124
   16MOL   H227 6557   6.129   0.946   6.718  1.0525  2.6081  0.9517
   16MOL   H228 6558   5.968   1.102   6.855 -0.1421 -0.4880  0.6435
   16MOL   H229 6559   5.875   0.967   6.888  0.3382  1.6401  1.9822
   16MOL   H230 6560   5.947   1.117   6.630  0.9312 -2.3459 -1.1172
   16MOL   H231 6561   5.780   1.074   6.694 -0.8429 -0.7845 -0.1261
   16MOL   H232 6562   5.882   0.960   6.611 -2.1029 -1.4050  1.6165
   16MOL   C233 6563   6.278   0.454   6.948  0.7125  0.0892  0.1637
   16MOL   C234 6564   6.380   0.340   6.991 -0.4256 -0.3664 -1.1047
   16MOL   C235 6565   6.407   0.331   7.143 -0.9614  0.3536 -0.4086
   16MOL   O236 6566   6.520   0.319   7.188  0.3075 -0.1995  0.6342
   16MOL   O237 6567   6.302   0.335   7.210  0.7991  0.2830  0.4789
   16MOL   C238 6568   6.294   0.326   7.357  0.0780 -0.6228 -0.3502
   16MOL   C239 6569   6.187   0.425   7.400  0.1897  0.1603 -0.2955
   16MOL   C240 6570   6.167   0.427   7.553 -0.4230 -0.1813  0.6003
   16MOL   C241 6571   6.040   0.515   7.593 -0.0485  0.4431  0.3326
   16MOL   H242 6572   6.290   0.471   6.841  0.7413  3.5500  0.6541
   16MOL   H243 6573   6.177   0.418   6.964  0.3869  0.0660 -1.7356
   16MOL   H244 6574   6.478   0.371   6.954  0.5375 -0.1813  1.5199
   16MOL   H245 6575   6.385   0.360   7.408 -0.7083 -0.5396  1.0150
   16MOL   H246 6576   6.277   0.222   7.383 -1.4482 -0.8157 -2.0160
   16MOL   H247 6577   6.211   0.524   7.360  0.8499 -0.0177 -0.3465
   16MOL   H248 6578   6.093   0.397   7.354 -1.2914  3.3456  0.6269
   16MOL   H249 6579   6.248   0.462   7.617 -0.1745  0.1571  0.0980
   16MOL   H250 6580   6.148   0.326   7.590 -0.0071 -1.3257 -2.1910
   16MOL   H251 6581   6.047   0.620   7.565 -1.0228  0.1537 -1.0666
   16MOL   H252 6582   6.010   0.484   7.693  0.9659 -1.4855  0.0558
   16MOL   H253 6583   5.964   0.464   7.533  2.4622 -4.3355  0.9356
   16MOL   C254 6584   6.356   0.203   6.926 -0.3351  0.5948  0.6428
   16MOL   C255 6585   6.469   0.100   6.945 -0.3378 -0.0205  0.0910
   16MOL   C256 6586   6.413   7.813   6.964 -0.1627 -0.0086  0.3372
   16MOL   O257 6587   6.388   7.737   6.868 -0.0764 -0.1394 -0.4885
   16MOL   O258 6588   6.388   7.783   7.093 -0.4289 -0.0548 -0.5784
   16MOL   C259 6589   6.314   7.660   7.124 -0.1609 -1.0006 -0.6508
   16MOL   C260 6590   6.364   7.605   7.255  0.0058 -0.1806 -0.0204
   16MOL   C261 6591   6.315   7.697   7.367  0.1292  0.7208  0.3802
   16MOL   C262 6592   6.342   7.641   7.508 -0.1597  0.5792  0.2508
   16MOL   H263 6593   6.332   0.226   6.822  4.0445 -3.5330 -1.4521
   16MOL   H264 6594   6.267   0.164   6.975 -0.9946  0.6967 -0.4498
   16MOL   H265 6595   6.519   0.127   7.038 -0.2557  1.7399 -0.4499
   16MOL   H266 6596   6.335   7.583   7.050 -0.9834 -0.0907 -1.8461
   16MOL   H267 6597   6.206   7.673   7.129  0.1116  1.2917 -0.1425
   16MOL   H268 6598   6.329   7.502   7.250 -0.3687 -0.1193  1.1684
   16MOL   H269 6599   6.471   7.585   7.263  0.3482  1.9040  0.8302
   16MOL   H270 6600   6.207   7.707   7.356 -0.1334 -1.0478  1.1915
   16MOL   H271 6601   6.360   7.796   7.357  1.2444  0.1293 -0.5946
   16MOL   H272 6602   6.447   7.659   7.528 -0.2436  2.1897 -0.7147
   16MOL   H273 6603   6.322   7.533   7.512  2.1446  0.1158 -0.1396
   16MOL   H274 6604   6.282   7.704   7.573 -3.2691 -0.4986 -1.4463
   16MOL   C275 6605   6.573   0.097   6.829  0.5501  0.5267  0.4043
   16MOL   C276 6606   6.727   0.084   6.861 -0.1798 -0.1113  0.7502
   16MOL   C277 6607   6.765   7.806   6.943  0.3365  0.0489  1.2790
   16MOL   O278 6608   6.828   7.711   6.893 -0.0933 -0.3309 -0.2735
   16MOL   O279 6609   6.723   7.802   7.071 -0.3748 -0.6803 -0.1782
   16MOL   C280 6610   6.767   7.691   7.155 -0.0816 -0.1710 -0.5504
   16MOL   C281 6611   6.749   7.732   7.300 -0.4236 -0.1069  0.4251
   16MOL   C282 6612   6.782   7.619   7.392 -0.5775 -0.5012 -0.6037
   16MOL   C283 6613   6.787   7.642   7.542 -0.0716  0.4290 -0.5914
   16MOL   H284 6614   6.572   0.194   6.779  0.0555 -0.5019 -1.6540
   16MOL   H285 6615   6.544   0.028   6.750  1.3633  0.0026  0.5622
   16MOL   H286 6616   6.756   0.169   6.923  1.0107 -0.1102  0.2212
   16MOL   H287 6617   6.868   7.660   7.127 -0.2492 -0.5182 -0.7671
   16MOL   H288 6618   6.699   7.607   7.142 -0.2057 -0.4833  1.7942
   16MOL   H289 6619   6.811   7.818   7.323  3.9678 -2.9807 -0.1393
   16MOL   H290 6620   6.648   7.770   7.319 -0.0923 -0.1533  2.3696
   16MOL   H291 6621   6.878   7.577   7.362 -1.3036 -3.4303  0.8962
   16MOL   H292 6622   6.725   7.527   7.376  0.2166 -0.4117 -4.2161
   16MOL   H293 6623   6.809   7.548   7.593 -0.9359 -0.5688 -1.9999
   16MOL   H294 6624   6.688   7.686   7.555 -0.1166  1.1548 -3.2207
   16MOL   H295 6625   6.863   7.714   7.571  1.0425 -0.9205 -0.1341
   16MOL   C296 6626   6.813   0.094   6.733  0.3883  0.6721 -0.4516
   16MOL   C297 6627   6.953   0.170   6.740  0.2843  0.0008  0.2545
   16MOL   C298 6628   7.063   0.095   6.817 -1.0273 -0.8277  0.8626
   16MOL   O299 6629   7.130   0.138   6.913 -0.2118  0.2054 -0.0657
   16MOL   O300 6630   7.071   7.821   6.774 -0.0735 -0.1280 -0.1589
   16MOL   C301 6631   7.149   7.730   6.845 -0.1418  0.1950  0.4151
   16MOL   C302 6632   7.184   7.615   6.750 -0.6440 -0.0892  0.4104
   16MOL   C303 6633   7.285   7.513   6.811  0.2214  0.3634  0.2576
   16MOL   C304 6634   7.286   7.377   6.730  0.4574  0.3733 -0.4544
   16MOL   H305 6635   6.755   0.166   6.674  1.3202 -0.0549 -2.2993
   16MOL   H306 6636   6.817   7.851   6.682  0.0817  0.6309 -0.3983
   16MOL   H307 6637   6.932   0.261   6.796 -0.8367  0.2855 -0.5966
   16MOL   H308 6638   7.098   7.691   6.933  0.1951 -0.0089  0.5228
   16MOL   H309 6639   7.242   7.768   6.890 -0.1585 -0.6828  1.2056
   16MOL   H310 6640   7.094   7.559   6.726 -0.1586 -0.7724  0.1662
   16MOL   H311 6641   7.226   7.652   6.656 -1.8731  0.1439 -0.0528
   16MOL   H312 6642   7.242   7.486   6.908 -2.0327 -0.2276 -0.8706
   16MOL   H313 6643   7.385   7.550   6.837  0.1009  0.1530  1.0351
   16MOL   H314 6644   7.369   7.322   6.775 -0.3060 -0.7669 -0.4192
   16MOL   H315 6645   7.314   7.395   6.626  0.1512 -0.9489 -0.7838
   16MOL   H316 6646   7.192   7.323   6.741 -0.1814  1.8849  1.8070
   16MOL   C317 6647   6.998   0.202   6.593  0.6462  0.1511 -0.1161
   16MOL   C318 6648   6.984   0.351   6.554 -0.1135 -0.6652 -0.1501
   16MOL   C319 6649   7.106   0.440   6.581 -0.0376  1.0700  0.2940
   16MOL   O320 6650   7.224   0.404   6.559 -0.1214 -0.3444 -0.4913
   16MOL   O321 6651   7.064   0.569   6.613  0.6624  0.7635  0.1621
   16MOL   C322 6652   7.161   0.671   6.629 -0.2650  0.1444  0.0744
   16MOL   C323 6653   7.098   0.783   6.713  0.5039  0.5522  0.8243
   16MOL   C324 6654   7.190   0.903   6.720 -0.0181  0.6820  0.5529
   16MOL   C325 6655   7.136   1.009   6.819 -0.3814  0.3393 -0.8074
   16MOL   H326 6656   6.936   0.141   6.528 -1.8800  0.2599  2.0728
   16MOL   H327 6657   7.102   0.174   6.578  1.1103  0.1425  2.8215
   16MOL   H328 6658   6.915   0.403   6.621 -1.7138 -2.5417 -0.2914
   16MOL   H329 6659   7.195   0.705   6.531 -1.6588  3.6161  0.7329
   16MOL   H330 6660   7.250   0.643   6.685 -0.4696  0.5644  0.6135
   16MOL   H331 6661   7.011   0.817   6.657  0.0510 -0.6468  0.7726
   16MOL   H332 6662   7.066   0.736   6.806  0.8977  0.0458  0.7045
   16MOL   H333 6663   7.185   0.947   6.621 -2.1352  0.9105  0.7436
   16MOL   H334 6664   7.294   0.880   6.744  1.0746  2.0344 -2.6318
   16MOL   H335 6665   7.027   1.011   6.819 -0.4250 -1.4516 -1.1702
   16MOL   H336 6666   7.173   1.111   6.803  0.6547  0.2220  0.7318
   16MOL   H337 6667   7.174   0.993   6.920 -1.5340  0.4854 -0.3492
   16MOL   C338 6668   6.931   0.366   6.410 -0.0420 -0.9485 -0.0725
   16MOL   C339 6669   6.782   0.330   6.396 -0.1382  0.1194 -0.4398
   16MOL   C340 6670   6.682   0.416   6.490  0.0974  0.0660  0.1945
   16MOL   O341 6671   6.632   0.372   6.594  0.8819 -0.2529  0.0237
   16MOL   O342 6672   6.653   0.539   6.429  0.4467  0.0323  0.1040
   16MOL   C343 6673   6.577   0.632   6.504 -0.0263  0.4336 -0.2834
   16MOL   C344 6674   6.428   0.606   6.510 -0.1985 -0.0733  0.1247
   16MOL   C345 6675   6.342   0.725   6.556  0.3460  0.1104 -0.0471
   16MOL   C346 6676   6.196   0.695   6.514  0.1850  0.0682 -0.0184
   16MOL   H347 6677   6.988   0.303   6.342  1.5343 -0.4395  0.7353
   16MOL   H348 6678   6.937   0.471   6.381 -0.9852 -1.0780 -0.7619
   16MOL   H349 6679   6.774   0.232   6.443  1.4716 -0.0436 -0.4804
   16MOL   H350 6680   6.585   0.723   6.445  1.0992 -0.9259 -2.2705
   16MOL   H351 6681   6.634   0.641   6.597  0.8648 -0.5094 -0.7311
   16MOL   H352 6682   6.396   0.575   6.410 -0.9834 -0.0620  0.3733
   16MOL   H353 6683   6.419   0.530   6.588  2.1088  1.3865  1.8753
   16MOL   H354 6684   6.386   0.815   6.512  0.6827  0.5262  1.1224
   16MOL   H355 6685   6.360   0.729   6.663 -0.6111 -2.8745  0.2566
   16MOL   H356 6686   6.165   0.615   6.582  0.2694  0.0618  0.0130
   16MOL   H357 6687   6.182   0.663   6.411  0.5647  0.0036 -0.0476
   16MOL   H358 6688   6.135   0.782   6.541 -4.2989 -3.0314  0.3595
   16MOL   C359 6689   6.738   0.325   6.246 -0.1708  0.1187  1.1601
   16MOL   C360 6690   6.795   0.207   6.153  0.0255  0.3261  0.1668
   16MOL   C361 6691   6.704   0.089   6.167 -0.1607  0.0104  0.2927
   16MOL   O362 6692   6.588   0.102   6.131  0.3662 -0.6265  0.8833
   16MOL   O363 6693   6.759   7.831   6.198 -0.5026  0.0145 -0.2178
   16MOL   C364 6694   6.677   7.718   6.204 -0.0038  0.1331  0.2659
   16MOL   C365 6695   6.594   7.696   6.326 -0.1472 -0.5392  0.1977
   16MOL   C366 6696   6.687   7.652   6.446  0.3756 -0.3997 -0.3848
   16MOL   C367 6697   6.598   7.649   6.576 -0.0745  0.0211  0.6612
   16MOL   H368 6698   6.766   0.421   6.203  1.1066  0.1775  2.0781
   16MOL   H369 6699   6.630   0.318   6.232 -0.0310 -0.9149  0.5480
   16MOL   H370 6700   6.889   0.173   6.196 -1.2627 -0.7449  2.2342
   16MOL   H371 6701   6.731   7.623   6.196  1.2837  0.8567  0.1436
   16MOL   H372 6702   6.615   7.710   6.115 -1.1504 -0.5622  1.1136
   16MOL   H373 6703   6.540   7.786   6.356  1.6050  1.1687 -1.5996
   16MOL   H374 6704   6.529   7.612   6.302  0.2717 -0.2612 -2.0448
   16MOL   H375 6705   6.777   7.713   6.457  0.1315 -0.0233 -0.4850
   16MOL   H376 6706   6.731   7.555   6.418  0.7111 -0.3786  0.0734
   16MOL   H377 6707   6.538   7.558   6.581  1.4696 -0.9644  2.2264
   16MOL   H378 6708   6.540   7.738   6.600  0.6048  0.4530  0.7121
   16MOL   H379 6709   6.659   7.639   6.666  0.3000 -0.8306  0.3184
   16MOL   C380 6710   6.823   0.253   6.002  0.5768 -1.1929  0.0761
   16MOL   C381 6711   6.964   0.325   5.977  0.4800  0.3447 -0.0523
   16MOL   C382 6712   7.088   0.234   6.006 -0.0020  0.0998  0.0865
   16MOL   O383 6713   7.082   0.125   6.061  0.3277 -0.0781 -0.2033
   16MOL   O384 6714   7.200   0.292   5.967 -0.1572  0.2189 -0.1502
   16MOL   C385 6715   7.323   0.219   5.947  0.0480 -0.0875 -1.0135
   16MOL   C386 6716   7.446   0.311   5.941  1.1499  0.5362 -0.2263
   16MOL   C387 6717   7.456   0.406   5.825  0.4111  0.6551 -0.3818
   16MOL   C388 6718   7.345   0.505   5.797 -0.0603  0.3089  0.7605
   16MOL   H389 6719   6.753   0.333   5.980  1.1797 -1.2895 -2.4104
   16MOL   H390 6720   6.797   0.185   5.921  1.4476 -0.3047 -0.9777
   16MOL   H391 6721   6.984   0.407   6.046  1.8917  0.0767 -0.1391
   16MOL   H392 6722   7.310   0.154   5.860 -0.6629 -0.9143 -0.3057
   16MOL   H393 6723   7.342   0.145   6.025  2.0392  0.5757 -0.8448
   16MOL   H394 6724   7.453   0.368   6.033 -0.1763 -0.0775  0.2753
   16MOL   H395 6725   7.540   0.256   5.931  3.3616  4.2293 -0.4084
   16MOL   H396 6726   7.469   0.355   5.729  1.1699 -0.2371  0.1855
   16MOL   H397 6727   7.551   0.458   5.838  0.5078  0.3528  0.1333
   16MOL   H398 6728   7.366   0.593   5.737 -0.3450  1.9132  2.9497
   16MOL   H399 6729   7.295   0.550   5.884 -0.4661  1.0105  0.1748
   16MOL   H400 6730   7.264   0.449   5.750  1.4032 -0.9605 -0.2815
   16MOL   C401 6731   6.961   0.389   5.829 -0.0303  0.7783 -0.6373
   16MOL   C402 6732   6.992   0.537   5.826  0.1908  0.5701 -0.0444
   16MOL   C403 6733   6.876   0.623   5.855  0.5425  0.6603  0.4718
   16MOL   O404 6734   6.830   0.690   5.764  0.0284 -0.3663 -0.0546
   16MOL   O405 6735   6.829   0.608   5.976  0.5655 -0.2996  0.2063
   16MOL   C406 6736   6.720   0.689   6.011  0.2767 -0.4373 -0.2382
   16MOL   C407 6737   6.588   0.638   5.951 -0.3023 -0.1834 -0.2731
   16MOL   C408 6738   6.485   0.755   5.946  0.6531 -0.5753  0.0789
   16MOL   C409 6739   6.504   0.854   5.824 -0.1636 -0.7155  0.3330
   16MOL   H410 6740   6.872   0.362   5.771  0.5665 -0.4625 -0.9946
   16MOL   H411 6741   7.031   0.336   5.765 -0.6479 -1.4199  0.4403
   16MOL   H412 6742   7.036   0.564   5.729  1.4054 -1.6563 -0.1468
   16MOL   H413 6743   6.736   0.788   5.969  0.8183  0.2012  1.4214
   16MOL   H414 6744   6.710   0.701   6.119 -0.7970  0.4246 -0.4272
   16MOL   H415 6745   6.611   0.613   5.847 -0.7656  3.1374 -1.2436
   16MOL   H416 6746   6.549   0.555   6.009  0.8816 -0.8438 -0.4082
   16MOL   H417 6747   6.480   0.809   6.040 -0.0295  2.1800 -1.4629
   16MOL   H418 6748   6.385   0.713   5.943 -0.1271  1.1798  0.8690
   16MOL   H419 6749   6.524   0.959   5.843  1.2803 -0.7181 -1.0728
   16MOL   H420 6750   6.418   0.855   5.757  1.3165  0.5127 -1.6083
   16MOL   H421 6751   6.595   0.829   5.769  1.4528  2.8089  1.2532
   16MOL   H422 6752   7.063   0.567   5.902 -0.7969  2.5821  0.1083
   17MOL     C1 6753   6.563   7.229   4.133  0.2172  0.0604 -0.2612
   17MOL     C2 6754   6.572   7.332   4.018  0.9711 -1.3379 -0.3757
   17MOL     C3 6755   6.445   7.407   4.002 -0.4179 -0.6678  0.4070
   17MOL     O4 6756   6.424   7.508   4.073  0.3640 -0.9939  0.2608
   17MOL     O5 6757   6.361   7.348   3.913  0.4070 -0.2030 -0.1369
   17MOL     C6 6758   6.246   7.419   3.882 -0.1104  0.1116  0.0943
   17MOL     C7 6759   6.250   7.472   3.735 -0.7679 -0.0473 -0.4793
   17MOL     C8 6760   6.295   7.365   3.635 -0.3837  0.5200  0.2528
   17MOL     C9 6761   6.298   7.411   3.484  0.1569 -0.4839 -0.5962
   17MOL    H10 6762   6.653   7.169   4.146  0.6561  0.7352 -0.1498
   17MOL    H11 6763   6.547   7.279   4.229 -2.4341  0.3057 -0.7995
   17MOL    H12 6764   6.583   7.279   3.924  1.4942 -0.4395 -0.8245
   17MOL    H13 6765   6.228   7.508   3.941 -0.9721  0.1196 -0.1715
   17MOL    H14 6766   6.164   7.348   3.895  0.4103 -0.8773 -1.8502
   17MOL    H15 6767   6.150   7.506   3.705 -0.4102  1.7096  0.2514
   17MOL    H16 6768   6.313   7.560   3.723 -1.9417  0.8018 -0.6129
   17MOL    H17 6769   6.238   7.273   3.644 -0.4867  0.5649  0.0516
   17MOL    H18 6770   6.394   7.326   3.658 -0.7076 -0.8426 -0.6210
   17MOL    H19 6771   6.319   7.319   3.428  0.5837 -0.0027 -1.2459
   17MOL    H20 6772   6.375   7.487   3.466  0.9774 -1.6694 -2.3036
   17MOL    H21 6773   6.201   7.446   3.450 -0.0107 -0.3670  0.0004
   17MOL    H22 6774   6.475   7.166   4.125  1.1203 -1.4143  1.0040
   17MOL    C23 6775   6.695   7.421   4.055  0.0012  0.1453  0.3993
   17MOL    C24 6776   6.742   7.530   3.959  0.5054  0.0116 -0.0799
   17MOL    C25 6777   6.824   7.632   4.031 -0.1701 -0.4110  0.2202
   17MOL    O26 6778   6.793   7.759   4.028  0.0484 -0.0480  0.1965
   17MOL    O27 6779   6.924   7.584   4.099  0.3838 -0.2760  0.7816
   17MOL    C28 6780   7.012   7.667   4.170  0.3450  0.4289  0.4252
   17MOL    C29 6781   7.154   7.630   4.121 -0.4430 -0.6012 -0.5147
   17MOL    C30 6782   7.257   7.733   4.165 -0.2569 -0.1454 -0.3597
   17MOL    C31 6783   7.396   7.709   4.093  0.5879  0.4372 -0.7418
   17MOL    H32 6784   6.781   7.357   4.075 -0.3327 -0.5520 -0.3708
   17MOL    H33 6785   6.669   7.466   4.151 -2.4283 -0.9249  0.2531
   17MOL    H34 6786   6.656   7.585   3.919  0.1382 -0.1803  0.4428
   17MOL    H35 6787   7.005   7.648   4.277 -1.5669  3.2391  0.8587
   17MOL    H36 6788   7.002   7.774   4.150  1.0959 -0.2258 -4.1162
   17MOL    H37 6789   7.175   7.527   4.153 -0.9914 -0.7035 -0.4887
   17MOL    H38 6790   7.143   7.621   4.013 -1.8966  0.3472 -0.4580
   17MOL    H39 6791   7.266   7.728   4.273 -0.2281 -0.5111 -0.3791
   17MOL    H40 6792   7.219   7.830   4.130 -0.8982 -1.3668 -3.2087
   17MOL    H41 6793   7.451   7.624   4.132 -0.8869 -1.4826 -2.7037
   17MOL    H42 6794   7.464   7.792   4.112  1.4249 -0.5069  0.4176
   17MOL    H43 6795   7.386   7.692   3.986  0.8210  4.2092 -1.4195
   17MOL    C44 6796   6.814   7.479   3.836 -0.2208 -0.0383 -0.4579
   17MOL    C45 6797   6.714   7.472   3.711 -0.0971  0.2211  0.5574
   17MOL    C46 6798   6.665   7.606   3.662  0.0556  0.2936 -0.1045
   17MOL    O47 6799   6.578   7.617   3.576 -0.0207  0.1927  0.6083
   17MOL    O48 6800   6.755   7.712   3.693  0.1849  0.6875  0.0670
   17MOL    C49 6801   6.720   7.843   3.653 -0.1778  0.1805  0.2822
   17MOL    C50 6802   6.764   0.019   3.507  0.2969 -0.3492 -0.1066
   17MOL    C51 6803   6.771   0.169   3.462  0.3279  0.4480 -0.7588
   17MOL    C52 6804   6.822   0.182   3.319 -0.2370  0.2033  0.1087
   17MOL    H53 6805   6.859   7.383   3.861  0.7837  0.3267 -0.8521
   17MOL    H54 6806   6.901   7.539   3.809  0.2421 -0.1647  0.7328
   17MOL    H55 6807   6.630   7.407   3.738  0.1229 -0.5368 -0.5623
   17MOL    H56 6808   6.769   0.056   3.724 -1.9274  2.8261 -0.8811
   17MOL    H57 6809   6.611   0.000   3.658 -0.3132 -0.5084 -0.9629
   17MOL    H58 6810   6.864   7.831   3.491  1.2574  1.3100  1.4616
   17MOL    H59 6811   6.701   7.806   3.447 -0.1193  1.5220 -1.7617
   17MOL    H60 6812   6.846   0.217   3.525  0.3562  0.4224 -0.7735
   17MOL    H61 6813   6.675   0.213   3.491  1.0491  0.5745  1.5748
   17MOL    H62 6814   6.837   0.288   3.298  2.0963 -0.3418 -1.1815
   17MOL    H63 6815   6.765   0.129   3.243  0.2501  1.1014 -0.9043
   17MOL    H64 6816   6.920   0.135   3.314  0.9941  2.5834  0.8521
   17MOL    C65 6817   6.778   7.405   3.583  0.5911  0.3109  0.0187
   17MOL    C66 6818   6.826   7.264   3.602 -0.1973  0.4106  0.1149
   17MOL    C67 6819   6.704   7.158   3.619 -0.1307  0.2772  0.0703
   17MOL    O68 6820   6.677   7.123   3.729  0.3558  0.2957 -0.1196
   17MOL    O69 6821   6.641   7.126   3.502 -0.3354 -0.6680 -0.6320
   17MOL    C70 6822   6.512   7.062   3.518 -0.1967  0.0640 -0.5519
   17MOL    C71 6823   6.532   6.912   3.507 -0.7229 -1.0798  0.1361
   17MOL    C72 6824   6.394   6.846   3.485  0.4409  0.3166 -0.2725
   17MOL    C73 6825   6.393   6.697   3.454  0.2495 -0.0205 -0.2780
   17MOL    H74 6826   6.861   7.464   3.543 -2.2227  3.2459 -1.6436
   17MOL    H75 6827   6.701   7.397   3.507  1.0088 -2.6717 -0.1407
   17MOL    H76 6828   6.881   7.260   3.696 -1.2984 -0.2193  0.7450
   17MOL    H77 6829   6.463   7.094   3.426 -0.8522  0.2480 -0.1410
   17MOL    H78 6830   6.458   7.087   3.609  1.8479 -0.8777  0.9407
   17MOL    H79 6831   6.605   6.892   3.429 -0.5224 -1.2609  0.3688
   17MOL    H80 6832   6.586   6.866   3.590  0.4974 -0.2425 -0.1869
   17MOL    H81 6833   6.335   6.898   3.409  1.1179 -0.0918 -1.0766
   17MOL    H82 6834   6.329   6.856   3.572  0.7283  1.3599 -0.1733
   17MOL    H83 6835   6.401   6.642   3.547  1.4998 -0.1684 -0.4688
   17MOL    H84 6836   6.469   6.654   3.389  0.1143 -1.1547  0.3194
   17MOL    H85 6837   6.294   6.665   3.423 -0.5308  0.5331  1.5707
   17MOL    C86 6838   6.921   7.222   3.491 -0.4794 -0.2589 -0.3963
   17MOL    C87 6839   7.061   7.271   3.520  0.3337  0.1499 -0.5758
   17MOL    C88 6840   7.114   7.197   3.643  0.1692  0.4096  0.4108
   17MOL    O89 6841   7.157   7.081   3.641 -0.4724 -0.2719 -0.5088
   17MOL    O90 6842   7.105   7.268   3.758 -0.2624  0.2143 -0.0521
   17MOL    C91 6843   7.129   7.199   3.878 -0.3764 -0.2411 -0.1963
   17MOL    C92 6844   7.126   7.300   3.997  0.0387  0.5066  0.1824
   17MOL    C93 6845   7.138   7.232   4.128  0.6447 -0.3469  0.5005
   17MOL    C94 6846   7.282   7.180   4.140  0.6480  0.2749  0.2883
   17MOL    H95 6847   6.890   7.269   3.397  0.5472  0.9975 -0.1269
   17MOL    H96 6848   6.923   7.114   3.481  2.1952 -0.2829 -0.0677
   17MOL    H97 6849   7.061   7.376   3.550  0.6957 -0.5589  2.0653
   17MOL    H98 6850   7.224   7.146   3.866  1.0325  2.3589 -1.0242
   17MOL    H99 6851   7.055   7.120   3.887 -0.3279 -0.4756 -1.6761
   17MOL   H100 6852   7.216   7.360   3.988 -0.0281  0.4826 -0.6899
   17MOL   H101 6853   7.039   7.365   4.003 -2.1671 -2.2081 -1.1529
   17MOL   H102 6854   7.074   7.145   4.139  1.1057 -0.8617 -0.8237
   17MOL   H103 6855   7.111   7.297   4.211  1.0054  1.7873 -1.0165
   17MOL   H104 6856   7.364   7.252   4.133  0.4210  0.6117  1.0324
   17MOL   H105 6857   7.306   7.105   4.065  0.2167  0.1173  0.3066
   17MOL   H106 6858   7.281   7.122   4.233 -1.9966  0.3346  0.3151
   17MOL   C107 6859   7.149   7.262   3.393  0.1643 -0.0174  0.4612
   17MOL   C108 6860   7.296   7.315   3.399  0.6148  0.1825  0.4229
   17MOL   C109 6861   7.393   7.214   3.463 -0.0175  0.8514 -0.4386
   17MOL   O110 6862   7.442   7.249   3.568 -0.0890  0.2158 -0.0659
   17MOL   O111 6863   7.403   7.090   3.400 -0.5234  0.6273  0.5192
   17MOL   C112 6864   7.491   6.994   3.451 -0.0179 -0.4526  0.7670
   17MOL   C113 6865   7.423   6.875   3.522  0.1352  0.3230 -0.1047
   17MOL   C114 6866   7.323   6.811   3.430  0.7780 -0.2178 -0.1124
   17MOL   C115 6867   7.254   6.686   3.492  0.0072  0.9398  0.3497
   17MOL   H116 6868   7.092   7.313   3.316  0.2729 -0.7599 -0.1173
   17MOL   H117 6869   7.142   7.157   3.365 -0.5746  0.3549 -0.8025
   17MOL   H118 6870   7.285   7.395   3.472 -1.5014  0.7917 -0.5377
   17MOL   H119 6871   7.556   7.044   3.524 -1.2202  0.7569  1.0261
   17MOL   H120 6872   7.567   6.961   3.381 -0.2374  2.0161 -0.6750
   17MOL   H121 6873   7.492   6.795   3.549  0.5510  0.6557 -0.1821
   17MOL   H122 6874   7.378   6.929   3.605  1.4246  1.8465 -0.3668
   17MOL   H123 6875   7.372   6.782   3.336  1.3989  0.4192  0.0137
   17MOL   H124 6876   7.244   6.879   3.399  0.5326  0.0954  1.1844
   17MOL   H125 6877   7.321   6.620   3.547  1.5072  1.7211 -0.5026
   17MOL   H126 6878   7.198   6.625   3.421 -1.1402  1.4793  0.7684
   17MOL   H127 6879   7.178   6.729   3.557 -1.3784 -1.0035  0.0662
   17MOL   C128 6880   7.332   7.360   3.250 -0.7629  0.1212  0.4301
   17MOL   C129 6881   7.357   7.511   3.243 -0.4229  0.3314 -0.1802
   17MOL   C130 6882   7.490   7.555   3.315  0.3479 -0.4902  0.1043
   17MOL   O131 6883   7.575   7.476   3.344 -0.0145 -0.3365  0.2220
   17MOL   O132 6884   7.500   7.693   3.323  0.0842 -0.3194 -0.1088
   17MOL   C133 6885   7.616   7.748   3.379  0.3974  0.3176  0.1861
   17MOL   C134 6886   7.614   0.048   3.380  0.1325  0.0088 -0.0634
   17MOL   C135 6887   7.630   0.110   3.241 -0.0968 -0.1572  0.3294
   17MOL   C136 6888   7.633   0.262   3.249  0.3325 -0.1019 -0.9176
   17MOL   H137 6889   7.256   7.333   3.177 -1.1930  1.7552  0.2564
   17MOL   H138 6890   7.427   7.310   3.228 -1.8010 -0.9442 -1.7237
   17MOL   H139 6891   7.272   7.556   3.295 -0.4830 -0.2531  0.2406
   17MOL   H140 6892   7.699   7.719   3.314 -0.9645  2.1244 -2.4351
   17MOL   H141 6893   7.625   7.719   3.484 -0.4587 -1.6053 -0.2593
   17MOL   H142 6894   7.528   0.087   3.434  0.1298 -2.1202  1.5574
   17MOL   H143 6895   7.704   0.081   3.433 -0.3342  0.1478  0.6399
   17MOL   H144 6896   7.548   0.069   3.181  1.4344 -1.2374 -1.0721
   17MOL   H145 6897   7.721   0.076   3.192 -1.2834 -1.1025 -1.2812
   17MOL   H146 6898   7.636   0.312   3.152  2.5910 -0.8893 -1.2772
   17MOL   H147 6899   7.724   0.301   3.294 -0.6805  2.6872 -1.1589
   17MOL   H148 6900   7.551   0.304   3.307  1.1124  1.0047 -0.5836
   17MOL   C149 6901   7.370   7.571   3.105 -0.2647 -0.0379  0.1985
   17MOL   C150 6902   7.250   7.635   3.042 -0.4057 -0.2075 -0.2300
   17MOL   C151 6903   7.194   7.762   3.116  0.1395  0.5158  0.5657
   17MOL   O152 6904   7.078   7.776   3.148  0.4688  0.3749 -0.6911
   17MOL   O153 6905   7.301   7.852   3.134 -0.8487 -0.6276 -0.5009
   17MOL   C154 6906   7.278   0.125   3.191 -0.1531  1.0416 -0.1555
   17MOL   C155 6907   7.249   0.223   3.085  0.0333 -0.7583  0.2051
   17MOL   C156 6908   7.351   0.240   2.964  0.2320  0.0667 -0.6904
   17MOL   C157 6909   7.294   0.307   2.840 -0.4400 -0.3434 -0.1025
   17MOL   H158 6910   7.404   7.498   3.032 -0.4271  0.5978 -0.5122
   17MOL   H159 6911   7.456   7.635   3.091  0.8426 -1.8301 -1.3316
   17MOL   H160 6912   7.173   7.559   3.053  0.9509 -1.5133  0.4097
   17MOL   H161 6913   7.368   0.153   3.246  0.0963  1.2779 -0.6870
   17MOL   H162 6914   7.198   0.115   3.264 -0.5566 -0.0272 -0.7220
   17MOL   H163 6915   7.148   0.206   3.047 -0.4745  0.8897  0.7824
   17MOL   H164 6916   7.244   0.325   3.124 -1.0652 -0.2466 -1.2164
   17MOL   H165 6917   7.374   0.139   2.933  0.9305 -0.1685  0.5532
   17MOL   H166 6918   7.447   0.277   3.000  0.4046  0.5499 -1.6355
   17MOL   H167 6919   7.224   0.245   2.785 -1.2616  0.6422 -0.1938
   17MOL   H168 6920   7.369   0.335   2.766 -0.7016 -0.0285 -0.2503
   17MOL   H169 6921   7.244   0.402   2.860  1.4502  0.7053 -0.3070
   17MOL   C170 6922   7.264   7.670   2.883  0.2608  0.1208  0.0303
   17MOL   C171 6923   7.158   7.605   2.791  0.4157  0.2292 -0.6425
   17MOL   C172 6924   7.179   7.450   2.785  1.1883  0.1886 -0.4201
   17MOL   O173 6925   7.084   7.371   2.788 -0.1059  0.0773 -0.0751
   17MOL   O174 6926   7.304   7.419   2.776 -0.3300  0.5038 -0.2497
   17MOL   C175 6927   7.343   7.283   2.783  0.0729  0.1806  0.0097
   17MOL   C176 6928   7.470   7.273   2.701 -0.1083 -0.3479  0.1227
   17MOL   C177 6929   7.534   7.139   2.700 -0.7450  0.7558  0.2948
   17MOL   C178 6930   7.676   7.132   2.649 -0.0769 -0.6122  0.0280
   17MOL   H179 6931   7.358   7.637   2.839  0.8420  0.4624  0.9894
   17MOL   H180 6932   7.273   7.777   2.861  1.8249 -0.0961 -0.4849
   17MOL   H181 6933   7.174   7.651   2.694  0.3386  2.8177  0.5147
   17MOL   H182 6934   7.263   7.219   2.744  1.9819 -0.9934 -2.1155
   17MOL   H183 6935   7.357   7.256   2.887 -0.8311  0.7375  0.2840
   17MOL   H184 6936   7.450   7.317   2.603 -2.0713 -1.0192  0.1949
   17MOL   H185 6937   7.541   7.347   2.739  0.9107 -0.4964 -1.4617
   17MOL   H186 6938   7.489   7.062   2.636  2.0448  0.0655 -0.9090
   17MOL   H187 6939   7.534   7.095   2.799  1.2928  1.2818  0.5401
   17MOL   H188 6940   7.736   7.195   2.716 -2.6775  0.3930  1.4928
   17MOL   H189 6941   7.683   7.159   2.544 -0.1703 -1.4480 -0.1962
   17MOL   H190 6942   7.711   7.030   2.668 -0.5140 -0.8533 -0.4657
   17MOL   C191 6943   7.006   7.634   2.818 -0.0676 -0.6247  0.3201
   17MOL   C192 6944   6.951   7.775   2.791  0.7823 -0.1027 -0.3746
   17MOL   C193 6945   6.942   7.815   2.644  0.9173  0.3307  0.1214
   17MOL   O194 6946   6.853   7.775   2.570 -0.0372 -0.3512 -0.0338
   17MOL   O195 6947   7.045   0.040   2.604  0.6857 -0.5400  0.3085
   17MOL   C196 6948   7.052   0.101   2.471  0.3717  0.2629  0.1084
   17MOL   C197 6949   7.186   0.175   2.464  0.2241 -0.0915 -0.0084
   17MOL   C198 6950   7.210   0.245   2.330  0.0942 -0.5587  0.1559
   17MOL   C199 6951   7.331   0.334   2.336  0.2325  0.0885  0.1112
   17MOL   H200 6952   6.995   7.615   2.925 -2.6751  0.3401  0.2592
   17MOL   H201 6953   6.936   7.560   2.779 -0.7830  0.7669 -1.1044
   17MOL   H202 6954   7.023   7.840   2.841 -1.3452  0.4256  2.1283
   17MOL   H203 6955   6.972   0.173   2.455  0.6637  0.1786 -1.8898
   17MOL   H204 6956   7.036   0.033   2.387 -0.1661 -1.5342  1.6309
   17MOL   H205 6957   7.192   0.243   2.549 -3.2101 -1.2881  1.2453
   17MOL   H206 6958   7.254   0.094   2.489 -0.9610 -1.6070 -1.5934
   17MOL   H207 6959   7.122   0.308   2.317  0.5327 -0.3402 -1.9161
   17MOL   H208 6960   7.221   0.172   2.250  1.6297 -0.2676  0.0836
   17MOL   H209 6961   7.354   0.392   2.246 -0.6564 -2.0052 -1.5170
   17MOL   H210 6962   7.417   0.267   2.345  0.1606 -0.1830 -1.1054
   17MOL   H211 6963   7.339   0.394   2.427 -0.9070 -1.1377  1.0395
   17MOL   C212 6964   6.809   7.801   2.860  0.5865  0.8042 -0.0931
   17MOL   C213 6965   6.753   0.092   2.854 -0.4301  0.0914 -0.2864
   17MOL   C214 6966   6.607   0.096   2.905  0.3841 -1.4138 -0.3237
   17MOL   O215 6967   6.517   0.117   2.825  0.0918 -0.2376 -0.3526
   17MOL   O216 6968   6.590   0.084   3.043 -0.2691  0.5113  0.4562
   17MOL   C217 6969   6.466   0.103   3.102  1.1097 -0.1215  0.5747
   17MOL   C218 6970   6.409   0.246   3.103  0.3844 -0.1086 -0.4028
   17MOL   C219 6971   6.507   0.350   3.161  0.2437  0.0185  0.6480
   17MOL   C220 6972   6.476   0.498   3.121  0.0779  0.7252  0.1821
   17MOL   H221 6973   6.822   7.781   2.966  1.3642  0.6955 -0.2073
   17MOL   H222 6974   6.730   7.736   2.824  2.1035  0.4989 -3.0181
   17MOL   H223 6975   6.749   0.118   2.748  0.0908  0.8417 -0.1278
   17MOL   H224 6976   6.477   0.081   3.208  0.6512 -2.7749  0.0965
   17MOL   H225 6977   6.391   0.030   3.072  0.8336  0.6446 -0.6552
   17MOL   H226 6978   6.370   0.266   3.004 -0.7795  0.3906  0.1462
   17MOL   H227 6979   6.317   0.247   3.162  1.5767  0.5839  1.4890
   17MOL   H228 6980   6.613   0.330   3.140 -0.3444 -2.0188 -0.5697
   17MOL   H229 6981   6.501   0.334   3.269  1.7457 -1.3624  0.5668
   17MOL   H230 6982   6.377   0.523   3.157  0.2308 -1.2788  2.0954
   17MOL   H231 6983   6.481   0.502   3.012  2.3840  3.4192  0.3188
   17MOL   H232 6984   6.552   0.561   3.168  0.4444  1.3985 -1.3028
   17MOL   C233 6985   6.850   0.195   2.925 -0.4562  0.4284  0.0729
   17MOL   C234 6986   6.812   0.344   2.912  0.1380  0.2421 -0.9051
   17MOL   C235 6987   6.874   0.431   3.029  0.2187  0.2210 -0.4761
   17MOL   O236 6988   6.975   0.394   3.090  0.4173  0.2124 -0.0930
   17MOL   O237 6989   6.799   0.541   3.059 -0.2638  0.0456 -0.2235
   17MOL   C238 6990   6.856   0.642   3.143 -0.4859  0.1004  0.2576
   17MOL   C239 6991   6.824   0.779   3.097 -0.3060  0.0828 -0.9972
   17MOL   C240 6992   6.861   0.868   3.213  0.3746 -0.6237  1.1767
   17MOL   C241 6993   6.857   1.023   3.186  0.3056 -0.7515 -0.5028
   17MOL   H242 6994   6.942   0.176   2.871 -1.6838  0.8022 -2.2143
   17MOL   H243 6995   6.855   0.159   3.028 -0.4212 -0.1430 -0.1263
   17MOL   H244 6996   6.704   0.360   2.914 -0.0450 -0.1992 -4.2013
   17MOL   H245 6997   6.959   0.631   3.175 -0.9671  0.7738  2.1213
   17MOL   H246 6998   6.798   0.628   3.235  1.1723  2.8446  1.7923
   17MOL   H247 6999   6.876   0.800   3.004 -2.3306  2.2354 -1.6888
   17MOL   H248 7000   6.716   0.776   3.083 -0.3345 -0.4169 -0.6818
   17MOL   H249 7001   6.964   0.850   3.244  1.0777  1.0392 -0.0656
   17MOL   H250 7002   6.815   0.837   3.306  1.2878 -1.9495  1.1911
   17MOL   H251 7003   6.885   1.068   3.281 -1.5830 -0.8603  0.1165
   17MOL   H252 7004   6.759   1.049   3.147  0.3256 -1.6077 -1.1529
   17MOL   H253 7005   6.933   1.058   3.115 -1.0597  3.1519 -0.1475
   17MOL   C254 7006   6.865   0.395   2.769  0.1396  0.1548 -0.4244
   17MOL   C255 7007   6.831   0.542   2.735 -0.1018  0.7337  0.2645
   17MOL   C256 7008   6.892   0.577   2.600  0.2604  0.5371  0.7190
   17MOL   O257 7009   6.985   0.658   2.592 -0.4505  0.0944  0.2547
   17MOL   O258 7010   6.832   0.515   2.490  0.3647  0.5845  0.3725
   17MOL   C259 7011   6.879   0.543   2.357  0.0529  0.1567  0.3209
   17MOL   C260 7012   6.769   0.505   2.254  0.2439 -0.2486 -0.7447
   17MOL   C261 7013   6.748   0.356   2.239  0.3223 -0.0498  0.2609
   17MOL   C262 7014   6.632   0.311   2.146  0.4367 -0.4556 -0.0466
   17MOL   H263 7015   6.817   0.332   2.695 -0.0451  0.4479 -0.5561
   17MOL   H264 7016   6.973   0.397   2.758  0.5521  2.1047  3.1894
   17MOL   H265 7017   6.865   0.605   2.817  0.9736  1.9139 -1.0682
   17MOL   H266 7018   6.968   0.484   2.337 -2.4895 -2.2936 -4.6221
   17MOL   H267 7019   6.906   0.648   2.344 -0.9124  0.2221 -1.3024
   17MOL   H268 7020   6.676   0.552   2.288 -0.5528 -2.1658 -0.2157
   17MOL   H269 7021   6.805   0.541   2.158 -0.1713 -1.1593 -1.2430
   17MOL   H270 7022   6.738   0.316   2.340  1.4397  1.8965  1.1644
   17MOL   H271 7023   6.847   0.336   2.197  0.4082  0.8697  0.0314
   17MOL   H272 7024   6.644   0.210   2.109  2.0553 -1.1221  2.2020
   17MOL   H273 7025   6.640   0.376   2.058 -0.8323  0.0613  0.2067
   17MOL   H274 7026   6.533   0.321   2.192  0.3195  0.2278 -0.4353
   17MOL   C275 7027   6.678   0.566   2.732  0.1440  0.6001  0.1528
   17MOL   C276 7028   6.611   0.690   2.668  0.0289  0.1847 -0.2556
   17MOL   C277 7029   6.463   0.663   2.651 -0.4878  0.4861  0.2449
   17MOL   O278 7030   6.402   0.665   2.543  0.4799 -0.6023 -0.1102
   17MOL   O279 7031   6.392   0.638   2.764  0.1405  0.4615  0.5189
   17MOL   C280 7032   6.248   0.640   2.761 -0.2025  0.0123  0.0544
   17MOL   C281 7033   6.191   0.501   2.808  0.1783  0.9093 -0.4569
   17MOL   C282 7034   6.046   0.508   2.852 -0.3937  0.6131  0.4497
   17MOL   C283 7035   5.981   0.372   2.874 -0.5113 -0.3412 -0.6023
   17MOL   H284 7036   6.646   0.573   2.836 -1.8323  1.0743 -0.4675
   17MOL   H285 7037   6.629   0.476   2.695 -1.4410  0.9936  1.2174
   17MOL   H286 7038   6.636   0.710   2.564  0.4300 -0.5870 -0.3123
   17MOL   H287 7039   6.205   0.662   2.664 -1.1628 -0.8220  0.2871
   17MOL   H288 7040   6.217   0.717   2.832  1.2480  0.7275 -0.0707
   17MOL   H289 7041   6.187   0.435   2.722  0.2674 -0.2346  0.4133
   17MOL   H290 7042   6.255   0.451   2.880  0.3777 -1.6762 -2.3766
   17MOL   H291 7043   5.981   0.556   2.780  0.3605 -1.5377 -1.7462
   17MOL   H292 7044   6.038   0.573   2.939  0.2634 -1.3222  1.9897
   17MOL   H293 7045   6.001   0.300   2.795 -0.5555  1.6250 -2.4525
   17MOL   H294 7046   5.874   0.383   2.892 -0.3537  0.5314 -0.1362
   17MOL   H295 7047   6.020   0.331   2.967  0.1050 -0.3002 -0.8387
   17MOL   C296 7048   6.637   0.823   2.752 -0.1397 -0.0417  0.6718
   17MOL   C297 7049   6.636   0.954   2.658  0.5837 -0.5999  0.0884
   17MOL   C298 7050   6.614   1.077   2.745  0.1666 -0.1924 -0.1124
   17MOL   O299 7051   6.702   1.126   2.816  0.1691 -0.1366  0.6187
   17MOL   O300 7052   6.491   1.124   2.729 -0.2013  0.7067  0.3940
   17MOL   C301 7053   6.449   1.230   2.815  0.0954  1.0731 -0.1234
   17MOL   C302 7054   6.299   1.233   2.819 -0.1448 -1.1693 -0.0220
   17MOL   C303 7055   6.225   1.101   2.860  0.1256 -0.4360 -0.7101
   17MOL   C304 7056   6.073   1.103   2.848  0.3664 -0.1765  0.2637
   17MOL   H305 7057   6.736   0.808   2.796  1.2695  1.9159 -1.6869
   17MOL   H306 7058   6.567   0.834   2.835  1.3367 -2.5022  2.3045
   17MOL   H307 7059   6.541   0.954   2.606  0.5210  1.2147  0.1700
   17MOL   H308 7060   6.481   1.323   2.768  0.5532  0.3968 -1.1615
   17MOL   H309 7061   6.482   1.217   2.918  0.4212 -1.0363 -0.4736
   17MOL   H310 7062   6.260   1.320   2.871  0.5374 -1.1644  0.4873
   17MOL   H311 7063   6.275   1.246   2.714 -0.7493 -2.9013 -0.1206
   17MOL   H312 7064   6.249   1.082   2.964  1.6639  0.3721 -0.8957
   17MOL   H313 7065   6.273   1.018   2.808 -0.8781 -1.4429 -0.0504
   17MOL   H314 7066   6.044   1.129   2.746 -1.6741  1.6204  1.2623
   17MOL   H315 7067   6.042   1.191   2.904  1.5390  0.5600 -0.2132
   17MOL   H316 7068   6.020   1.013   2.880  1.5130 -1.8585 -2.3421
   17MOL   C317 7069   6.752   0.954   2.558 -0.4872 -0.0210  0.0669
   17MOL   C318 7070   6.749   1.052   2.432 -0.6382  0.1688 -0.7060
   17MOL   C319 7071   6.897   1.105   2.404  0.4845 -0.3764  0.1279
   17MOL   O320 7072   6.934   1.218   2.440  0.0444  0.0043 -0.1811
   17MOL   O321 7073   6.966   1.019   2.337  0.4165  0.8062  0.4814
   17MOL   C322 7074   7.101   1.052   2.304 -0.2916  0.4337  0.1316
   17MOL   C323 7075   7.169   0.912   2.317 -0.1716  0.6594 -0.2899
   17MOL   C324 7076   7.145   0.818   2.198  0.5706  0.5463  0.0351
   17MOL   C325 7077   7.195   0.670   2.216  0.3967 -0.5278  0.1068
   17MOL   H326 7078   6.771   0.854   2.521 -0.6467  0.5895 -1.6988
   17MOL   H327 7079   6.846   0.980   2.608 -0.7068  0.0891  0.4231
   17MOL   H328 7080   6.691   1.143   2.449  0.7820  0.8700  0.4885
   17MOL   H329 7081   7.143   1.124   2.375  0.1667  0.7119 -0.4182
   17MOL   H330 7082   7.108   1.095   2.204 -0.3014  0.2596  0.0557
   17MOL   H331 7083   7.277   0.921   2.329 -0.3577 -0.9928  2.8865
   17MOL   H332 7084   7.143   0.863   2.411  0.7663 -0.8509 -0.7911
   17MOL   H333 7085   7.193   0.854   2.108  0.2002 -1.7338 -1.1138
   17MOL   H334 7086   7.041   0.797   2.175  0.1436  2.1496  0.4350
   17MOL   H335 7087   7.153   0.623   2.305  0.4168 -0.7953 -0.0234
   17MOL   H336 7088   7.302   0.673   2.240  0.9056 -1.8739 -1.8807
   17MOL   H337 7089   7.175   0.604   2.132 -0.1470 -0.7810  0.4372
   17MOL   C338 7090   6.688   0.994   2.302 -0.6196 -0.3031 -0.2021
   17MOL   C339 7091   6.537   0.949   2.320  0.1100  0.3140 -0.2481
   17MOL   C340 7092   6.443   1.071   2.356 -0.7937 -0.2972 -0.2698
   17MOL   O341 7093   6.342   1.046   2.413 -0.0498 -0.3427  0.4199
   17MOL   O342 7094   6.473   1.192   2.306 -0.5440 -0.0930 -0.3619
   17MOL   C343 7095   6.392   1.307   2.322 -0.8913 -0.1538 -0.0439
   17MOL   C344 7096   6.429   1.386   2.446  0.4644  0.5353  0.1858
   17MOL   C345 7097   6.569   1.445   2.433 -0.3495  0.6912  0.3505
   17MOL   C346 7098   6.598   1.561   2.539  0.2310  0.1407  0.5163
   17MOL   H347 7099   6.734   0.897   2.280 -0.6820 -0.8639  2.0451
   17MOL   H348 7100   6.702   1.059   2.215 -1.3416 -0.9214 -0.7859
   17MOL   H349 7101   6.529   0.886   2.408 -0.4883  0.6648 -0.0444
   17MOL   H350 7102   6.290   1.270   2.337  0.2374 -3.0134  0.9140
   17MOL   H351 7103   6.382   1.380   2.242 -1.1384  0.2480  0.3478
   17MOL   H352 7104   6.350   1.457   2.467 -1.6189 -1.6697 -0.0521
   17MOL   H353 7105   6.421   1.320   2.532 -1.7475 -1.7280 -1.6874
   17MOL   H354 7106   6.578   1.490   2.335 -0.1128  0.5480  0.3069
   17MOL   H355 7107   6.644   1.367   2.448 -2.0945 -1.5333 -1.8054
   17MOL   H356 7108   6.536   1.649   2.520 -2.5243 -1.5319  1.5079
   17MOL   H357 7109   6.701   1.596   2.542  0.3571 -0.2489  0.7989
   17MOL   H358 7110   6.558   1.542   2.639  0.0002  0.7522  0.5399
   17MOL   C359 7111   6.476   0.877   2.197 -0.4306 -0.2771 -0.3900
   17MOL   C360 7112   6.443   0.957   2.062  0.2272  0.7806 -0.6095
   17MOL   C361 7113   6.517   0.889   1.943 -0.6559 -0.7437  0.2017
   17MOL   O362 7114   6.575   0.952   1.852 -0.1715 -0.0540 -0.3755
   17MOL   O363 7115   6.501   0.757   1.946 -0.1976  0.3006 -0.6495
   17MOL   C364 7116   6.573   0.669   1.859 -0.7318 -0.9941 -0.3121
   17MOL   C365 7117   6.504   0.620   1.727  0.4014 -0.2742 -0.4064
   17MOL   C366 7118   6.496   0.724   1.618 -0.3152  0.5900  0.2090
   17MOL   C367 7119   6.478   0.665   1.482  0.2534  0.5680  0.5051
   17MOL   H368 7120   6.381   0.838   2.235 -0.6654 -0.4142 -1.1045
   17MOL   H369 7121   6.530   0.785   2.179 -0.7086 -0.5644  0.2303
   17MOL   H370 7122   6.488   1.056   2.071  1.6802  0.1723 -1.0541
   17MOL   H371 7123   6.591   0.582   1.922 -0.4043 -0.0923  0.8638
   17MOL   H372 7124   6.672   0.705   1.834 -0.3904 -0.4483  1.7569
   17MOL   H373 7125   6.564   0.534   1.698  0.1073 -0.6629  0.1189
   17MOL   H374 7126   6.404   0.579   1.739  0.1664  0.8715  1.8735
   17MOL   H375 7127   6.590   0.779   1.625 -0.1540  0.7604 -2.5368
   17MOL   H376 7128   6.415   0.794   1.637 -0.7055  0.1272  0.2400
   17MOL   H377 7129   6.550   0.586   1.460  0.3449  0.0935  2.4541
   17MOL   H378 7130   6.499   0.739   1.405  1.4673  0.3020  0.5710
   17MOL   H379 7131   6.379   0.620   1.472  0.2355  1.0576 -1.8721
   17MOL   C380 7132   6.302   0.970   2.025  1.1796 -0.1235  0.2037
   17MOL   C381 7133   6.243   1.109   2.040  0.0451 -0.0210  0.0008
   17MOL   C382 7134   6.316   1.215   1.951  1.2333 -0.1096 -0.3702
   17MOL   O383 7135   6.376   1.313   2.001  0.0483  0.1890 -0.3408
   17MOL   O384 7136   6.321   1.178   1.820  0.3816  0.4950 -0.5380
   17MOL   C385 7137   6.382   1.254   1.725  0.2466 -0.3883 -0.3621
   17MOL   C386 7138   6.378   1.162   1.600  0.0046  0.7631 -0.1691
   17MOL   C387 7139   6.466   1.237   1.494  0.3576  0.0455  0.6733
   17MOL   C388 7140   6.497   1.145   1.365  0.3209 -0.4901 -0.1269
   17MOL   H389 7141   6.237   0.899   2.075  0.4189 -0.2013 -0.8719
   17MOL   H390 7142   6.287   0.939   1.921 -0.5106  0.0125  0.3967
   17MOL   H391 7143   6.254   1.137   2.145 -1.5386 -0.8571  0.4133
   17MOL   H392 7144   6.486   1.267   1.758  0.9366 -0.3513 -2.4973
   17MOL   H393 7145   6.341   1.352   1.705 -2.3797 -0.8876  2.2186
   17MOL   H394 7146   6.430   1.069   1.625 -1.4213 -0.6510 -2.4105
   17MOL   H395 7147   6.283   1.131   1.559 -0.4172  0.9503  0.6498
   17MOL   H396 7148   6.557   1.278   1.538  1.2200 -1.3960  0.2867
   17MOL   H397 7149   6.409   1.320   1.455 -1.5155 -1.1486  0.8277
   17MOL   H398 7150   6.558   1.204   1.297  0.9515  0.3230  1.1100
   17MOL   H399 7151   6.410   1.106   1.313  1.3363 -3.3251  0.1913
   17MOL   H400 7152   6.560   1.062   1.397 -1.9441 -0.8815  3.6098
   17MOL   C401 7153   6.095   1.107   2.010  0.3874 -0.2091 -0.7778
   17MOL   C402 7154   6.008   1.223   2.057 -0.6223  0.3025 -0.1389
   17MOL   C403 7155   5.992   1.228   2.209 -0.4420  0.3936 -0.3854
   17MOL   O404 7156   6.026   1.323   2.275  0.0741 -0.1052  0.5897
   17MOL   O405 7157   5.951   1.117   2.267  0.2104  0.0758  0.1687
   17MOL   C406 7158   5.924   1.107   2.406  0.0150  0.4082  0.0717
   17MOL   C407 7159   5.984   0.976   2.458  0.1077 -0.4270 -0.6265
   17MOL   C408 7160   5.905   0.859   2.397  0.6854  0.4829  0.5269
   17MOL   C409 7161   5.958   0.726   2.443  0.0114  0.4009  0.9208
   17MOL   H410 7162   6.044   1.019   2.049  1.0998 -0.0265  0.5897
   17MOL   H411 7163   6.082   1.084   1.904  0.6952  0.5810 -0.9830
   17MOL   H412 7164   5.908   1.224   2.015 -0.0243  1.7089 -1.5500
   17MOL   H413 7165   5.817   1.107   2.426 -0.3594 -1.0775 -1.7597
   17MOL   H414 7166   5.969   1.184   2.469 -2.0800  1.1634  0.6892
   17MOL   H415 7167   6.087   0.982   2.425 -0.4235 -1.4342 -2.5332
   17MOL   H416 7168   5.984   0.975   2.567 -0.0701 -1.0377 -0.6325
   17MOL   H417 7169   5.895   0.863   2.288 -0.4000 -1.0660  0.5455
   17MOL   H418 7170   5.802   0.859   2.433  0.9764 -1.5445  1.4424
   17MOL   H419 7171   6.067   0.733   2.439 -0.0045  0.0478 -0.5797
   17MOL   H420 7172   5.937   0.656   2.362  2.6853 -0.1254  0.6337
   17MOL   H421 7173   5.901   0.691   2.528 -2.0884  1.4365 -0.0401
   17MOL   H422 7174   6.046   1.322   2.033  0.2319  0.2434  0.9223
   18MOL     C1 7175   1.701   0.542   6.520  0.2031 -0.2622 -0.0294
   18MOL     C2 7176   1.653   0.461   6.402  0.2555  0.2340  0.2253
   18MOL     C3 7177   1.746   0.479   6.281 -0.1703  0.6693 -0.1878
   18MOL     O4 7178   1.867   0.488   6.299  0.2058 -0.1118 -0.3292
   18MOL     O5 7179   1.688   0.462   6.164 -0.4944  0.1483  0.3697
   18MOL     C6 7180   1.774   0.459   6.043 -0.0351  0.3834  1.2061
   18MOL     C7 7181   1.681   0.418   5.924  0.2060 -0.3700 -0.0396
   18MOL     C8 7182   1.565   0.520   5.906 -0.1955  0.2706 -0.4249
   18MOL     C9 7183   1.484   0.509   5.775 -0.0073  0.4671  0.1562
   18MOL    H10 7184   1.749   0.633   6.486  1.8217 -0.9676  0.3459
   18MOL    H11 7185   1.625   0.570   6.593 -0.1808  0.9633 -0.8824
   18MOL    H12 7186   1.562   0.505   6.360  0.4778  1.4490  1.0068
   18MOL    H13 7187   1.853   0.386   6.061  0.5688  0.2145 -1.9206
   18MOL    H14 7188   1.812   0.560   6.032 -0.5439  0.4496 -0.0398
   18MOL    H15 7189   1.743   0.401   5.836 -0.9645  0.0906 -0.9607
   18MOL    H16 7190   1.627   0.329   5.956  0.8300 -0.6038  0.3740
   18MOL    H17 7191   1.619   0.614   5.902  1.1108 -0.5059 -1.7423
   18MOL    H18 7192   1.498   0.529   5.991  0.6738  1.6233  0.1261
   18MOL    H19 7193   1.536   0.499   5.680  0.5717 -3.5015  0.8048
   18MOL    H20 7194   1.402   0.581   5.771 -1.5715 -1.3237 -0.8505
   18MOL    H21 7195   1.425   0.418   5.781  0.8339 -0.0414  0.7417
   18MOL    H22 7196   1.779   0.490   6.575 -0.0142  0.8589  1.3621
   18MOL    C23 7197   1.620   0.313   6.437 -0.0942 -0.0328 -0.6388
   18MOL    C24 7198   1.470   0.271   6.424 -0.5577  0.3381 -0.0799
   18MOL    C25 7199   1.410   0.289   6.282 -0.2597 -0.0910 -0.2287
   18MOL    O26 7200   1.468   0.279   6.175  0.0267 -0.2172 -0.5479
   18MOL    O27 7201   1.273   0.306   6.287 -0.1973  0.1616  0.1015
   18MOL    C28 7202   1.200   0.289   6.165  0.5908 -1.1852 -0.0798
   18MOL    C29 7203   1.132   0.153   6.158 -0.2161  0.0873  0.6588
   18MOL    C30 7204   1.005   0.147   6.238  0.5804 -0.4860 -0.3682
   18MOL    C31 7205   0.938   0.011   6.256 -0.6119  0.4553  0.0502
   18MOL    H32 7206   1.652   0.307   6.541  2.0115 -0.0942 -1.2869
   18MOL    H33 7207   1.684   0.242   6.384  2.4816  1.3602  0.5272
   18MOL    H34 7208   1.423   0.350   6.483  0.3775  1.0417 -0.2742
   18MOL    H35 7209   1.259   0.298   6.074 -2.2660  2.4018 -1.7001
   18MOL    H36 7210   1.130   0.373   6.158  3.0278  1.0917  1.6216
   18MOL    H37 7211   1.108   0.134   6.054 -2.6327 -0.9966  1.3752
   18MOL    H38 7212   1.210   0.085   6.194  2.3806  1.7051 -1.7491
   18MOL    H39 7213   0.942   0.219   6.186  3.3873  0.3228 -2.7698
   18MOL    H40 7214   1.020   0.190   6.337 -2.2783  1.7646 -0.8299
   18MOL    H41 7215   0.925   7.822   6.157 -1.1253  0.4799  0.1063
   18MOL    H42 7216   0.838   0.022   6.297 -0.7932 -1.4416  0.1692
   18MOL    H43 7217   0.998   7.790   6.310  0.9986  0.2985 -1.9076
   18MOL    C44 7218   1.445   0.134   6.485 -0.1504  0.7024  0.1887
   18MOL    C45 7219   1.322   0.113   6.570  0.6076  0.0063  0.4205
   18MOL    C46 7220   1.278   7.823   6.555 -0.4009  0.0178 -0.1787
   18MOL    O47 7221   1.168   7.795   6.519  0.3551 -0.7460  0.1229
   18MOL    O48 7222   1.370   7.735   6.586  0.5526  0.5833  0.5932
   18MOL    C49 7223   1.337   7.594   6.576  0.0394 -0.1172 -0.0926
   18MOL    C50 7224   1.393   7.513   6.695 -0.6035  0.3481 -0.5376
   18MOL    C51 7225   1.543   7.536   6.729 -0.7172 -0.0711 -0.1097
   18MOL    C52 7226   1.608   7.450   6.842  0.3005  0.2345 -0.2921
   18MOL    H53 7227   1.523   0.099   6.551 -1.6571 -1.8065  0.7074
   18MOL    H54 7228   1.444   0.064   6.401  1.7275  0.2332  0.5449
   18MOL    H55 7229   1.248   0.179   6.524 -1.7084 -3.2566 -0.6807
   18MOL    H56 7230   1.392   7.559   6.489  0.3886 -0.3958  0.2415
   18MOL    H57 7231   1.233   7.562   6.575 -0.0514 -0.2922  4.6517
   18MOL    H58 7232   1.338   7.531   6.787  0.2387  1.9424 -0.3321
   18MOL    H59 7233   1.382   7.407   6.673 -2.8535  0.8573 -1.9347
   18MOL    H60 7234   1.552   7.642   6.753 -2.1687  0.7444 -2.9621
   18MOL    H61 7235   1.601   7.522   6.638  1.6185  1.2423  1.1329
   18MOL    H62 7236   1.572   7.349   6.822 -1.9103  0.8214  0.5928
   18MOL    H63 7237   1.586   7.494   6.939 -1.3158  0.4907 -0.7676
   18MOL    H64 7238   1.717   7.442   6.840  0.3984  1.2559  0.6200
   18MOL    C65 7239   1.354   0.153   6.721 -0.0537 -0.6195 -0.7453
   18MOL    C66 7240   1.237   0.161   6.819  0.2405 -0.4052  0.6398
   18MOL    C67 7241   1.124   0.252   6.768  0.1171  0.2843  0.2873
   18MOL    O68 7242   1.105   0.363   6.822  0.1092  0.4488  0.6477
   18MOL    O69 7243   1.039   0.193   6.677  0.1853  0.6803  0.3917
   18MOL    C70 7244   0.925   0.262   6.625  0.4977 -0.1377  0.7845
   18MOL    C71 7245   0.795   0.224   6.697 -0.1080 -0.0890 -1.0509
   18MOL    C72 7246   0.675   0.265   6.608 -0.4992  0.4973 -0.4536
   18MOL    C73 7247   0.537   0.266   6.687 -0.2677 -0.1411 -0.2820
   18MOL    H74 7248   1.391   0.255   6.718 -1.3793 -0.0506  1.2134
   18MOL    H75 7249   1.440   0.097   6.759  0.5063 -0.2546 -1.4685
   18MOL    H76 7250   1.284   0.207   6.906 -0.9307 -2.0702  2.1963
   18MOL    H77 7251   0.908   0.215   6.529  0.6201 -0.7539  1.0618
   18MOL    H78 7252   0.946   0.368   6.613  1.3359 -0.5045 -1.1623
   18MOL    H79 7253   0.785   0.117   6.715 -0.0449  0.0666 -0.0273
   18MOL    H80 7254   0.791   0.275   6.793 -0.1656 -0.0833 -1.0569
   18MOL    H81 7255   0.655   0.218   6.512 -1.3323  0.6484 -0.3534
   18MOL    H82 7256   0.695   0.366   6.573 -0.3242  0.1394 -1.3933
   18MOL    H83 7257   0.517   0.163   6.718 -0.8787  0.5892  1.7946
   18MOL    H84 7258   0.460   0.304   6.620  0.7459  0.9442 -0.8539
   18MOL    H85 7259   0.544   0.334   6.771 -1.2547 -1.3389  0.8037
   18MOL    C86 7260   1.182   0.026   6.878  0.1541 -0.2234 -0.2746
   18MOL    C87 7261   1.146   0.012   7.023 -0.5879 -0.7302 -0.3921
   18MOL    C88 7262   1.267   0.012   7.117  0.0474 -0.1268 -0.0440
   18MOL    O89 7263   1.340   0.112   7.140  0.6943  0.3285  0.0766
   18MOL    O90 7264   1.289   7.742   7.166  0.2170 -0.7236  0.2034
   18MOL    C91 7265   1.397   7.722   7.255 -0.1935 -0.0980 -0.0742
   18MOL    C92 7266   1.495   7.611   7.207  0.3403 -0.5329 -0.2860
   18MOL    C93 7267   1.585   7.558   7.316  0.2743  1.0984 -0.0088
   18MOL    C94 7268   1.678   7.447   7.269 -0.3889  0.0467  0.3210
   18MOL    H95 7269   1.250   7.796   6.861 -1.4120 -1.4953 -0.4918
   18MOL    H96 7270   1.106   7.840   6.811  1.5597 -1.4305 -1.1822
   18MOL    H97 7271   1.101   7.766   7.033 -0.6696 -0.5611  1.1240
   18MOL    H98 7272   1.351   7.695   7.350 -1.2539 -1.5290 -0.9510
   18MOL    H99 7273   1.457   7.812   7.263  0.7601 -0.8513  1.2716
   18MOL   H100 7274   1.443   7.526   7.161  0.1660 -0.6639  0.1512
   18MOL   H101 7275   1.551   7.653   7.124  0.7761  0.2670  0.4022
   18MOL   H102 7276   1.532   7.509   7.397 -0.3646 -0.8508 -1.5601
   18MOL   H103 7277   1.636   7.645   7.356  0.3593  0.7374  0.6670
   18MOL   H104 7278   1.748   7.415   7.347  1.1148  1.5031 -0.4010
   18MOL   H105 7279   1.733   7.480   7.181 -0.4322  0.5146  0.4702
   18MOL   H106 7280   1.621   7.357   7.245 -1.1416  0.9110 -1.1423
   18MOL   C107 7281   1.051   0.130   7.052  0.2826 -0.6754  0.3847
   18MOL   C108 7282   0.952   0.103   7.170 -0.1006  0.0007 -0.8317
   18MOL   C109 7283   0.905   0.230   7.237 -0.7073  0.0017  0.5061
   18MOL   O110 7284   0.913   0.252   7.356  0.2035  0.1073 -0.0036
   18MOL   O111 7285   0.853   0.313   7.144  0.0754  0.5116 -0.2591
   18MOL   C112 7286   0.796   0.441   7.174  0.0292  0.6053 -0.5561
   18MOL   C113 7287   0.727   0.492   7.049  0.7019 -0.1605 -0.4598
   18MOL   C114 7288   0.810   0.567   6.948  0.0289 -0.0191  0.0485
   18MOL   C115 7289   0.720   0.620   6.840 -0.1096 -0.5738  0.3420
   18MOL   H116 7290   0.982   0.143   6.970 -1.6671  0.0573  2.1113
   18MOL   H117 7291   1.113   0.218   7.072  0.1636 -0.7725  1.2067
   18MOL   H118 7292   1.008   0.045   7.243 -1.4461 -0.5771 -0.2443
   18MOL   H119 7293   0.875   0.511   7.200  1.3654 -1.1627  0.3065
   18MOL   H120 7294   0.722   0.435   7.255  1.6533  0.0102  0.9173
   18MOL   H121 7295   0.663   0.415   7.007  0.1835 -1.2121  2.1854
   18MOL   H122 7296   0.655   0.565   7.087  0.8783  0.4879 -1.3425
   18MOL   H123 7297   0.891   0.500   6.918 -0.0982 -0.5408  0.8551
   18MOL   H124 7298   0.869   0.649   6.989 -0.2374  1.5776 -2.6211
   18MOL   H125 7299   0.635   0.672   6.884 -0.5294 -0.8403 -0.1543
   18MOL   H126 7300   0.682   0.532   6.788  1.2020 -1.7032  1.2367
   18MOL   H127 7301   0.771   0.686   6.770 -2.7315  0.4525 -0.6354
   18MOL   C128 7302   0.831   0.019   7.125  0.1401 -0.0921  0.3976
   18MOL   C129 7303   0.763   7.800   7.237 -0.5042  0.8069 -0.0393
   18MOL   C130 7304   0.631   0.028   7.266 -0.4110  0.7414 -0.2837
   18MOL   O131 7305   0.620   0.089   7.372 -0.0115  0.0152  0.4034
   18MOL   O132 7306   0.546   0.036   7.169  0.0042  0.0793 -0.1414
   18MOL   C133 7307   0.425   0.107   7.182  0.8771 -0.1061  0.2513
   18MOL   C134 7308   0.431   0.249   7.123 -0.2871 -0.7623  0.5884
   18MOL   C135 7309   0.298   0.319   7.125  0.2922  0.2131  0.4204
   18MOL   C136 7310   0.306   0.436   7.027 -0.4785 -0.1119 -0.5016
   18MOL   H137 7311   0.860   7.805   7.043  1.1430 -0.3284  0.9333
   18MOL   H138 7312   0.769   0.092   7.073  0.6465  0.1844  0.1701
   18MOL   H139 7313   0.821   7.800   7.330 -2.4534 -4.1671  1.3490
   18MOL   H140 7314   0.383   0.117   7.282 -1.1188 -1.0030 -0.4676
   18MOL   H141 7315   0.358   0.039   7.129 -0.0858  1.1411 -0.1715
   18MOL   H142 7316   0.504   0.314   7.171 -1.2040  0.5355  0.2455
   18MOL   H143 7317   0.474   0.230   7.025  2.3226 -3.3005  2.1435
   18MOL   H144 7318   0.260   0.350   7.223  0.6639 -0.2499  0.7154
   18MOL   H145 7319   0.222   0.253   7.081 -0.7722  0.7171  1.4680
   18MOL   H146 7320   0.203   0.444   6.990 -0.3053  1.8558 -0.6328
   18MOL   H147 7321   0.368   0.405   6.943 -1.0856  1.9828 -1.7836
   18MOL   H148 7322   0.337   0.531   7.071 -0.0293 -0.0109 -1.0296
   18MOL   C149 7323   0.724   7.652   7.194 -0.0934 -0.7913 -0.7874
   18MOL   C150 7324   0.845   7.561   7.190 -0.9367 -0.0106  0.5199
   18MOL   C151 7325   0.883   7.523   7.336 -0.0816  0.3090 -0.0879
   18MOL   O152 7326   0.999   7.530   7.372  0.0027  0.4088  0.2825
   18MOL   O153 7327   0.783   7.467   7.411 -0.1797 -0.9858  0.8874
   18MOL   C154 7328   0.812   7.431   7.549 -0.2544  0.6545 -0.0723
   18MOL   C155 7329   0.719   7.319   7.603 -0.0959 -0.6398  0.4474
   18MOL   C156 7330   0.743   7.292   7.750 -0.3801  0.0308 -0.1474
   18MOL   C157 7331   0.622   7.229   7.812 -0.0919 -0.4257  0.4723
   18MOL   H158 7332   0.690   7.665   7.091  2.5373  2.7938 -1.3104
   18MOL   H159 7333   0.647   7.599   7.249  1.0249  0.7677  2.3654
   18MOL   H160 7334   0.925   7.615   7.140 -1.0377  0.7613  1.1716
   18MOL   H161 7335   0.785   7.515   7.614 -1.7299 -1.2064  1.8056
   18MOL   H162 7336   0.916   7.406   7.570 -0.6822  0.5947  2.1196
   18MOL   H163 7337   0.611   7.334   7.591 -0.3756  1.3672  4.7176
   18MOL   H164 7338   0.738   7.230   7.543  0.3162 -0.2132 -0.0554
   18MOL   H165 7339   0.763   7.388   7.796 -0.1320  0.5880 -1.3878
   18MOL   H166 7340   0.827   7.225   7.770  0.7565  1.0314 -1.4454
   18MOL   H167 7341   0.586   7.140   7.759  2.3684  0.0495 -2.1243
   18MOL   H168 7342   0.538   7.299   7.812  0.9719  0.8570  1.1545
   18MOL   H169 7343   0.642   7.196   0.061 -0.0118  1.5805  1.1265
   18MOL   C170 7344   0.817   7.441   7.107 -0.3248  0.3418 -0.3853
   18MOL   C171 7345   0.932   7.370   7.028 -0.1024  0.5477 -0.5545
   18MOL   C172 7346   0.958   7.458   6.910 -0.0929 -0.5775  0.2522
   18MOL   O173 7347   1.056   7.534   6.899  0.0760 -0.2723 -0.4233
   18MOL   O174 7348   0.854   7.454   6.825 -0.6881  0.5489  0.2764
   18MOL   C175 7349   0.858   7.522   6.704 -0.1750 -0.0469 -0.0637
   18MOL   C176 7350   0.720   7.591   6.683  0.3184 -0.7400  1.0319
   18MOL   C177 7351   0.664   7.675   6.798  0.6554 -0.0643 -0.7896
   18MOL   C178 7352   0.530   7.736   6.766  0.6261 -0.0135  0.1924
   18MOL   H179 7353   0.731   7.442   7.040 -1.0474 -3.3163  0.3619
   18MOL   H180 7354   0.773   7.375   7.182  0.3313 -1.6925 -1.7373
   18MOL   H181 7355   0.880   7.277   7.004 -1.2193  0.6910  1.2631
   18MOL   H182 7356   0.874   7.449   6.624  0.0821  0.1318 -0.1768
   18MOL   H183 7357   0.949   7.581   6.696 -2.0305  2.7991 -0.9876
   18MOL   H184 7358   0.719   7.649   6.591 -0.1103 -1.5646  0.5153
   18MOL   H185 7359   0.643   7.517   6.662  0.1790 -0.2047 -0.4307
   18MOL   H186 7360   0.737   7.752   6.823 -0.1315  0.6986 -0.7822
   18MOL   H187 7361   0.662   7.613   6.888 -0.3238 -0.7415 -1.2728
   18MOL   H188 7362   0.496   7.789   6.854 -0.5004 -0.1799 -0.1308
   18MOL   H189 7363   0.460   7.656   6.739  0.4766  0.0959  0.2499
   18MOL   H190 7364   0.537   7.803   6.681  0.1101 -0.9186 -0.5812
   18MOL   C191 7365   1.070   7.335   7.106  0.2900 -0.1482  0.2725
   18MOL   C192 7366   1.177   7.262   7.030 -0.1477  0.0621  0.6351
   18MOL   C193 7367   1.313   7.250   7.102 -0.0280 -0.1237 -0.2594
   18MOL   O194 7368   1.419   7.302   7.061  0.1653 -0.0651  0.1511
   18MOL   O195 7369   1.302   7.167   7.204 -0.0557 -0.3163  0.7422
   18MOL   C196 7370   1.424   7.120   7.253  0.4305  0.3033 -0.0923
   18MOL   C197 7371   1.409   7.120   7.404 -0.1490 -0.2192  0.3646
   18MOL   C198 7372   1.526   7.063   7.481 -0.7151  0.4145 -0.4353
   18MOL   C199 7373   1.499   7.060   7.631  0.6615 -0.2457 -1.1868
   18MOL   H200 7374   1.048   7.268   7.190 -1.7455 -1.2904 -1.1237
   18MOL   H201 7375   1.122   7.425   7.137  0.9851 -1.4520  3.1001
   18MOL   H202 7376   1.201   7.308   6.934 -0.9121 -0.6242  0.1134
   18MOL   H203 7377   1.514   7.174   7.228  0.0496  2.0198  2.1124
   18MOL   H204 7378   1.447   7.022   7.210 -3.3328 -0.7860  0.1704
   18MOL   H205 7379   1.396   7.224   7.432 -0.6311 -0.1607 -0.0601
   18MOL   H206 7380   1.321   7.074   7.449 -0.7805  1.4790  0.8705
   18MOL   H207 7381   1.607   7.134   7.468  1.2312 -1.8715 -1.3184
   18MOL   H208 7382   1.566   6.971   7.438  0.8803  0.5211  0.7564
   18MOL   H209 7383   1.493   7.161   7.673  0.3625 -0.1430 -1.4728
   18MOL   H210 7384   1.585   7.009   7.673 -1.1909 -1.9319  0.6569
   18MOL   H211 7385   1.412   7.000   7.657  1.3056 -1.7834 -2.4924
   18MOL   C212 7386   1.118   7.128   6.979 -0.3590 -0.3507 -0.3255
   18MOL   C213 7387   1.056   7.112   6.835 -1.1258 -0.7155 -0.0976
   18MOL   C214 7388   1.158   7.142   6.722 -0.5431  0.1234 -0.3816
   18MOL   O215 7389   1.142   7.235   6.644 -0.1979 -0.1235 -0.2763
   18MOL   O216 7390   1.265   7.062   6.728 -0.0149 -0.0061  0.6176
   18MOL   C217 7391   1.366   7.062   6.629  0.3649  0.1858  0.0437
   18MOL   C218 7392   1.467   6.961   6.668 -0.4170  0.4496  0.1458
   18MOL   C219 7393   1.547   6.995   6.798  0.3585 -0.4358  0.1587
   18MOL   C220 7394   1.660   6.902   6.827 -0.5318 -0.4458  0.1700
   18MOL   H221 7395   1.042   7.096   7.050  0.6153  1.0174  1.3779
   18MOL   H222 7396   1.203   7.060   6.980  1.7888  2.2496  1.2829
   18MOL   H223 7397   0.975   7.185   6.829  1.9396  2.7674 -1.2326
   18MOL   H224 7398   1.412   7.161   6.631  1.3489 -0.2587 -0.3965
   18MOL   H225 7399   1.335   7.042   6.526  3.1651  4.9284 -1.9054
   18MOL   H226 7400   1.408   6.869   6.669 -3.2392  2.2005 -0.4375
   18MOL   H227 7401   1.542   6.950   6.590 -1.7862 -0.7570 -1.0261
   18MOL   H228 7402   1.483   6.984   6.886  0.9737 -2.9470  0.3436
   18MOL   H229 7403   1.595   7.092   6.800  0.5168 -0.5208  0.4195
   18MOL   H230 7404   1.657   6.874   6.932 -1.1189 -0.7346  0.0790
   18MOL   H231 7405   1.757   6.946   6.806 -0.8066 -0.4132 -1.1032
   18MOL   H232 7406   1.667   6.811   6.767 -1.4892  0.3928 -1.2331
   18MOL   C233 7407   0.996   6.971   6.807 -0.3614 -0.1360 -0.2774
   18MOL   C234 7408   0.879   6.931   6.902  0.0019 -0.4402  0.8759
   18MOL   C235 7409   0.759   7.021   6.878 -0.1104  0.1232 -0.0981
   18MOL   O236 7410   0.711   7.083   6.973  0.1189  0.6873 -0.1411
   18MOL   O237 7411   0.731   7.028   6.746  0.1153  0.2439 -0.1048
   18MOL   C238 7412   0.639   7.117   6.696  0.3751  0.7348 -0.3428
   18MOL   C239 7413   0.709   7.178   6.566 -0.4001  0.1033  0.0572
   18MOL   C240 7414   0.700   7.084   6.444  0.8529  0.5423  0.5196
   18MOL   C241 7415   0.798   6.971   6.422  0.6930  0.1014 -0.0270
   18MOL   H242 7416   1.078   6.906   6.837  0.2655  0.9677  0.4365
   18MOL   H243 7417   0.976   6.958   6.701 -0.3191 -1.5054 -0.1286
   18MOL   H244 7418   0.893   6.935   7.010 -1.6473 -1.0775  1.1362
   18MOL   H245 7419   0.603   7.187   6.771 -0.5327 -2.0328  1.8937
   18MOL   H246 7420   0.546   7.076   6.656  0.3061 -0.0417  0.5893
   18MOL   H247 7421   0.669   7.275   6.538 -0.4669 -0.0562 -0.4093
   18MOL   H248 7422   0.814   7.192   6.591  0.0991 -1.4185 -1.1217
   18MOL   H249 7423   0.705   7.153   6.360  0.7001  0.7550  0.6854
   18MOL   H250 7424   0.598   7.045   6.439  0.4257  1.7793 -0.7287
   18MOL   H251 7425   0.903   6.999   6.433  0.1360  1.7965  1.1904
   18MOL   H252 7426   0.784   6.928   6.323  1.4136  2.2208 -1.0890
   18MOL   H253 7427   0.791   6.895   6.499  1.8391 -0.3765 -0.3703
   18MOL   C254 7428   0.829   6.786   6.881  0.2782  0.4210 -0.1130
   18MOL   C255 7429   0.912   6.685   6.958 -0.3415  0.4331 -0.3892
   18MOL   C256 7430   0.859   6.663   7.103  0.3774 -0.8337  0.7670
   18MOL   O257 7431   0.819   6.554   7.144  0.0900  0.7407  0.0067
   18MOL   O258 7432   0.864   6.776   7.182 -0.7857  0.1133  0.0948
   18MOL   C259 7433   0.816   6.775   7.311 -0.2269  0.0525 -0.1153
   18MOL   C260 7434   0.920   6.846   7.401 -0.5212  0.1523  0.7633
   18MOL   C261 7435   0.886   6.998   7.406  0.4316 -0.1805 -0.3578
   18MOL   C262 7436   0.975   7.075   7.494  0.0115  0.5006  0.1735
   18MOL   H263 7437   0.835   6.750   6.778 -0.3351 -2.0114  0.6729
   18MOL   H264 7438   0.722   6.767   6.895  0.1234  0.3237 -1.3450
   18MOL   H265 7439   1.014   6.721   6.971  0.2848 -1.4889  0.1403
   18MOL   H266 7440   0.795   6.672   7.342  1.1742 -0.7771 -1.8506
   18MOL   H267 7441   0.718   6.821   7.323 -0.2205  0.3147 -1.0901
   18MOL   H268 7442   0.920   6.797   7.498 -0.0710  0.1554  0.7635
   18MOL   H269 7443   1.019   6.823   7.363  0.3657  1.5060  2.2158
   18MOL   H270 7444   0.787   7.005   7.452 -0.1116 -0.0413 -1.5289
   18MOL   H271 7445   0.889   7.041   7.306 -2.2781 -1.4843 -1.0472
   18MOL   H272 7446   0.971   7.183   7.480 -1.7022  0.4861  0.4945
   18MOL   H273 7447   1.077   7.049   7.464  0.9020  1.7890  2.0065
   18MOL   H274 7448   0.952   7.046   7.596 -1.5083  0.6325 -0.1272
   18MOL   C275 7449   0.912   6.557   6.888 -0.5243  0.1815  0.1591
   18MOL   C276 7450   1.000   6.549   6.759 -0.2707 -0.0817  0.6320
   18MOL   C277 7451   1.138   6.615   6.768 -0.0404 -0.2686 -0.3710
   18MOL   O278 7452   1.176   6.710   6.694 -0.9702  0.2942 -0.1724
   18MOL   O279 7453   1.210   6.567   6.864 -0.5478 -0.0054  0.4760
   18MOL   C280 7454   1.343   6.626   6.881 -0.0672 -1.5390  0.3185
   18MOL   C281 7455   1.336   6.729   6.988 -0.5061 -0.3343 -0.7045
   18MOL   C282 7456   1.279   6.682   7.121 -0.5029 -0.8553  0.2044
   18MOL   C283 7457   1.261   6.794   7.224 -0.5334 -1.0489  0.4098
   18MOL   H284 7458   0.816   6.511   6.864  0.5290 -1.1489 -1.6580
   18MOL   H285 7459   0.956   6.475   6.946 -4.2327 -2.0743 -0.0627
   18MOL   H286 7460   0.958   6.613   6.681  1.6814  0.0610 -0.3391
   18MOL   H287 7461   1.386   6.657   6.786 -0.6442  0.4573  0.6795
   18MOL   H288 7462   1.407   6.544   6.914  2.0036 -0.1130 -0.0181
   18MOL   H289 7463   1.435   6.767   7.012  0.1204 -3.4741  2.0259
   18MOL   H290 7464   1.280   6.817   6.957 -0.5729 -0.5325 -1.1447
   18MOL   H291 7465   1.334   6.598   7.162  2.2298  0.9677  0.3877
   18MOL   H292 7466   1.174   6.663   7.101 -0.4575 -0.6735 -0.2159
   18MOL   H293 7467   1.354   6.834   7.263 -1.2976  0.7117  0.4747
   18MOL   H294 7468   1.221   6.755   7.318  1.0736 -1.3891  0.9549
   18MOL   H295 7469   1.188   6.867   7.189 -0.4871 -0.1512  2.1328
   18MOL   C296 7470   1.009   6.402   6.704 -0.4315 -0.1606 -0.5705
   18MOL   C297 7471   1.051   6.377   6.558  0.6730  1.2305 -0.0651
   18MOL   C298 7472   0.939   6.439   6.468 -0.3573  0.0167  0.3505
   18MOL   O299 7473   0.929   6.557   6.435  0.1189  0.5503  0.6256
   18MOL   O300 7474   0.853   6.346   6.421 -0.3475 -0.3179  0.3428
   18MOL   C301 7475   0.749   6.381   6.329 -0.5480  0.4287 -0.5433
   18MOL   C302 7476   0.621   6.342   6.399 -0.3973 -0.0958 -0.1389
   18MOL   C303 7477   0.504   6.319   6.308  0.4971 -0.9037  0.4756
   18MOL   C304 7478   0.381   6.273   6.379 -0.0305  0.9383 -0.1921
   18MOL   H305 7479   0.908   6.361   6.716 -0.6038  0.3375 -0.3119
   18MOL   H306 7480   1.075   6.348   6.772 -0.3880 -0.5180 -0.8995
   18MOL   H307 7481   1.044   6.268   6.555  0.5063  1.2478 -0.3020
   18MOL   H308 7482   0.755   6.321   6.238 -0.1846 -1.8760  0.9325
   18MOL   H309 7483   0.748   6.488   6.308  1.1990  0.4106 -0.7905
   18MOL   H310 7484   0.643   6.266   6.475  4.6422  1.3267  0.0142
   18MOL   H311 7485   0.595   6.427   6.462 -1.9766 -0.3022 -0.4840
   18MOL   H312 7486   0.529   6.239   6.239  0.0090  0.4051 -1.2471
   18MOL   H313 7487   0.494   6.409   6.247  3.1644 -0.5195  0.5645
   18MOL   H314 7488   0.293   6.312   6.329 -1.8393 -1.7006  0.8098
   18MOL   H315 7489   0.372   6.307   6.482 -0.0818 -1.5692  0.6784
   18MOL   H316 7490   0.361   6.166   6.380  1.0352  0.7342 -0.0704
   18MOL   C317 7491   1.197   6.410   6.525  0.3227  0.6500 -0.5928
   18MOL   C318 7492   1.259   6.330   6.410  0.0275  0.3717 -0.1185
   18MOL   C319 7493   1.381   6.403   6.363  0.4824  0.0105 -0.2066
   18MOL   O320 7494   1.371   6.473   6.265  0.4934 -0.3699 -0.0741
   18MOL   O321 7495   1.491   6.379   6.436  0.4346  0.2490  0.1791
   18MOL   C322 7496   1.607   6.461   6.410 -0.0029  0.0835 -0.1532
   18MOL   C323 7497   1.583   6.604   6.464 -0.6662  0.4244 -0.2169
   18MOL   C324 7498   1.711   6.683   6.480 -0.5932 -0.2892  0.6270
   18MOL   C325 7499   1.797   6.625   6.595 -0.1370 -0.4674 -0.0538
   18MOL   H326 7500   1.258   6.397   6.614 -0.4427  1.4823  0.0649
   18MOL   H327 7501   1.202   6.515   6.495 -0.0793  0.4399 -1.4168
   18MOL   H328 7502   1.185   6.327   6.331  0.2016 -1.8406 -0.2370
   18MOL   H329 7503   1.620   6.460   6.302  1.3297 -1.7221  0.0027
   18MOL   H330 7504   1.690   6.413   6.461 -1.3567 -1.2873  0.7935
   18MOL   H331 7505   1.516   6.657   6.396 -1.5676  0.3738  0.6046
   18MOL   H332 7506   1.533   6.604   6.561 -0.2421  0.0137  0.0015
   18MOL   H333 7507   1.690   6.789   6.496  0.5547  0.1368 -0.5971
   18MOL   H334 7508   1.757   6.695   6.382 -1.5298  4.4147  0.6290
   18MOL   H335 7509   1.842   6.531   6.565  1.1476 -0.7336  2.5095
   18MOL   H336 7510   1.743   6.611   6.689 -0.0101 -1.0973 -0.0714
   18MOL   H337 7511   1.887   6.685   6.610  0.1735 -0.5452 -1.5410
   18MOL   C338 7512   1.290   6.180   6.437 -1.0311 -0.0379 -0.7843
   18MOL   C339 7513   1.299   6.070   6.325  0.8209 -0.0504 -0.1575
   18MOL   C340 7514   1.168   6.060   6.241 -0.0570 -0.3761 -0.0572
   18MOL   O341 7515   1.087   5.968   6.248 -0.2782 -0.2452 -0.1734
   18MOL   O342 7516   1.162   6.168   6.162  0.1094 -0.4015 -0.9687
   18MOL   C343 7517   1.066   6.175   6.062  0.5442  0.3573  0.2021
   18MOL   C344 7518   1.097   6.083   5.943  0.2134  0.0816 -0.5204
   18MOL   C345 7519   0.981   6.097   5.846  0.3676  0.7485  0.3217
   18MOL   C346 7520   1.013   6.037   5.701  0.2870 -0.2079  0.6871
   18MOL   H347 7521   1.236   6.130   6.518  0.1993  1.7054  1.1739
   18MOL   H348 7522   1.388   6.170   6.484 -0.8774 -1.7131 -1.4147
   18MOL   H349 7523   1.304   5.978   6.383  1.1447 -1.9710 -3.1179
   18MOL   H350 7524   1.073   6.280   6.034 -3.4001  0.3536 -1.1383
   18MOL   H351 7525   0.962   6.177   6.097  0.1412 -0.7189 -0.9016
   18MOL   H352 7526   1.190   6.112   5.893  0.5211 -1.4636 -0.8646
   18MOL   H353 7527   1.112   5.984   5.986  0.6172  0.7462  0.9299
   18MOL   H354 7528   0.952   6.195   5.808 -0.8679  0.6691  1.0344
   18MOL   H355 7529   0.887   6.054   5.882 -0.2735  0.0891 -2.0358
   18MOL   H356 7530   1.085   6.103   5.651 -2.3842  0.2976 -2.6681
   18MOL   H357 7531   0.935   6.022   5.628  0.9109  0.2753 -0.0914
   18MOL   H358 7532   1.058   5.938   5.703  1.2216  0.1848 -0.3795
   18MOL   C359 7533   1.429   6.079   6.238  0.3687  0.3815  0.1323
   18MOL   C360 7534   1.565   6.035   6.311 -0.4430 -0.3008  1.0668
   18MOL   C361 7535   1.570   5.890   6.366 -0.2448 -0.0328  0.1227
   18MOL   O362 7536   1.527   5.795   6.308  0.6223 -0.3955 -0.4273
   18MOL   O363 7537   1.625   5.896   6.488 -0.2285 -0.0754  0.1617
   18MOL   C364 7538   1.650   5.769   6.549  0.4692 -0.5146 -0.1424
   18MOL   C365 7539   1.748   5.788   6.660  0.7346 -0.8406 -0.1259
   18MOL   C366 7540   1.876   5.856   6.610  0.0660  0.8189 -0.2550
   18MOL   C367 7541   2.003   5.833   6.700  0.0054 -0.3110 -0.0289
   18MOL   H368 7542   1.438   6.183   6.208  1.8537 -0.0716 -1.1087
   18MOL   H369 7543   1.412   6.024   6.146 -0.5842 -0.5564  0.8573
   18MOL   H370 7544   1.586   6.100   6.396  1.2494 -0.3978  0.7454
   18MOL   H371 7545   1.694   5.703   6.475  3.0489  0.7133  0.2165
   18MOL   H372 7546   1.558   5.728   6.589  1.8567 -2.5771  1.0547
   18MOL   H373 7547   1.708   5.853   6.737  2.9488 -0.2702  0.5896
   18MOL   H374 7548   1.755   5.692   6.711  0.6296 -2.7601 -3.5575
   18MOL   H375 7549   1.859   5.962   6.592 -1.6345  0.7958  1.0645
   18MOL   H376 7550   1.894   5.808   6.513  2.5717  0.5193  0.3398
   18MOL   H377 7551   2.087   5.874   6.643 -1.3870  1.7903 -0.6748
   18MOL   H378 7552   2.022   5.728   6.720  0.9383  0.4916  3.7254
   18MOL   H379 7553   1.990   5.875   6.800  0.9294 -0.4091  0.1342
   18MOL   C380 7554   1.684   6.058   6.225 -0.6156  0.1935  0.1722
   18MOL   C381 7555   1.827   6.062   6.269 -0.2192 -0.8898  0.3028
   18MOL   C382 7556   1.916   6.056   6.144 -0.6712  0.3617 -0.4987
   18MOL   O383 7557   1.983   5.956   6.117 -0.0587  0.2109 -0.3752
   18MOL   O384 7558   1.892   6.162   6.067 -0.1962 -0.5598 -0.0834
   18MOL   C385 7559   1.945   6.168   5.931 -0.4147 -0.2119 -0.6861
   18MOL   C386 7560   1.841   6.107   5.828 -0.1082  0.2119 -0.1685
   18MOL   C387 7561   1.894   6.117   5.684  0.4555 -0.3658  0.1573
   18MOL   C388 7562   1.820   6.019   5.588 -0.0721 -0.3316  0.2851
   18MOL   H389 7563   1.656   6.156   6.186  2.2958  1.1532  0.4294
   18MOL   H390 7564   1.668   5.995   6.138  0.8327 -0.8408  0.6447
   18MOL   H391 7565   1.841   5.977   6.335 -3.1460 -1.1094  0.6874
   18MOL   H392 7566   2.035   6.109   5.918  0.3618  0.5187  1.0910
   18MOL   H393 7567   1.968   6.272   5.910  0.5902 -0.7215 -2.1441
   18MOL   H394 7568   1.835   5.999   5.843 -1.8247  0.3174  0.0188
   18MOL   H395 7569   1.736   6.136   5.836 -0.5348 -1.2616 -0.1884
   18MOL   H396 7570   1.997   6.083   5.694 -0.2479 -2.2756  1.3432
   18MOL   H397 7571   1.884   6.219   5.647  1.1101 -0.7052 -0.9741
   18MOL   H398 7572   1.712   6.034   5.582  0.0783  1.0240  0.7551
   18MOL   H399 7573   1.829   5.911   5.597  2.0701 -0.1816  0.0035
   18MOL   H400 7574   1.856   6.031   5.486 -0.2074 -0.4494  0.2229
   18MOL   C401 7575   1.853   6.187   6.355  0.4239  0.2144  0.4424
   18MOL   C402 7576   1.989   6.175   6.427  0.1582 -0.1303  0.2281
   18MOL   C403 7577   2.053   6.294   6.474 -0.0039  0.5474  0.3017
   18MOL   O404 7578   2.063   6.310   6.594  0.7583  0.1523 -0.8420
   18MOL   O405 7579   2.095   6.375   6.387 -0.1525 -0.2025  0.1784
   18MOL   C406 7580   2.146   6.497   6.441  0.5276  0.4165  0.2377
   18MOL   C407 7581   2.184   6.593   6.327 -0.1409 -0.7600 -0.0769
   18MOL   C408 7582   2.059   6.639   6.244 -0.1481  0.9242 -0.1777
   18MOL   C409 7583   2.087   6.761   6.157  0.2478 -0.3883  0.1622
   18MOL   H410 7584   1.777   6.191   6.433  0.1960  2.3853  0.1657
   18MOL   H411 7585   1.841   6.278   6.295 -0.2734 -2.1524 -3.1297
   18MOL   H412 7586   2.061   6.131   6.358  0.6598  1.5092 -0.3053
   18MOL   H413 7587   2.236   6.477   6.499 -0.8448 -0.7298  2.0313
   18MOL   H414 7588   2.076   6.545   6.510 -2.6638 -0.5673 -2.1895
   18MOL   H415 7589   2.226   6.684   6.371 -0.1839 -1.7100  1.9316
   18MOL   H416 7590   2.258   6.544   6.263 -0.5904 -1.8168  0.2072
   18MOL   H417 7591   1.975   6.663   6.310  1.6033  0.8807  2.1376
   18MOL   H418 7592   2.038   6.550   6.185 -0.1344  0.7181  0.1283
   18MOL   H419 7593   2.009   6.782   6.085  0.5611  1.0123  0.2082
   18MOL   H420 7594   2.176   6.747   6.094 -0.1543 -1.8644 -0.1036
   18MOL   H421 7595   2.101   6.850   6.218 -0.3145  0.7819 -1.3638
   18MOL   H422 7596   1.966   6.107   6.510 -1.7385  0.7208  0.4340
   19MOL     C1 7597   4.826   3.538   5.091  0.0607 -0.3748 -0.0323
   19MOL     C2 7598   4.806   3.493   5.235  0.8988  0.3116 -1.2748
   19MOL     C3 7599   4.675   3.403   5.243  0.5217  0.1971 -0.2255
   19MOL     O4 7600   4.583   3.440   5.322 -0.4748  0.1012  0.4560
   19MOL     O5 7601   4.690   3.292   5.177  0.7679 -0.4084 -0.6184
   19MOL     C6 7602   4.575   3.199   5.155 -0.0530 -0.9416 -0.1860
   19MOL     C7 7603   4.637   3.056   5.153  0.0784  0.1012 -0.4634
   19MOL     C8 7604   4.530   2.945   5.187 -0.7209  0.2396  0.3147
   19MOL     C9 7605   4.523   2.810   5.110 -0.3255 -0.1645  0.1533
   19MOL    H10 7606   4.850   3.457   5.022 -0.1856 -1.2191  0.8715
   19MOL    H11 7607   4.734   3.588   5.059  0.7052 -0.8922 -2.8575
   19MOL    H12 7608   4.783   3.589   5.279  0.2413 -0.1048 -0.6991
   19MOL    H13 7609   4.518   3.221   5.065 -2.4810  0.2423  1.5946
   19MOL    H14 7610   4.507   3.213   5.239  1.5689  1.9867  0.7308
   19MOL    H15 7611   4.688   3.041   5.058  0.8641 -0.7880  0.0885
   19MOL    H16 7612   4.705   3.057   5.239 -0.1777  1.1627 -0.2561
   19MOL    H17 7613   4.426   2.978   5.193 -0.9012 -0.0253 -1.2026
   19MOL    H18 7614   4.563   2.905   5.283 -1.0882 -1.0545 -0.0907
   19MOL    H19 7615   4.472   2.813   5.014  1.4398 -0.6235 -0.8252
   19MOL    H20 7616   4.467   2.742   5.173 -0.4571 -1.0811 -0.9426
   19MOL    H21 7617   4.624   2.771   5.097 -0.7601 -0.9883 -0.8142
   19MOL    H22 7618   4.901   3.617   5.092  0.0918 -0.3929 -0.7140
   19MOL    C23 7619   4.941   3.434   5.280  0.7752 -0.1846 -0.2863
   19MOL    C24 7620   4.954   3.370   5.418  0.2353 -1.1541  0.3622
   19MOL    C25 7621   4.934   3.478   5.535 -0.3074  0.3937 -0.7651
   19MOL    O26 7622   5.024   3.488   5.621  0.1277  0.4108 -0.2654
   19MOL    O27 7623   4.814   3.526   5.538 -0.3918 -0.1011 -0.1841
   19MOL    C28 7624   4.769   3.607   5.641  0.8188 -0.5419 -0.2677
   19MOL    C29 7625   4.634   3.673   5.606  0.6047 -1.0259  1.2229
   19MOL    C30 7626   4.588   3.770   5.711  0.0647  0.7500  0.3373
   19MOL    C31 7627   4.451   3.825   5.668 -0.1715 -0.1382 -0.6581
   19MOL    H32 7628   5.025   3.503   5.275  1.3300 -0.8876 -0.9396
   19MOL    H33 7629   4.968   3.355   5.209  1.7283  1.0326 -1.2902
   19MOL    H34 7630   5.056   3.339   5.437  0.9394 -1.2958 -3.2971
   19MOL    H35 7631   4.844   3.685   5.656 -0.7439  0.7147  1.2039
   19MOL    H36 7632   4.763   3.555   5.737 -2.9815 -1.0671 -0.7058
   19MOL    H37 7633   4.634   3.713   5.505  2.5212 -2.0958  0.7728
   19MOL    H38 7634   4.549   3.605   5.603 -0.1261 -0.1038  0.7433
   19MOL    H39 7635   4.659   3.851   5.726  0.5462  0.3761  0.1134
   19MOL    H40 7636   4.567   3.717   5.804  0.3171  0.2609  0.1157
   19MOL    H41 7637   4.408   3.881   5.751  1.4066  0.6705 -0.3703
   19MOL    H42 7638   4.382   3.740   5.661 -1.4887  0.7204  1.3219
   19MOL    H43 7639   4.472   3.888   5.582  0.7084 -0.0073 -0.3561
   19MOL    C44 7640   4.873   3.238   5.439 -0.1481  0.1032  0.3378
   19MOL    C45 7641   4.911   3.152   5.563 -0.0797  0.7673  0.4011
   19MOL    C46 7642   4.791   3.075   5.603 -0.2417  0.1918 -0.2440
   19MOL    O47 7643   4.778   2.950   5.592  0.1288 -0.3471  0.4138
   19MOL    O48 7644   4.689   3.147   5.645 -0.1091 -0.4327  0.2804
   19MOL    C49 7645   4.567   3.084   5.682 -0.2045  0.6023 -0.2005
   19MOL    C50 7646   4.471   3.185   5.735 -0.1561  0.6747 -0.2029
   19MOL    C51 7647   4.461   3.316   5.659 -0.5633 -0.3481  0.5312
   19MOL    C52 7648   4.347   3.396   5.717 -0.1871 -0.0510 -0.3132
   19MOL    H53 7649   4.880   3.157   5.367  1.9874 -0.3039  0.9626
   19MOL    H54 7650   4.768   3.267   5.433  0.0348  0.6766 -0.2070
   19MOL    H55 7651   4.925   3.214   5.651  0.2471  1.9332 -0.4642
   19MOL    H56 7652   4.587   3.013   5.762 -2.3535 -1.2097 -1.2063
   19MOL    H57 7653   4.515   3.028   5.604 -0.9089 -0.7234  1.1902
   19MOL    H58 7654   4.372   3.138   5.729  0.8021 -2.1312  3.9286
   19MOL    H59 7655   4.485   3.198   5.842  1.5087  0.4543 -0.3884
   19MOL    H60 7656   4.438   3.288   5.556 -0.8317  0.4898  0.3596
   19MOL    H61 7657   4.551   3.377   5.657 -0.2033 -0.9084 -1.9612
   19MOL    H62 7658   4.250   3.359   5.684  0.9293 -0.7016 -3.0213
   19MOL    H63 7659   4.361   3.499   5.684  1.0716  0.2458  1.0774
   19MOL    H64 7660   4.362   3.405   5.825  3.2531  0.5606 -0.7835
   19MOL    C65 7661   5.034   3.062   5.535  0.3757  0.2871 -0.2915
   19MOL    C66 7662   5.108   3.013   5.660  0.3841 -0.0438 -0.2867
   19MOL    C67 7663   5.205   2.893   5.629 -0.4221  0.1763  0.1108
   19MOL    O68 7664   5.237   2.864   5.511  0.0479 -0.1517  0.1390
   19MOL    O69 7665   5.245   2.829   5.741 -0.1082  0.0036 -0.0850
   19MOL    C70 7666   5.312   2.708   5.731  0.0104 -0.2699  0.6466
   19MOL    C71 7667   5.380   2.671   5.863 -0.2797 -0.5768  0.5869
   19MOL    C72 7668   5.440   2.528   5.863 -0.1227 -0.0706  0.4381
   19MOL    C73 7669   5.511   2.476   5.996  0.7234 -0.3045 -0.4411
   19MOL    H74 7670   5.107   3.110   5.469  2.2079  1.3646  2.4272
   19MOL    H75 7671   5.008   2.973   5.478  1.4899  0.2056 -0.6769
   19MOL    H76 7672   5.039   2.976   5.736 -0.3423  0.3089 -0.7692
   19MOL    H77 7673   5.392   2.741   5.664 -2.0534  1.8603 -0.8638
   19MOL    H78 7674   5.261   2.628   5.677 -2.3088  2.3960 -1.2914
   19MOL    H79 7675   5.463   2.740   5.877  0.7845 -1.9300  1.0451
   19MOL    H80 7676   5.303   2.689   5.938  0.3112 -1.3632  1.3922
   19MOL    H81 7677   5.504   2.518   5.776  0.0644 -1.2758  0.7048
   19MOL    H82 7678   5.363   2.458   5.829  0.6726 -1.0411  0.6143
   19MOL    H83 7679   5.441   2.482   6.080  1.4882  1.6536  0.1058
   19MOL    H84 7680   5.597   2.537   6.026 -0.7305  1.5277  0.0808
   19MOL    H85 7681   5.536   2.371   6.005  0.8261 -0.2767 -0.3955
   19MOL    C86 7682   5.198   3.128   5.720  0.1447  0.0233  0.5659
   19MOL    C87 7683   5.186   3.137   5.873  0.2176  0.3947 -0.0980
   19MOL    C88 7684   5.325   3.154   5.940  0.0942 -1.0048 -0.4368
   19MOL    O89 7685   5.363   3.069   6.017 -0.3761  0.0252  0.7552
   19MOL    O90 7686   5.376   3.269   5.910  0.2132  0.3917 -0.6649
   19MOL    C91 7687   5.511   3.295   5.962 -0.1659  0.1391 -0.2633
   19MOL    C92 7688   5.606   3.332   5.846 -0.1651 -0.3812 -0.0993
   19MOL    C93 7689   5.749   3.389   5.890  0.2144 -0.2480 -0.1730
   19MOL    C94 7690   5.807   3.473   5.784  0.1285  0.5390 -0.2407
   19MOL    H95 7691   5.168   3.220   5.670  0.6018 -1.3860 -2.3801
   19MOL    H96 7692   5.301   3.113   5.688 -0.5400 -0.8157 -1.3447
   19MOL    H97 7693   5.148   3.043   5.912  1.5366  0.6089  1.7774
   19MOL    H98 7694   5.557   3.211   6.015  3.7720  2.0131 -0.6248
   19MOL    H99 7695   5.509   3.371   6.040 -0.4376  0.2500 -0.3773
   19MOL   H100 7696   5.626   3.244   5.784  1.1389 -1.2261  1.5013
   19MOL   H101 7697   5.559   3.397   5.772 -0.3104 -0.2063  0.1475
   19MOL   H102 7698   5.823   3.317   5.924 -2.4754 -3.3292 -0.6550
   19MOL   H103 7699   5.736   3.448   5.981 -2.9748 -0.1567 -0.6483
   19MOL   H104 7700   5.736   3.549   5.752 -1.1214 -0.2972  0.4991
   19MOL   H105 7701   5.830   3.410   5.698  1.4723 -1.3533  1.4168
   19MOL   H106 7702   5.899   3.515   5.825  0.4611 -0.3810 -0.0289
   19MOL   C107 7703   5.083   3.244   5.922 -0.4537  0.3962  0.3232
   19MOL   C108 7704   4.938   3.179   5.935 -0.1928  0.4201 -0.4615
   19MOL   C109 7705   4.925   3.083   6.052  0.4785 -0.1778  0.0858
   19MOL   O110 7706   4.867   2.981   6.032 -0.1211 -0.1307  0.6713
   19MOL   O111 7707   4.983   3.122   6.165  0.7864  0.2860 -0.1209
   19MOL   C112 7708   4.983   3.032   6.273 -0.1919 -0.1289  0.3067
   19MOL   C113 7709   5.100   3.090   6.361  0.1161 -0.5597 -0.3697
   19MOL   C114 7710   5.097   3.244   6.403  0.2328  0.0549  0.1349
   19MOL   C115 7711   4.973   3.289   6.465 -0.0234  0.4263 -0.7265
   19MOL   H116 7712   5.079   3.320   5.844  0.2293 -0.4908 -0.5765
   19MOL   H117 7713   5.131   3.291   6.008  2.3607 -0.3874 -0.7829
   19MOL   H118 7714   4.929   3.116   5.846 -1.5216 -1.5749  1.0684
   19MOL   H119 7715   5.000   2.928   6.247 -3.4591 -0.3011 -1.4458
   19MOL   H120 7716   4.882   3.038   6.315 -0.2121 -0.2995  0.2778
   19MOL   H121 7717   5.092   3.034   6.454  1.1650 -2.3999 -1.3670
   19MOL   H122 7718   5.201   3.075   6.321 -0.3151  0.3255 -1.8155
   19MOL   H123 7719   5.098   3.292   6.305  2.2324  0.0217  0.1251
   19MOL   H124 7720   5.181   3.262   6.469 -0.7324  0.0737  1.3706
   19MOL   H125 7721   4.969   3.391   6.502 -1.8132  0.6031 -1.3612
   19MOL   H126 7722   4.940   3.221   6.544  1.5896  1.0138  0.4932
   19MOL   H127 7723   4.886   3.284   6.400  0.4384 -1.1161 -1.2439
   19MOL   C128 7724   4.817   3.282   5.933  0.6359 -0.3621  0.5181
   19MOL   C129 7725   4.790   3.381   6.053 -0.4256 -0.1845 -0.6639
   19MOL   C130 7726   4.901   3.487   6.070  0.0722  0.9056 -0.0700
   19MOL   O131 7727   4.940   3.511   6.186 -0.4433 -0.1737  0.2269
   19MOL   O132 7728   4.940   3.551   5.960 -0.0708  0.3160  0.6774
   19MOL   C133 7729   5.036   3.652   5.968 -0.0705  0.2981 -0.2149
   19MOL   C134 7730   5.177   3.601   5.946  0.7132  0.1387 -0.0863
   19MOL   C135 7731   5.283   3.704   5.909 -0.1940 -0.0657 -0.1767
   19MOL   C136 7732   5.424   3.660   5.931 -0.2645 -0.0455  0.0203
   19MOL   H137 7733   4.735   3.211   5.938 -0.3454  0.8156  1.5447
   19MOL   H138 7734   4.821   3.338   5.840  0.7831 -0.2646  0.5820
   19MOL   H139 7735   4.795   3.325   6.146 -2.9811 -0.8631 -0.9071
   19MOL   H140 7736   5.021   3.703   6.063 -0.2705  0.3320 -0.2639
   19MOL   H141 7737   5.016   3.731   5.896 -0.5763 -0.1996 -0.6209
   19MOL   H142 7738   5.204   3.541   6.033 -0.3963 -1.2450 -0.6587
   19MOL   H143 7739   5.168   3.525   5.868 -0.8136  1.3991 -1.1695
   19MOL   H144 7740   5.265   3.799   5.958  1.9540  0.5082 -0.4546
   19MOL   H145 7741   5.272   3.726   5.803 -1.3728  0.1779 -0.0055
   19MOL   H146 7742   5.480   3.736   5.877 -0.1919  0.7954  1.2749
   19MOL   H147 7743   5.448   3.568   5.877  0.4073 -0.1602  0.5054
   19MOL   H148 7744   5.452   3.659   6.036 -2.8973 -0.5085  0.7517
   19MOL   C149 7745   4.657   3.458   6.036 -0.4439  0.2483 -0.6173
   19MOL   C150 7746   4.632   3.549   6.150 -0.1701  0.3554 -0.8351
   19MOL   C151 7747   4.503   3.628   6.119  0.1820 -0.8029  0.4669
   19MOL   O152 7748   4.408   3.583   6.062  0.2097 -0.5428 -0.5647
   19MOL   O153 7749   4.504   3.758   6.173  0.3407 -0.3628 -0.3686
   19MOL   C154 7750   4.390   3.846   6.168 -0.1099  0.3447  0.4596
   19MOL   C155 7751   4.436   3.990   6.188 -0.6098 -0.0010 -0.1148
   19MOL   C156 7752   4.522   4.014   6.315 -0.1264  0.1684 -0.0431
   19MOL   C157 7753   4.564   4.158   6.329 -0.4580  0.2568 -0.6560
   19MOL   H158 7754   4.580   3.381   6.026  0.5518 -0.6414 -1.5411
   19MOL   H159 7755   4.639   3.504   5.939 -1.1029 -0.1473 -0.6862
   19MOL   H160 7756   4.704   3.631   6.148 -0.7209  0.8473 -1.0268
   19MOL   H161 7757   4.311   3.815   6.236 -0.7822 -1.5094 -1.1031
   19MOL   H162 7758   4.338   3.826   6.074 -0.3604 -0.6332  0.7959
   19MOL   H163 7759   4.501   4.033   6.112  0.8199 -1.3062  0.3515
   19MOL   H164 7760   4.353   4.061   6.191 -0.7292 -0.1808  1.2850
   19MOL   H165 7761   4.603   3.942   6.328 -0.9983 -1.0081 -0.9466
   19MOL   H166 7762   4.453   3.993   6.397  1.6850 -1.2570  1.1459
   19MOL   H167 7763   4.653   4.179   6.270  0.4019 -0.6529  0.2872
   19MOL   H168 7764   4.585   4.175   6.434 -3.0272 -1.7124  0.2113
   19MOL   H169 7765   4.490   4.232   6.298  1.5006  2.9420  0.8867
   19MOL   C170 7766   4.625   3.497   6.292 -0.0109 -0.3131  0.7110
   19MOL   C171 7767   4.652   3.599   6.407 -0.7158 -0.2413  0.2662
   19MOL   C172 7768   4.524   3.607   6.490 -0.2386  0.0157  0.1693
   19MOL   O173 7769   4.455   3.709   6.478 -0.0737  0.4478  0.4016
   19MOL   O174 7770   4.490   3.497   6.554 -0.1078  0.2321 -0.0458
   19MOL   C175 7771   4.380   3.508   6.640 -0.4659  0.7701 -1.4544
   19MOL   C176 7772   4.377   3.385   6.737  0.1303 -0.3378  0.4917
   19MOL   C177 7773   4.497   3.355   6.822 -0.0189 -0.2676 -0.5752
   19MOL   C178 7774   4.471   3.222   6.902  0.2492  0.0737  0.2141
   19MOL   H179 7775   4.695   3.416   6.311  0.4884  0.0187  0.2903
   19MOL   H180 7776   4.531   3.443   6.304  0.5850 -1.1472  1.6800
   19MOL   H181 7777   4.663   3.706   6.385  0.6393 -0.4526 -0.0879
   19MOL   H182 7778   4.290   3.507   6.578 -0.3686  2.4699 -1.6432
   19MOL   H183 7779   4.384   3.600   6.698  1.6033 -0.3909  0.3113
   19MOL   H184 7780   4.286   3.394   6.797 -0.2017 -0.7435  0.0505
   19MOL   H185 7781   4.352   3.294   6.682 -0.8265 -0.2158  0.7180
   19MOL   H186 7782   4.505   3.431   6.899 -0.1259 -1.4047  0.5646
   19MOL   H187 7783   4.598   3.354   6.780  0.6062  2.8580  0.7968
   19MOL   H188 7784   4.468   3.137   6.835  2.0747  0.7311 -0.7347
   19MOL   H189 7785   4.368   3.220   6.939  1.5425 -0.8309  3.9649
   19MOL   H190 7786   4.553   3.200   6.969  0.1573  1.9121  0.9728
   19MOL   C191 7787   4.773   3.567   6.492 -0.2989 -0.1764 -0.5851
   19MOL   C192 7788   4.805   3.656   6.617 -0.8195 -0.5318  0.2418
   19MOL   C193 7789   4.889   3.576   6.723 -0.4594 -0.3554  0.0888
   19MOL   O194 7790   5.002   3.606   6.759  0.5055 -0.0591  0.4639
   19MOL   O195 7791   4.811   3.479   6.770  0.0790 -0.7352  0.1755
   19MOL   C196 7792   4.873   3.386   6.854 -0.5100  0.6574  0.4673
   19MOL   C197 7793   4.845   3.409   7.007  0.5825  0.2065 -0.1479
   19MOL   C198 7794   4.904   3.314   7.111  0.0452 -0.1676 -0.0165
   19MOL   C199 7795   4.862   3.359   7.257  0.1138 -0.0949  0.8053
   19MOL   H200 7796   4.862   3.559   6.428 -0.3229 -3.7870 -0.2448
   19MOL   H201 7797   4.761   3.465   6.528 -0.7724  0.5365  1.3230
   19MOL   H202 7798   4.711   3.688   6.661 -1.9521 -1.6149 -1.3167
   19MOL   H203 7799   4.980   3.379   6.830 -0.8338  1.1276 -1.1504
   19MOL   H204 7800   4.839   3.290   6.816  0.4466  0.3713  0.3173
   19MOL   H205 7801   4.884   3.509   7.024  0.1301  0.1327  1.3512
   19MOL   H206 7802   4.737   3.422   7.016 -0.0654 -3.7802 -1.1376
   19MOL   H207 7803   5.010   3.331   7.098  0.0920 -1.1291 -1.0057
   19MOL   H208 7804   4.877   3.215   7.073 -0.7087  0.5176 -1.3053
   19MOL   H209 7805   4.754   3.362   7.271  0.1793  0.6617  1.1329
   19MOL   H210 7806   4.902   3.457   7.281 -0.8591  0.4402  0.2430
   19MOL   H211 7807   4.908   3.288   7.326  2.0282 -1.3848 -1.6936
   19MOL   C212 7808   4.871   3.792   6.576  0.7120 -0.2426  0.0263
   19MOL   C213 7809   4.874   3.889   6.689 -0.0545 -0.0160 -0.3626
   19MOL   C214 7810   5.016   3.948   6.708  0.4234  0.4152 -0.9420
   19MOL   O215 7811   5.052   4.055   6.655  0.5052 -0.1806 -0.1344
   19MOL   O216 7812   5.085   3.873   6.795  0.1080  0.2712  0.3283
   19MOL   C217 7813   5.201   3.926   6.863 -0.4948 -0.0379  0.4035
   19MOL   C218 7814   5.320   3.940   6.760 -0.5977  0.2938  0.2456
   19MOL   C219 7815   5.451   3.979   6.836  0.0360  0.7459  0.1061
   19MOL   C220 7816   5.576   3.941   6.749 -0.1208 -0.1238 -0.0976
   19MOL   H221 7817   4.812   3.831   6.493  2.2248  1.2589 -0.3733
   19MOL   H222 7818   4.967   3.761   6.532  0.7638 -1.5903  1.0329
   19MOL   H223 7819   4.857   3.828   6.778  2.5989 -0.9603 -0.4704
   19MOL   H224 7820   5.231   3.866   6.948 -1.1504  1.5739  1.8054
   19MOL   H225 7821   5.178   4.027   6.898  2.0310 -0.0473  2.2149
   19MOL   H226 7822   5.336   3.860   6.689  2.2715  0.7874  0.2694
   19MOL   H227 7823   5.303   4.017   6.685  0.1725  0.0896 -0.1499
   19MOL   H228 7824   5.452   3.929   6.933 -1.7952 -0.8094 -0.6463
   19MOL   H229 7825   5.448   4.085   6.858  0.8869  0.2456  2.7929
   19MOL   H230 7826   5.546   3.940   6.644  2.8416 -0.9434 -0.9781
   19MOL   H231 7827   5.598   3.838   6.777 -1.8575 -1.0456 -1.9662
   19MOL   H232 7828   5.667   3.998   6.768  0.0793 -0.5231  0.1460
   19MOL   C233 7829   4.753   3.992   6.693  0.3066 -0.2912 -0.2539
   19MOL   C234 7830   4.621   3.932   6.749  0.7004  0.0995 -0.1204
   19MOL   C235 7831   4.635   3.879   6.897  0.1692 -0.0580 -0.1938
   19MOL   O236 7832   4.586   3.766   6.924 -0.3469 -0.1119 -0.3023
   19MOL   O237 7833   4.726   3.943   6.973  0.3973 -0.2811 -0.9829
   19MOL   C238 7834   4.723   3.929   7.118  0.0802 -1.2401 -0.6291
   19MOL   C239 7835   4.862   3.930   7.176  0.1926  0.3925  0.1426
   19MOL   C240 7836   4.944   3.800   7.153  0.2970 -0.2011  0.2643
   19MOL   C241 7837   5.073   3.803   7.230 -0.0900 -0.3435  0.7070
   19MOL   H242 7838   4.725   4.022   6.592 -0.5503  1.3329  0.4552
   19MOL   H243 7839   4.783   4.080   6.750 -0.8723  0.3440 -0.5910
   19MOL   H244 7840   4.594   3.855   6.677  0.6088  1.4521 -1.5495
   19MOL   H245 7841   4.680   3.832   7.142 -1.6973 -0.3012  0.0841
   19MOL   H246 7842   4.662   4.010   7.157 -2.4101 -3.9117  1.2552
   19MOL   H247 7843   4.919   4.013   7.134 -1.1094  0.8736 -0.7058
   19MOL   H248 7844   4.853   3.941   7.284  0.1056  0.7653  0.0978
   19MOL   H249 7845   4.972   3.788   7.048 -0.6635 -0.2639  0.0121
   19MOL   H250 7846   4.881   3.721   7.195 -1.9385  0.5784 -1.5431
   19MOL   H251 7847   5.126   3.711   7.207 -1.1245 -0.6768 -0.4481
   19MOL   H252 7848   5.051   3.801   7.337  0.9858 -0.1057  0.9321
   19MOL   H253 7849   5.117   3.891   7.182 -0.0099 -0.5726  0.3617
   19MOL   C254 7850   4.504   4.032   6.734 -0.1003 -0.4353  0.2241
   19MOL   C255 7851   4.361   3.982   6.705 -0.5333  0.3831 -0.0722
   19MOL   C256 7852   4.293   3.934   6.830 -0.4700 -0.0962  0.0871
   19MOL   O257 7853   4.251   4.014   6.915 -0.0140 -0.3220 -0.9979
   19MOL   O258 7854   4.300   3.802   6.843 -0.4386 -0.3851  0.7021
   19MOL   C259 7855   4.258   3.734   6.951 -0.0230  0.8582  0.1573
   19MOL   C260 7856   4.101   3.752   6.990  0.0670 -0.1553  0.1665
   19MOL   C261 7857   4.044   3.650   7.095  0.0804  0.0226  1.0149
   19MOL   C262 7858   4.043   3.508   7.048  0.3779 -0.0925  0.5273
   19MOL   H263 7859   4.532   4.092   6.647  0.2405 -0.8995  0.0051
   19MOL   H264 7860   4.499   4.099   6.820  3.1924 -0.7569  0.7391
   19MOL   H265 7861   4.382   3.896   6.643 -1.3508 -0.0655  0.2591
   19MOL   H266 7862   4.311   3.758   7.043 -0.1319  1.4758  0.0632
   19MOL   H267 7863   4.267   3.627   6.930  2.8484  0.8362  1.3123
   19MOL   H268 7864   4.086   3.853   7.028  0.1779 -0.5042  1.1701
   19MOL   H269 7865   4.035   3.753   6.903  1.1866 -1.4693 -0.7206
   19MOL   H270 7866   3.938   3.669   7.110  0.1847  1.4755 -0.0293
   19MOL   H271 7867   4.092   3.666   7.191 -0.7679  0.6098  1.3468
   19MOL   H272 7868   4.014   3.491   6.944 -2.0927 -0.5106  1.2404
   19MOL   H273 7869   4.011   3.442   7.129 -0.5896  0.6784  0.7777
   19MOL   H274 7870   4.147   3.474   7.048 -0.0880 -1.5918 -0.6732
   19MOL   C275 7871   4.266   4.079   6.631  0.5368 -0.0863 -0.4204
   19MOL   C276 7872   4.132   4.017   6.584  0.0317 -0.6653  0.6959
   19MOL   C277 7873   4.037   4.119   6.521  0.8581 -0.0688  0.7135
   19MOL   O278 7874   4.070   4.233   6.510 -0.2526 -0.3661  0.5922
   19MOL   O279 7875   3.923   4.070   6.479  0.0015  0.0593  0.4155
   19MOL   C280 7876   3.817   4.159   6.449  0.9415 -0.3019  0.6939
   19MOL   C281 7877   3.814   4.188   6.300  0.6375  0.0191  0.1189
   19MOL   C282 7878   3.939   4.230   6.226  0.8256 -0.0079 -0.6043
   19MOL   C283 7879   3.905   4.252   6.078 -0.1523  0.6035 -0.6200
   19MOL   H284 7880   4.312   4.117   6.539 -0.0294 -0.8208 -1.0024
   19MOL   H285 7881   4.236   4.165   6.691 -1.4440  1.2277 -3.1664
   19MOL   H286 7882   4.092   3.986   6.680 -0.1528 -1.1345  0.4740
   19MOL   H287 7883   3.825   4.258   6.494  1.3506  0.6919 -1.5191
   19MOL   H288 7884   3.729   4.105   6.484  0.8803 -0.9900 -0.4852
   19MOL   H289 7885   3.777   4.091   6.265 -0.7098  0.7756 -0.6048
   19MOL   H290 7886   3.737   4.264   6.289  1.8445  1.1455 -0.7032
   19MOL   H291 7887   3.998   4.139   6.222 -0.0292 -0.5504 -0.9952
   19MOL   H292 7888   3.989   4.314   6.274  0.5440  0.6841 -1.5074
   19MOL   H293 7889   3.986   4.251   6.005  0.9984  0.2134  0.6576
   19MOL   H294 7890   3.838   4.338   6.073 -2.0111 -0.8357 -1.1187
   19MOL   H295 7891   3.830   4.182   6.041 -1.1590  0.3537  1.8088
   19MOL   C296 7892   4.151   3.887   6.489 -0.2257  0.4748  0.2980
   19MOL   C297 7893   4.027   3.793   6.468 -0.4801  0.2586  0.2041
   19MOL   C298 7894   4.060   3.687   6.355 -0.1831  0.2268  0.1646
   19MOL   O299 7895   4.005   3.697   6.243  0.3183  0.3283  0.2166
   19MOL   O300 7896   4.157   3.608   6.391 -0.2959 -0.0548 -0.6193
   19MOL   C301 7897   4.218   3.521   6.304 -0.1305 -0.2300 -0.4295
   19MOL   C302 7898   4.167   3.374   6.304 -0.8112 -0.0769  0.1517
   19MOL   C303 7899   4.262   3.274   6.237  0.2424  0.0645 -0.1041
   19MOL   C304 7900   4.189   3.140   6.216 -0.2316 -0.1198  0.3851
   19MOL   H305 7901   4.231   3.823   6.526  1.0723  1.2996 -1.0120
   19MOL   H306 7902   4.186   3.912   6.389 -2.3899 -0.6309 -0.7906
   19MOL   H307 7903   3.951   3.855   6.420 -1.1282 -0.1081  0.7562
   19MOL   H308 7904   4.323   3.507   6.333  0.1588  2.1583 -0.2015
   19MOL   H309 7905   4.229   3.562   6.204  2.0940 -1.1512 -0.5926
   19MOL   H310 7906   4.176   3.352   6.410 -0.5045 -0.2070  0.1002
   19MOL   H311 7907   4.063   3.381   6.272 -0.5356 -2.3503 -1.3384
   19MOL   H312 7908   4.339   3.255   6.312 -0.2368  1.6075  0.8139
   19MOL   H313 7909   4.308   3.312   6.146  0.8967 -3.3829 -1.2974
   19MOL   H314 7910   4.147   3.134   6.115 -0.2184  0.3691  0.3503
   19MOL   H315 7911   4.114   3.108   6.288 -0.2668 -0.0472  0.3809
   19MOL   H316 7912   4.256   3.054   6.212  2.0308  1.6723 -1.3015
   19MOL   C317 7913   3.984   3.734   6.603 -0.1587 -0.2449  0.8376
   19MOL   C318 7914   3.853   3.660   6.617  1.1123  0.1572  0.5026
   19MOL   C319 7915   3.874   3.508   6.573  0.5459  0.9129 -0.1190
   19MOL   O320 7916   3.824   3.461   6.466  0.6087  0.8463 -0.3881
   19MOL   O321 7917   3.939   3.433   6.663 -1.2208 -0.3527 -0.3434
   19MOL   C322 7918   3.953   3.295   6.625 -0.4538 -0.3060  0.0272
   19MOL   C323 7919   3.989   3.202   6.745  0.3228  0.4261  0.1633
   19MOL   C324 7920   4.007   3.051   6.721 -0.2212 -0.4363 -0.3058
   19MOL   C325 7921   4.050   2.981   6.847 -0.1078  0.0556 -0.8253
   19MOL   H326 7922   3.963   3.823   6.662  1.5978 -0.0993  1.2918
   19MOL   H327 7923   4.062   3.681   6.658 -1.3372 -3.6638 -0.6323
   19MOL   H328 7924   3.791   3.693   6.534  1.2344 -0.7151  0.0596
   19MOL   H329 7925   4.025   3.282   6.545 -0.3173 -0.9998  0.2561
   19MOL   H330 7926   3.858   3.257   6.585 -1.3726  0.9215  0.9870
   19MOL   H331 7927   4.080   3.250   6.782  0.2923  1.7122 -1.3611
   19MOL   H332 7928   3.911   3.213   6.821  1.9654  3.6405  1.4723
   19MOL   H333 7929   4.088   3.039   6.650 -0.3459  0.3965 -0.5991
   19MOL   H334 7930   3.915   3.005   6.685  0.5531  0.0963 -3.0533
   19MOL   H335 7931   3.976   3.010   6.923  0.3032 -1.9417  0.3883
   19MOL   H336 7932   4.153   3.004   6.872 -0.2359 -0.3830  0.1664
   19MOL   H337 7933   4.045   2.872   6.834 -0.2996 -0.0818  0.2980
   19MOL   C338 7934   3.791   3.665   6.766  0.2398 -0.9037 -0.2921
   19MOL   C339 7935   3.653   3.591   6.780 -0.2601 -0.0806 -0.0611
   19MOL   C340 7936   3.647   3.540   6.922  0.1006  0.1078 -0.0542
   19MOL   O341 7937   3.703   3.596   7.019  0.4231  0.1507 -0.1276
   19MOL   O342 7938   3.569   3.433   6.939  0.1623 -0.2318 -0.0100
   19MOL   C343 7939   3.571   3.372   7.064  0.1381 -0.1550  0.5667
   19MOL   C344 7940   3.526   3.231   7.026  0.4799  0.7245 -0.0830
   19MOL   C345 7941   3.625   3.164   6.934  0.3419  0.8700  0.1157
   19MOL   C346 7942   3.603   3.012   6.934 -0.5734  0.5266 -0.3744
   19MOL   H347 7943   3.784   3.767   6.806  3.4556 -1.1149  0.9285
   19MOL   H348 7944   3.862   3.625   6.838  0.5215  0.1011  0.0034
   19MOL   H349 7945   3.661   3.503   6.716 -0.0325  0.6542 -1.0510
   19MOL   H350 7946   3.501   3.422   7.131 -0.3794  0.8775 -0.7473
   19MOL   H351 7947   3.670   3.383   7.108  1.2831 -3.1769 -1.0745
   19MOL   H352 7948   3.541   3.177   7.120 -0.8593 -2.0863 -1.4594
   19MOL   H353 7949   3.422   3.224   6.995  0.6049 -1.4101 -0.0514
   19MOL   H354 7950   3.722   3.199   6.970  0.8446  0.3001 -0.6495
   19MOL   H355 7951   3.624   3.205   6.833 -2.0217  1.9041  0.5393
   19MOL   H356 7952   3.584   2.983   7.037  0.5483 -0.1136 -0.3343
   19MOL   H357 7953   3.689   2.956   6.895  0.3354  1.7807 -0.1923
   19MOL   H358 7954   3.514   2.979   6.880  0.3852 -2.9872  0.0930
   19MOL   C359 7955   3.530   3.684   6.740  0.3169  0.1724 -0.1568
   19MOL   C360 7956   3.462   3.642   6.612  0.2381  0.7946  0.5100
   19MOL   C361 7957   3.398   3.497   6.632  0.0871 -0.0797 -0.2176
   19MOL   O362 7958   3.294   3.489   6.698 -0.3181 -0.2463  1.0559
   19MOL   O363 7959   3.467   3.396   6.569  0.2181 -0.0712 -0.5537
   19MOL   C364 7960   3.419   3.266   6.586 -0.2112  0.1769  0.0804
   19MOL   C365 7961   3.543   3.177   6.543 -0.3771  0.2809  0.0586
   19MOL   C366 7962   3.554   3.184   6.394  0.0129  0.4807  0.4274
   19MOL   C367 7963   3.673   3.109   6.342  0.5187  0.6282  0.2032
   19MOL   H368 7964   3.560   3.789   6.745  1.5631 -0.0951 -1.6431
   19MOL   H369 7965   3.455   3.681   6.819 -0.3732 -0.6746 -0.8363
   19MOL   H370 7966   3.540   3.627   6.536  1.0812  1.6933  1.1921
   19MOL   H371 7967   3.331   3.255   6.523  0.8505  0.2782 -1.4826
   19MOL   H372 7968   3.403   3.250   6.692 -0.2965  1.0615  0.2087
   19MOL   H373 7969   3.630   3.207   6.601  0.2214  0.0623 -0.7270
   19MOL   H374 7970   3.521   3.074   6.571 -0.7715 -0.0000 -1.2620
   19MOL   H375 7971   3.566   3.289   6.368  0.3262  0.3391 -0.0207
   19MOL   H376 7972   3.462   3.148   6.348  0.0552  1.3596 -0.3633
   19MOL   H377 7973   3.766   3.123   6.397  0.4287  1.5205  0.1403
   19MOL   H378 7974   3.695   3.138   6.239 -2.7526  3.0249  0.0997
   19MOL   H379 7975   3.654   3.003   6.329 -1.0633  0.8288  0.7628
   19MOL   C380 7976   3.354   3.738   6.559 -0.3797 -0.0159 -0.3218
   19MOL   C381 7977   3.401   3.876   6.521 -0.3798 -0.7273  0.0667
   19MOL   C382 7978   3.503   3.871   6.409  0.5676  0.4389  0.3944
   19MOL   O383 7979   3.606   3.932   6.424 -0.7593  0.6029 -0.6744
   19MOL   O384 7980   3.478   3.791   6.305 -0.2092  0.5544  0.4724
   19MOL   C385 7981   3.572   3.767   6.203  0.7832 -0.6752 -0.2108
   19MOL   C386 7982   3.577   3.625   6.158  0.3233  0.0093  0.1936
   19MOL   C387 7983   3.650   3.625   6.022 -0.2143 -0.2140 -0.4165
   19MOL   C388 7984   3.632   3.490   5.950 -0.4767  1.0481 -0.2705
   19MOL   H389 7985   3.281   3.735   6.640 -0.5259 -0.1271 -0.4571
   19MOL   H390 7986   3.300   3.686   6.480  0.8629 -0.5592 -0.8299
   19MOL   H391 7987   3.453   3.923   6.604 -4.1194 -1.5826  3.0587
   19MOL   H392 7988   3.667   3.816   6.225 -1.3873  3.5931  0.2076
   19MOL   H393 7989   3.541   3.833   6.122  0.7481 -0.8399 -0.3324
   19MOL   H394 7990   3.636   3.575   6.235 -1.0585  2.5199  2.9769
   19MOL   H395 7991   3.472   3.594   6.151  0.0591  0.7349  0.9248
   19MOL   H396 7992   3.755   3.647   6.039 -0.0638 -0.7103 -0.7178
   19MOL   H397 7993   3.614   3.697   5.948 -1.5579 -1.3546 -0.8948
   19MOL   H398 7994   3.653   3.411   6.022  0.0800  0.7234 -0.7808
   19MOL   H399 7995   3.692   3.479   5.859 -0.7052 -1.4307 -0.1625
   19MOL   H400 7996   3.528   3.469   5.922  0.3283  0.6555 -3.1310
   19MOL   C401 7997   3.278   3.965   6.492 -0.6795 -0.3262  0.7351
   19MOL   C402 7998   3.319   4.116   6.476  0.5133  0.3295 -0.5852
   19MOL   C403 7999   3.357   4.199   6.602  0.2609  0.7252 -0.0410
   19MOL   O404 8000   3.440   4.290   6.596  0.5272  0.5200 -0.1526
   19MOL   O405 8001   3.294   4.154   6.709  0.4325 -0.2206  0.6501
   19MOL   C406 8002   3.329   4.216   6.836  0.4996  0.0001 -0.8808
   19MOL   C407 8003   3.460   4.159   6.897 -0.0003 -0.0493  0.5538
   19MOL   C408 8004   3.439   4.027   6.966  0.5005 -0.0750  0.2652
   19MOL   C409 8005   3.561   3.975   7.046  0.3175  0.7724 -0.2224
   19MOL   H410 8006   3.202   3.950   6.568 -1.3343 -2.1088 -0.2552
   19MOL   H411 8007   3.247   3.922   6.397  2.5553 -1.3548  0.0515
   19MOL   H412 8008   3.232   4.165   6.432  0.7189 -0.0754 -1.4539
   19MOL   H413 8009   3.255   4.177   6.906  1.8515  0.6758  0.9604
   19MOL   H414 8010   3.316   4.325   6.835 -1.5761 -0.2245 -1.9648
   19MOL   H415 8011   3.534   4.160   6.818 -0.6015 -0.1238 -0.0088
   19MOL   H416 8012   3.498   4.221   6.978 -0.1949 -0.5014  0.9985
   19MOL   H417 8013   3.412   3.954   6.889  0.9838 -0.1339  0.1529
   19MOL   H418 8014   3.353   4.028   7.032 -0.0397  1.6536 -0.4269
   19MOL   H419 8015   3.538   3.891   7.111  0.0351  1.3772  0.4652
   19MOL   H420 8016   3.586   4.054   7.117 -0.8662  0.1423  0.9204
   19MOL   H421 8017   3.650   3.961   6.985  0.6417  2.6802 -0.2339
   19MOL   H422 8018   3.402   4.126   6.406  0.5984 -0.4680 -0.5989
   20MOL     C1 8019   7.543   7.459   1.406 -0.2138 -0.2872 -0.9514
   20MOL     C2 8020   7.519   7.309   1.442  0.1620 -0.0068  0.2206
   20MOL     C3 8021   7.394   7.267   1.362 -0.1407 -0.9024  0.6539
   20MOL     O4 8022   7.405   7.204   1.259  0.3732  0.0794 -0.8882
   20MOL     O5 8023   7.276   7.322   1.407  0.2519 -0.1007  0.5442
   20MOL     C6 8024   7.155   7.304   1.334  0.5367  0.3360 -0.0538
   20MOL     C7 8025   7.072   7.188   1.388 -0.6063 -0.3391  0.3994
   20MOL     C8 8026   7.015   7.220   1.531 -0.5343 -0.1076 -0.4718
   20MOL     C9 8027   6.921   7.113   1.583  0.4497 -0.0187  0.2330
   20MOL    H10 8028   7.447   7.510   1.394 -0.1795  0.2928  1.0984
   20MOL    H11 8029   7.588   7.501   1.496  1.2172 -3.9144  0.1256
   20MOL    H12 8030   7.490   7.293   1.546 -1.9748 -1.2079 -0.5329
   20MOL    H13 8031   7.168   7.295   1.226 -2.9257  0.5878 -0.5377
   20MOL    H14 8032   7.099   7.395   1.355  0.5132  1.1005 -3.2016
   20MOL    H15 8033   6.995   7.188   1.311 -0.5194  1.8071  0.2985
   20MOL    H16 8034   7.119   7.090   1.380  0.3540  0.1909 -0.4371
   20MOL    H17 8035   6.966   7.317   1.524 -1.3756 -0.4332  0.7366
   20MOL    H18 8036   7.103   7.217   1.596 -1.1699 -1.5711  0.3577
   20MOL    H19 8037   6.972   7.018   1.599  0.5519  0.1449  0.9046
   20MOL    H20 8038   6.840   7.097   1.511 -0.1902 -0.2675  1.0021
   20MOL    H21 8039   6.867   7.139   1.674  1.0212 -3.4175  1.6169
   20MOL    H22 8040   7.590   7.485   1.311 -0.8631  2.4333 -0.5659
   20MOL    C23 8041   7.643   7.223   1.407 -0.3305 -0.5680 -0.1951
   20MOL    C24 8042   7.769   7.248   1.496  0.2101  0.1515 -0.3181
   20MOL    C25 8043   7.850   7.378   1.461  0.4037  0.1960  0.0957
   20MOL    O26 8044   0.017   7.455   1.553 -0.3492  0.1821  0.3467
   20MOL    O27 8045   0.037   7.389   1.330 -0.1034  0.0306  0.6775
   20MOL    C28 8046   0.123   7.491   1.288 -0.2704 -0.3610  0.4114
   20MOL    C29 8047   0.248   7.429   1.227 -0.1894  0.2280 -0.5515
   20MOL    C30 8048   0.320   7.326   1.324  0.6783 -0.2813  0.4231
   20MOL    C31 8049   0.434   7.254   1.253  0.7808  0.2558  0.3741
   20MOL    H32 8050   7.672   7.225   1.303 -1.2987  0.0505 -0.4648
   20MOL    H33 8051   7.620   7.116   1.416  0.8056 -1.0223 -2.3539
   20MOL    H34 8052   7.835   7.165   1.470  4.4943  3.0543  0.8408
   20MOL    H35 8053   0.171   7.561   1.357  0.2556 -1.0158  0.7215
   20MOL    H36 8054   0.068   7.556   1.220  1.5832  1.4070  0.5530
   20MOL    H37 8055   0.220   7.375   1.136 -1.8234 -0.1343  0.1449
   20MOL    H38 8056   0.323   7.505   1.206 -0.8067  0.9939 -0.0237
   20MOL    H39 8057   0.259   7.243   1.359 -0.5060 -0.1776 -1.3604
   20MOL    H40 8058   0.369   7.374   1.409  0.8898  0.0774  0.1036
   20MOL    H41 8059   0.459   7.174   1.324  0.0080 -1.6180 -1.4245
   20MOL    H42 8060   0.522   7.315   1.234  0.6965  1.5257  3.6559
   20MOL    H43 8061   0.402   7.202   1.163 -1.4022 -0.5833  1.6016
   20MOL    C44 8062   7.751   7.226   1.647 -0.0538 -0.4403 -0.0117
   20MOL    C45 8063   7.753   7.080   1.682  0.6189  0.9537  0.1202
   20MOL    C46 8064   0.038   7.018   1.675  0.7834  0.0307  0.5290
   20MOL    O47 8065   0.057   6.904   1.629 -0.2822 -0.0032  0.4861
   20MOL    O48 8066   0.137   7.098   1.724 -0.0099  0.1404 -0.2523
   20MOL    C49 8067   0.274   7.060   1.720  0.1579  0.4009  0.0492
   20MOL    C50 8068   0.341   7.095   1.848 -0.2103 -0.3617  0.3176
   20MOL    C51 8069   0.493   7.102   1.841 -0.5170 -0.1082  0.3836
   20MOL    C52 8070   0.558   7.163   1.968  0.1309  0.2537  0.4609
   20MOL    H53 8071   7.655   7.271   1.674  0.1939  0.1988 -0.1923
   20MOL    H54 8072   7.828   7.276   1.705 -2.4935  1.3053  1.8618
   20MOL    H55 8073   7.690   7.023   1.613  0.3963 -1.4581  2.2351
   20MOL    H56 8074   0.322   7.118   1.642  2.4318 -1.3053  0.1228
   20MOL    H57 8075   0.284   6.956   1.689  0.6735  0.0143  1.4424
   20MOL    H58 8076   0.294   7.188   1.880 -2.0084 -1.0269 -0.3119
   20MOL    H59 8077   0.318   7.024   1.927  0.4331  0.6343  1.4032
   20MOL    H60 8078   0.525   7.168   1.760 -0.5711  1.3440  1.5163
   20MOL    H61 8079   0.534   7.004   1.819  0.9369  0.1998  1.6294
   20MOL    H62 8080   0.526   7.265   1.986  1.7212  1.0313 -1.0084
   20MOL    H63 8081   0.666   7.170   1.965  0.0568  0.9002 -0.6121
   20MOL    H64 8082   0.522   7.113   2.059 -0.7224 -2.0742 -1.0958
   20MOL    C65 8083   7.709   7.057   1.829  0.2043 -0.3798  0.1370
   20MOL    C66 8084   7.573   7.124   1.880 -0.1116 -0.4990  0.0105
   20MOL    C67 8085   7.451   7.066   1.810 -0.1549  0.5447 -0.2336
   20MOL    O68 8086   7.365   7.140   1.760  0.2907  0.2093  0.1461
   20MOL    O69 8087   7.453   6.928   1.805  0.3059  0.4856 -0.0588
   20MOL    C70 8088   7.359   6.864   1.721 -0.4933  0.3245  0.8034
   20MOL    C71 8089   7.452   6.819   1.607  0.3454  0.6942  0.3460
   20MOL    C72 8090   7.383   6.824   1.468  0.6136 -0.3816 -0.2718
   20MOL    C73 8091   7.485   6.804   1.353 -0.4257  0.1647 -0.2663
   20MOL    H74 8092   7.784   7.098   1.897 -1.0655 -0.9574  1.9281
   20MOL    H75 8093   7.697   6.951   1.852 -0.8758 -0.4218 -0.5690
   20MOL    H76 8094   7.584   7.227   1.846  2.2080 -0.1915  1.5511
   20MOL    H77 8095   7.284   6.937   1.690  1.7140  2.4312  0.2995
   20MOL    H78 8096   7.308   6.781   1.770 -1.9987 -0.3838 -1.8463
   20MOL    H79 8097   7.548   6.870   1.602 -0.2496  1.7591 -0.3937
   20MOL    H80 8098   7.488   6.718   1.626 -0.8592  0.6643  2.7000
   20MOL    H81 8099   7.334   6.919   1.445 -1.1628 -1.4442 -0.9726
   20MOL    H82 8100   7.296   6.759   1.466  0.8764 -0.7178 -1.3312
   20MOL    H83 8101   7.421   6.787   1.267 -4.1574 -0.7470  2.5372
   20MOL    H84 8102   7.553   6.720   1.366  2.9591  2.5525 -1.7798
   20MOL    H85 8103   7.540   6.898   1.342 -0.6750  0.3189 -0.2153
   20MOL    C86 8104   7.552   7.121   2.039  0.3744  0.4433 -0.0404
   20MOL    C87 8105   7.482   7.240   2.095 -0.5875  0.0456 -0.1677
   20MOL    C88 8106   7.439   7.214   2.241  0.6932 -0.6691  0.4587
   20MOL    O89 8107   7.492   7.267   2.338 -0.2317 -0.6353 -0.5185
   20MOL    O90 8108   7.338   7.124   2.249  0.1059  0.2370  0.1698
   20MOL    C91 8109   7.295   7.091   2.380 -0.1563 -0.0940  0.5210
   20MOL    C92 8110   7.176   6.986   2.365 -0.1697 -0.1397 -0.0036
   20MOL    C93 8111   7.210   6.853   2.288 -0.8894 -0.6695  0.2243
   20MOL    C94 8112   7.092   6.758   2.292  0.5619 -1.1037 -0.1583
   20MOL    H95 8113   7.647   7.114   2.093  0.0028  0.0105  0.5611
   20MOL    H96 8114   7.486   7.037   2.059  0.4864  0.3568 -0.0375
   20MOL    H97 8115   7.384   7.247   2.049 -0.7577  0.4155  0.2489
   20MOL    H98 8116   7.260   7.177   2.437 -2.4258 -0.4735 -0.2481
   20MOL    H99 8117   7.377   7.046   2.436 -1.6308  0.2378  2.9968
   20MOL   H100 8118   7.151   6.967   2.470 -1.4254 -0.0393 -0.2686
   20MOL   H101 8119   7.090   7.037   2.321  1.3150 -0.0705 -2.9173
   20MOL   H102 8120   7.296   6.808   2.337  0.2404 -1.1484 -2.1565
   20MOL   H103 8121   7.230   6.887   2.187 -0.6319 -0.5319  0.3207
   20MOL   H104 8122   7.077   6.730   2.396  1.1298 -0.8025  0.0077
   20MOL   H105 8123   7.096   6.669   2.229 -0.4081 -1.1181 -0.2047
   20MOL   H106 8124   7.003   6.813   2.261 -0.1728 -2.1488  0.0847
   20MOL   C107 8125   7.571   7.367   2.079  0.1415  0.5267 -0.3680
   20MOL   C108 8126   7.487   7.495   2.042  0.6784 -0.1819  0.1787
   20MOL   C109 8127   7.437   7.495   1.896  0.7063  0.0044 -0.3517
   20MOL   O110 8128   7.520   7.520   1.809  0.4741 -0.3121  0.0780
   20MOL   O111 8129   7.308   7.453   1.878 -0.4823 -0.5655  0.1535
   20MOL   C112 8130   7.260   7.432   1.748 -0.1051  0.0527  0.5448
   20MOL   C113 8131   7.155   7.536   1.722 -0.4502 -0.2283  0.2242
   20MOL   C114 8132   7.037   7.535   1.825 -0.0409  0.7578  0.2808
   20MOL   C115 8133   6.987   7.403   1.855  0.1245 -0.8102  0.2388
   20MOL   H116 8134   7.660   7.355   2.017  0.0363 -0.9587 -0.2512
   20MOL   H117 8135   7.619   7.393   2.174  0.0701  1.8760 -0.6878
   20MOL   H118 8136   7.559   7.577   2.053  1.7608 -0.9870 -0.7348
   20MOL   H119 8137   7.216   7.332   1.744  0.6363 -0.2848  0.8400
   20MOL   H120 8138   7.334   7.445   1.669  0.2805 -0.2086  0.8612
   20MOL   H121 8139   7.202   7.632   1.700 -0.8711 -0.4567 -1.8099
   20MOL   H122 8140   7.115   7.515   1.623 -2.8126 -1.5441  1.4298
   20MOL   H123 8141   6.950   7.585   1.782 -1.6028 -1.9312  0.2240
   20MOL   H124 8142   7.052   7.588   1.920 -0.5524  0.0572  0.7576
   20MOL   H125 8143   6.955   7.339   1.772  1.2120 -1.1083  0.0356
   20MOL   H126 8144   6.897   7.418   1.915  0.2053  0.9557 -0.0731
   20MOL   H127 8145   7.062   7.343   1.907 -0.7061  0.2573  2.7236
   20MOL   C128 8146   7.374   7.528   2.142  0.7925 -0.3943 -0.5676
   20MOL   C129 8147   7.298   7.668   2.141 -0.3030 -0.5056 -0.1632
   20MOL   C130 8148   7.185   7.679   2.242 -0.1737  0.1437  0.6086
   20MOL   O131 8149   7.192   7.717   2.350  0.4861  0.0640 -0.2203
   20MOL   O132 8150   7.071   7.619   2.197  0.3146 -0.5887  0.7271
   20MOL   C133 8151   6.964   7.592   2.283  0.1198  0.2586  0.3069
   20MOL   C134 8152   6.977   7.454   2.336  0.4506  0.7969  0.4377
   20MOL   C135 8153   6.896   7.413   2.461  0.2928  0.5957  1.1731
   20MOL   C136 8154   6.914   7.269   2.510 -0.4047  0.4568  0.8589
   20MOL   H137 8155   7.414   7.518   2.242 -1.2830  0.1406  0.3412
   20MOL   H138 8156   7.296   7.453   2.129  1.4726 -1.0055 -1.2146
   20MOL   H139 8157   7.248   7.675   2.044 -2.7014  3.4151  1.2263
   20MOL   H140 8158   6.868   7.580   2.232 -0.2107  3.1310  0.1714
   20MOL   H141 8159   6.957   7.667   2.362 -1.1400  2.2180 -1.5985
   20MOL   H142 8160   6.971   7.382   2.255  1.6760  0.6448  0.4665
   20MOL   H143 8161   7.080   7.448   2.371  0.6227  1.0803 -0.0175
   20MOL   H144 8162   6.790   7.428   2.439 -0.2794 -2.3126  1.8577
   20MOL   H145 8163   6.926   7.471   2.549  2.0916 -1.5999  2.0412
   20MOL   H146 8164   7.007   7.259   2.566  0.6880 -2.0078 -1.2777
   20MOL   H147 8165   6.918   7.203   2.423  0.6053  1.3446  0.2141
   20MOL   H148 8166   6.827   7.234   2.565 -1.8051  2.8294  0.2592
   20MOL   C149 8167   7.396   7.779   2.150  0.7717  0.8433  0.0700
   20MOL   C150 8168   7.437   7.833   2.009 -0.2010  0.1288 -0.2732
   20MOL   C151 8169   7.321   0.024   1.915  0.2198 -0.1075 -0.7989
   20MOL   O152 8170   7.311   7.835   1.798  0.0387 -0.5949 -0.1654
   20MOL   O153 8171   7.243   0.114   1.978  0.0367  0.0753  0.7248
   20MOL   C154 8172   7.110   0.146   1.933 -0.1424  0.1792 -0.0161
   20MOL   C155 8173   7.010   0.047   2.006  1.3941  0.1742  0.4842
   20MOL   C156 8174   6.868   0.047   1.946  0.4341 -0.5859  0.0528
   20MOL   C157 8175   6.782   7.803   2.017 -0.1708  1.2901  0.1428
   20MOL   H158 8176   7.484   7.742   2.204 -0.5966 -1.8833  0.5219
   20MOL   H159 8177   7.362   7.853   2.222  2.0303 -0.1513  1.7232
   20MOL   H160 8178   7.491   7.753   1.958  2.2364  1.6717 -0.1806
   20MOL   H161 8179   7.099   0.127   1.826 -0.5525 -0.9492  0.2117
   20MOL   H162 8180   7.094   0.252   1.952 -0.8638  0.3566 -1.5163
   20MOL   H163 8181   7.064   7.805   2.001  2.3706  0.8251 -2.7483
   20MOL   H164 8182   7.009   0.078   2.110  2.1474 -1.1212  0.8932
   20MOL   H165 8183   6.855   0.028   1.839 -0.5936  2.0365 -0.3295
   20MOL   H166 8184   6.825   0.147   1.950  1.5670 -0.0299 -1.2411
   20MOL   H167 8185   6.790   7.798   2.126 -0.3269  1.8964  0.1825
   20MOL   H168 8186   6.818   7.705   1.985  1.0209  1.2480  1.5503
   20MOL   H169 8187   6.680   7.827   1.990 -0.2087  0.2618 -0.6714
   20MOL   C170 8188   7.547   0.089   2.022  0.5942 -0.4277 -0.7742
   20MOL   C171 8189   7.619   0.127   1.887  0.2742 -0.1257  0.7761
   20MOL   C172 8190   7.681   0.269   1.884 -0.3938 -0.6189  0.8031
   20MOL   O173 8191   7.674   0.345   1.980  0.1233  0.0158 -0.5551
   20MOL   O174 8192   7.749   0.303   1.765  0.0338 -0.3827 -0.6586
   20MOL   C175 8193   7.780   0.435   1.743 -0.1252  0.5394  0.5069
   20MOL   C176 8194   0.047   0.436   1.639 -0.6794 -0.3327  0.9760
   20MOL   C177 8195   0.186   0.391   1.689 -0.9423 -0.4455 -0.1784
   20MOL   C178 8196   0.305   0.462   1.625  0.4611  0.2376 -0.6593
   20MOL   H179 8197   7.626   0.059   2.090  1.3998 -0.1897 -1.5837
   20MOL   H180 8198   7.502   0.182   2.058  0.3461 -1.4644  1.6699
   20MOL   H181 8199   7.557   0.128   1.797  0.8723  1.8438  0.3548
   20MOL   H182 8200   7.802   0.485   1.837 -0.6935 -1.6225  1.8287
   20MOL   H183 8201   7.695   0.495   1.710  0.3030  1.4180  0.9782
   20MOL   H184 8202   0.026   0.375   1.551  2.5447  0.8296 -0.6737
   20MOL   H185 8203   0.056   0.539   1.606  3.2720 -0.9506 -0.0784
   20MOL   H186 8204   0.190   0.284   1.672  2.4822 -0.5233  0.8392
   20MOL   H187 8205   0.188   0.409   1.796 -0.1739 -1.6378  0.0176
   20MOL   H188 8206   0.310   0.438   1.519 -0.7896 -2.4523 -0.1315
   20MOL   H189 8207   0.398   0.427   1.671  0.7576  2.7460  0.7780
   20MOL   H190 8208   0.306   0.569   1.648 -1.6543 -0.5876  3.7545
   20MOL   C191 8209   7.728   0.029   1.845 -0.5268 -0.2940  0.2785
   20MOL   C192 8210   7.848   0.013   1.955  0.1157 -0.5190 -0.0373
   20MOL   C193 8211   0.008   7.726   2.005  0.0284  0.7264 -0.3351
   20MOL   O194 8212   7.816   7.688   2.111 -0.3570 -0.4536  0.1666
   20MOL   O195 8213   0.060   7.646   1.907 -0.2619 -0.3195  0.0159
   20MOL   C196 8214   0.082   7.508   1.934 -0.3531  0.2141  0.5744
   20MOL   C197 8215   0.219   7.488   1.990  0.5127  0.4461  0.0912
   20MOL   C198 8216   0.332   7.501   1.891  0.4304  0.4604 -1.1216
   20MOL   C199 8217   0.315   7.442   1.751 -0.0003  0.2451  0.3114
   20MOL   H200 8218   7.776   0.061   1.753 -1.2946  0.2382  0.0643
   20MOL   H201 8219   7.677   7.787   1.826 -0.4028 -0.1222 -0.9548
   20MOL   H202 8220   7.824   0.078   2.039 -1.5515 -0.3607 -0.6037
   20MOL   H203 8221   0.067   7.434   1.855  0.6696  0.3836  0.2056
   20MOL   H204 8222   0.015   7.464   2.008  0.9187  0.3206  1.8156
   20MOL   H205 8223   0.224   7.556   2.074  0.3784  0.0682  0.4060
   20MOL   H206 8224   0.232   7.386   2.028 -2.5262  0.0961  0.3039
   20MOL   H207 8225   0.402   7.438   1.945  0.3653  0.1828 -1.3601
   20MOL   H208 8226   0.378   7.600   1.898  2.0830 -0.2788 -1.2248
   20MOL   H209 8227   0.411   7.445   1.698 -1.0428  2.8441 -1.5310
   20MOL   H210 8228   0.248   7.505   1.692  0.5167 -1.5812 -2.3275
   20MOL   H211 8229   0.269   7.345   1.734  0.9392 -0.1692  0.0788
   20MOL   C212 8230   0.123   0.086   1.904  0.1424  0.2585  0.2079
   20MOL   C213 8231   0.236   0.087   2.012  0.1392 -0.5261  0.0647
   20MOL   C214 8232   0.375   0.039   1.963 -0.0480 -0.5451  0.2527
   20MOL   O215 8233   0.410   0.046   1.845  0.4646 -0.0230 -0.0712
   20MOL   O216 8234   0.452   7.840   2.059  0.4319 -0.0561  0.0152
   20MOL   C217 8235   0.567   7.767   2.035  0.0110 -0.1305  0.2415
   20MOL   C218 8236   0.568   7.641   2.129  0.0465  0.1074  0.4442
   20MOL   C219 8237   0.569   7.674   2.276 -0.5977 -0.3855 -0.4130
   20MOL   C220 8238   0.545   7.542   2.368  0.0514 -0.6473  0.6063
   20MOL   H221 8239   0.104   0.192   1.885 -2.1951 -0.4765 -1.9081
   20MOL   H222 8240   0.163   0.043   1.812 -0.8866  0.5075 -0.3679
   20MOL   H223 8241   0.219   0.006   2.083  3.6090 -3.4924 -2.2740
   20MOL   H224 8242   0.653   7.828   2.062 -0.2886  0.4764 -0.1704
   20MOL   H225 8243   0.582   7.736   1.932 -1.7945 -0.5752  0.0993
   20MOL   H226 8244   0.475   7.585   2.123 -0.0667 -0.1411  3.6014
   20MOL   H227 8245   0.650   7.572   2.108  0.2864  0.6115 -0.3076
   20MOL   H228 8246   0.481   7.737   2.293 -0.8380 -1.5824  3.3245
   20MOL   H229 8247   0.665   7.718   2.302 -1.0431  0.2995  0.0865
   20MOL   H230 8248   0.619   7.469   2.335  0.2479 -0.4612  0.6349
   20MOL   H231 8249   0.447   7.504   2.337 -0.2348  1.2069 -0.8619
   20MOL   H232 8250   0.544   7.554   2.477 -1.3846 -0.7769  0.6149
   20MOL   C233 8251   0.248   0.224   2.080  1.2878 -0.6437 -0.3269
   20MOL   C234 8252   0.132   0.260   2.175 -0.6151  0.4370  0.8732
   20MOL   C235 8253   0.120   0.166   2.292  0.0219  1.0891 -0.5039
   20MOL   O236 8254   0.210   0.167   2.375 -0.8280 -0.3822  0.4265
   20MOL   O237 8255   0.008   0.080   2.286  0.4280 -0.3809 -0.4643
   20MOL   C238 8256   7.847   7.829   2.377 -0.3052 -0.9866  0.4547
   20MOL   C239 8257   7.702   7.799   2.385  0.7063  0.2670  0.0102
   20MOL   C240 8258   7.673   7.699   2.494 -0.4225 -0.5796 -0.6780
   20MOL   C241 8259   7.530   7.653   2.481  0.1564 -0.5157 -0.0735
   20MOL   H242 8260   0.269   0.301   2.006  1.7697 -0.4758 -0.0183
   20MOL   H243 8261   0.340   0.220   2.138 -0.3141  2.5165  2.6101
   20MOL   H244 8262   0.045   0.260   2.110 -0.7524  0.6960  1.0588
   20MOL   H245 8263   0.024   0.022   2.472 -0.7080  1.5219 -0.5982
   20MOL   H246 8264   0.055   7.743   2.347 -1.2500 -1.3610 -0.4091
   20MOL   H247 8265   7.648   0.040   2.392  1.7441  0.7091  2.4273
   20MOL   H248 8266   7.675   7.762   2.286  0.5810  0.8864 -0.1863
   20MOL   H249 8267   7.699   7.747   2.589 -0.8785 -0.0068 -0.8356
   20MOL   H250 8268   7.740   7.613   2.492 -0.8883 -0.9116 -2.6810
   20MOL   H251 8269   7.463   7.734   2.454  2.1653  1.9825  2.2152
   20MOL   H252 8270   7.488   7.607   2.570  3.2917 -2.3149  0.5693
   20MOL   H253 8271   7.527   7.572   2.408  0.1546 -1.0189  0.4838
   20MOL   C254 8272   0.145   0.409   2.222  0.0658  1.3027 -0.3696
   20MOL   C255 8273   0.023   0.479   2.268  1.5718 -0.5023 -0.3680
   20MOL   C256 8274   7.836   0.443   2.416  0.4633 -0.3070  0.8044
   20MOL   O257 8275   0.035   0.510   2.505  0.4650  0.4777 -0.4957
   20MOL   O258 8276   7.761   0.337   2.430  0.2398  0.1410 -0.6204
   20MOL   C259 8277   7.685   0.334   2.547  0.1725 -0.2304 -0.6035
   20MOL   C260 8278   7.744   0.263   2.672  0.2686 -1.1681  0.6509
   20MOL   C261 8279   7.638   0.235   2.777  0.2280 -0.5022  0.1726
   20MOL   C262 8280   7.704   0.166   2.901  0.0375  0.5626  0.4258
   20MOL   H263 8281   0.179   0.464   2.134 -2.0557  0.3457 -1.8269
   20MOL   H264 8282   0.219   0.426   2.300 -2.3481  0.6997  2.1272
   20MOL   H265 8283   7.802   0.443   2.197 -0.3300  2.6221 -0.0929
   20MOL   H266 8284   7.598   0.278   2.512 -1.0487  1.5441 -0.4948
   20MOL   H267 8285   7.652   0.435   2.571 -1.4449 -0.5775 -1.2687
   20MOL   H268 8286   7.805   0.181   2.634  0.2009  0.4483 -3.2472
   20MOL   H269 8287   7.827   0.317   2.719  0.2043 -0.9289  0.4937
   20MOL   H270 8288   7.558   0.178   2.729  0.7380 -1.3151  0.2852
   20MOL   H271 8289   7.596   0.325   2.823  3.2575 -0.2602  2.5891
   20MOL   H272 8290   7.743   0.246   2.964  0.5651  1.7242 -1.3377
   20MOL   H273 8291   7.776   0.088   2.874 -0.5758 -0.2852  1.2494
   20MOL   H274 8292   7.622   0.113   2.949 -0.8899 -1.1960 -2.8864
   20MOL   C275 8293   0.030   0.631   2.237 -0.3257  0.2595 -0.1598
   20MOL   C276 8294   7.760   0.699   2.165 -0.3390 -0.6971 -0.4103
   20MOL   C277 8295   7.628   0.678   2.249  0.0408 -0.9707 -0.1124
   20MOL   O278 8296   7.537   0.620   2.195  0.2679 -0.3420  0.3203
   20MOL   O279 8297   7.627   0.733   2.378 -0.2649  0.4289  0.2374
   20MOL   C280 8298   7.513   0.706   2.462 -0.4148 -1.0921  0.5212
   20MOL   C281 8299   7.550   0.769   2.599  0.8239 -0.0927  0.5182
   20MOL   C282 8300   7.446   0.752   2.703 -0.0690 -0.1583 -0.7186
   20MOL   C283 8301   7.484   0.814   2.836  0.5298  0.0157 -0.5951
   20MOL   H284 8302   0.120   0.656   2.182 -0.5835 -1.1201 -1.2356
   20MOL   H285 8303   0.043   0.688   2.330 -0.1393  0.0083 -0.0331
   20MOL   H286 8304   7.743   0.666   2.062 -3.1822 -0.2115 -0.1471
   20MOL   H287 8305   7.488   0.600   2.473 -1.4733 -1.0036 -0.8807
   20MOL   H288 8306   7.435   0.766   2.415  0.9222 -0.2984 -0.7130
   20MOL   H289 8307   7.645   0.731   2.637 -0.5776 -0.2159  4.1034
   20MOL   H290 8308   7.557   0.877   2.587  1.9000 -0.2945 -0.9006
   20MOL   H291 8309   7.440   0.644   2.716 -0.1278  0.0669  1.2782
   20MOL   H292 8310   7.351   0.784   2.661 -0.3918  0.9947  0.8419
   20MOL   H293 8311   7.401   0.804   2.906  0.6297 -1.1157 -0.6245
   20MOL   H294 8312   7.493   0.922   2.822 -0.2230 -0.1517 -2.4427
   20MOL   H295 8313   7.573   0.787   2.892  1.0508  1.6196 -0.6243
   20MOL   C296 8314   7.790   0.851   2.159  0.3722 -0.8830  0.5908
   20MOL   C297 8315   7.688   0.921   2.071  0.3317 -0.2494  0.4137
   20MOL   C298 8316   7.570   0.983   2.143 -0.1307  0.5117 -0.4492
   20MOL   O299 8317   7.456   0.958   2.105  0.5591 -0.1407  0.2747
   20MOL   O300 8318   7.607   1.063   2.238 -0.5671  0.4077  0.5345
   20MOL   C301 8319   7.508   1.145   2.297  0.1375  0.4437  0.4830
   20MOL   C302 8320   7.491   1.270   2.208 -0.3823  0.4316  0.0019
   20MOL   C303 8321   7.623   1.359   2.184 -0.7542  0.1330 -0.0046
   20MOL   C304 8322   7.625   1.451   2.064  0.5041 -0.4242 -0.4748
   20MOL   H305 8323   0.035   0.874   2.117  0.5197 -0.7407  1.0154
   20MOL   H306 8324   7.788   0.890   2.260 -1.2604 -3.0443  1.4439
   20MOL   H307 8325   7.645   0.844   2.007 -0.9809  1.2272 -0.5072
   20MOL   H308 8326   7.529   1.183   2.397  2.9053  0.2999 -0.0064
   20MOL   H309 8327   7.413   1.092   2.298  1.3239 -1.8367 -1.3916
   20MOL   H310 8328   7.450   1.235   2.113 -2.3829  1.1906  0.5777
   20MOL   H311 8329   7.421   1.341   2.250  1.9089  1.9466  1.3636
   20MOL   H312 8330   7.716   1.303   2.192  0.5791  2.2953 -0.2035
   20MOL   H313 8331   7.633   1.413   2.278  1.5089  2.8163 -1.7509
   20MOL   H314 8332   7.643   1.398   1.970 -1.8376 -1.5799 -0.2833
   20MOL   H315 8333   7.699   1.532   2.069  0.0689 -0.1151  1.2816
   20MOL   H316 8334   7.531   1.504   2.049  1.4165  1.0572 -1.2090
   20MOL   C317 8335   7.744   1.032   1.985  0.5311 -1.0244  0.5069
   20MOL   C318 8336   7.775   0.984   1.843 -0.0954 -0.7989  0.1317
   20MOL   C319 8337   7.850   0.846   1.840  0.4014  0.2273 -0.3477
   20MOL   O320 8338   7.790   0.748   1.798 -0.3745  0.2792  0.9711
   20MOL   O321 8339   0.122   0.843   1.879  0.1072 -0.1371  0.0293
   20MOL   C322 8340   0.191   0.719   1.887  0.8576 -0.6664  0.4230
   20MOL   C323 8341   0.317   0.730   1.971  0.5781 -0.0071 -0.3142
   20MOL   C324 8342   0.436   0.773   1.884  0.2313  0.3649 -0.1504
   20MOL   C325 8343   0.561   0.781   1.963 -0.4908 -0.0470 -0.6804
   20MOL   H326 8344   7.831   1.079   2.031  0.9641 -0.7635 -0.5751
   20MOL   H327 8345   7.679   1.119   1.975  2.5911  0.5002 -0.0832
   20MOL   H328 8346   7.849   1.050   1.798  1.5671 -1.3245  2.0124
   20MOL   H329 8347   0.213   0.703   1.782  0.2672  0.3211  0.1489
   20MOL   H330 8348   0.135   0.631   1.918  2.3508 -1.8557 -0.1478
   20MOL   H331 8349   0.305   0.799   2.055  2.0448  0.2799 -0.3245
   20MOL   H332 8350   0.332   0.641   2.033  0.1907  0.0277 -0.1691
   20MOL   H333 8351   0.419   0.865   1.826  0.3719  1.5807  1.6970
   20MOL   H334 8352   0.453   0.701   1.804 -0.0494  1.4892 -1.2416
   20MOL   H335 8353   0.644   0.802   1.896  0.6821 -1.0595  0.4532
   20MOL   H336 8354   0.579   0.685   2.010  1.4399  0.9634  0.6847
   20MOL   H337 8355   0.541   0.849   2.046  0.1885  0.8402 -1.2251
   20MOL   C338 8356   7.650   0.991   1.750 -0.4428  0.2528  0.0226
   20MOL   C339 8357   7.595   1.132   1.712 -0.3783  0.1402  0.3031
   20MOL   C340 8358   7.694   1.238   1.675 -0.4669 -1.0615 -0.1289
   20MOL   O341 8359   7.685   1.353   1.718 -0.2340  0.3257  0.3633
   20MOL   O342 8360   7.793   1.194   1.595  0.3308 -0.2203 -0.1845
   20MOL   C343 8361   0.039   1.286   1.549  0.7280 -0.1502 -0.1555
   20MOL   C344 8362   0.170   1.224   1.509 -0.1227 -0.4803 -0.1448
   20MOL   C345 8363   0.269   1.338   1.481  0.1887  0.8053 -0.3575
   20MOL   C346 8364   0.402   1.283   1.426  0.5324  0.6354 -1.0030
   20MOL   H347 8365   7.565   0.933   1.787 -0.9787  0.4697 -0.8442
   20MOL   H348 8366   7.687   0.936   1.663 -2.0149 -0.3367 -0.2916
   20MOL   H349 8367   7.544   1.163   1.803  0.5264 -1.6610  1.4639
   20MOL   H350 8368   0.051   1.356   1.631 -0.9830  0.4768 -0.4097
   20MOL   H351 8369   0.010   1.339   1.458 -0.3108 -2.0004 -0.9475
   20MOL   H352 8370   0.201   1.159   1.591 -1.0748  1.3014  1.6733
   20MOL   H353 8371   0.162   1.166   1.417  0.5073  1.0412 -1.1872
   20MOL   H354 8372   0.299   1.374   1.579 -0.8455 -0.6195  0.4939
   20MOL   H355 8373   0.224   1.416   1.420 -0.4260 -1.3173 -2.7074
   20MOL   H356 8374   0.466   1.371   1.424  0.1904  0.9204  0.4788
   20MOL   H357 8375   0.397   1.258   1.320  4.1457 -0.5405 -0.9545
   20MOL   H358 8376   0.439   1.206   1.493 -1.0424  1.5273  0.9306
   20MOL   C359 8377   7.485   1.101   1.607  0.2119  0.2300  0.1340
   20MOL   C360 8378   7.336   1.073   1.657 -0.4565 -1.1416 -0.1944
   20MOL   C361 8379   7.281   1.185   1.742 -0.3337  0.3797  0.8635
   20MOL   O362 8380   7.273   1.169   1.862 -0.3719  0.0241 -0.4311
   20MOL   O363 8381   7.276   1.294   1.674 -0.7554  0.0240 -0.2735
   20MOL   C364 8382   7.185   1.392   1.706  0.8520  0.0596  0.7547
   20MOL   C365 8383   7.232   1.533   1.734 -0.7063  0.0806  0.9834
   20MOL   C366 8384   7.286   1.542   1.873  0.3184 -0.0381 -0.5412
   20MOL   C367 8385   7.352   1.670   1.915  0.5314  0.7544 -0.2816
   20MOL   H368 8386   7.519   1.024   1.538 -1.3935 -0.2299 -0.1554
   20MOL   H369 8387   7.473   1.180   1.533 -0.8810  0.3007  0.3757
   20MOL   H370 8388   7.335   0.990   1.729  2.0532  0.0242  1.2611
   20MOL   H371 8389   7.126   1.357   1.791 -1.2180  2.1345  0.2396
   20MOL   H372 8390   7.114   1.394   1.623 -1.4686  0.1332  2.6746
   20MOL   H373 8391   7.313   1.557   1.665 -0.5845 -1.3099  0.6370
   20MOL   H374 8392   7.160   1.612   1.710 -0.8477 -1.2608 -3.3165
   20MOL   H375 8393   7.348   1.454   1.891 -0.2135 -0.1526  0.8719
   20MOL   H376 8394   7.206   1.516   1.943  1.3615  0.3769  0.8215
   20MOL   H377 8395   7.393   1.659   2.015 -2.4498 -0.2491  0.8896
   20MOL   H378 8396   7.284   1.755   1.912 -0.6491 -0.0230  2.4070
   20MOL   H379 8397   7.428   1.707   1.846 -1.4424  0.5586 -2.6294
   20MOL   C380 8398   7.255   1.036   1.534  0.0986  0.4710 -0.5418
   20MOL   C381 8399   7.102   1.012   1.546 -0.0996  0.2877  0.2150
   20MOL   C382 8400   7.043   1.007   1.403  0.0266  0.1443 -0.1972
   20MOL   O383 8401   7.115   0.985   1.305  0.2076 -0.2196  0.0318
   20MOL   O384 8402   6.906   1.010   1.399 -0.4401 -0.4497  0.0097
   20MOL   C385 8403   6.838   1.003   1.270  0.6293 -0.6221 -0.5432
   20MOL   C386 8404   6.796   0.855   1.240 -0.2469  0.2244  0.9817
   20MOL   C387 8405   6.740   0.840   1.104  0.1426  0.0410 -0.6552
   20MOL   C388 8406   6.703   0.700   1.060  0.4804 -0.3541  0.2605
   20MOL   H389 8407   7.291   0.945   1.487  0.5654  0.0925  0.5304
   20MOL   H390 8408   7.263   1.117   1.461  0.3087  1.5142  0.6130
   20MOL   H391 8409   7.059   1.105   1.583 -0.1057  0.4776 -0.2666
   20MOL   H392 8410   6.905   1.025   1.187 -0.0417  2.8797 -0.2329
   20MOL   H393 8411   6.750   1.067   1.265  0.4411 -0.8676 -0.3427
   20MOL   H394 8412   6.893   0.807   1.256 -0.8127 -0.5566  2.1046
   20MOL   H395 8413   6.724   0.804   1.304 -0.6489  0.5895  0.8227
   20MOL   H396 8414   6.814   0.885   1.038  1.1920 -0.9747 -0.1777
   20MOL   H397 8415   6.645   0.892   1.092 -0.1937 -0.3112  0.4407
   20MOL   H398 8416   6.634   0.702   0.976  1.7602 -1.3578 -0.8264
   20MOL   H399 8417   6.639   0.653   1.135  1.0942  0.9665  1.6433
   20MOL   H400 8418   6.788   0.634   1.044 -0.1639 -1.4643  1.3130
   20MOL   C401 8419   7.061   0.895   1.642 -0.1937 -1.4265 -0.4788
   20MOL   C402 8420   6.920   0.892   1.710 -0.4932  0.0435 -0.3358
   20MOL   C403 8421   6.921   0.963   1.844 -0.1615 -0.1893 -0.2144
   20MOL   O404 8422   6.895   0.900   1.950 -0.7099  0.0313 -0.3605
   20MOL   O405 8423   6.961   1.092   1.837  0.2213  0.1203  0.0777
   20MOL   C406 8424   6.956   1.173   1.961  0.0322 -0.2800 -0.2005
   20MOL   C407 8425   6.847   1.273   1.945  0.1552  1.5443  0.5254
   20MOL   C408 8426   6.817   1.363   2.072  0.2705  0.0084 -0.0754
   20MOL   C409 8427   6.721   1.473   2.056  0.0504 -0.4621  0.5501
   20MOL   H410 8428   7.144   0.897   1.713  0.5267 -0.3807 -1.3489
   20MOL   H411 8429   7.077   0.802   1.587  1.3298 -0.3655 -1.8538
   20MOL   H412 8430   6.893   0.788   1.729 -0.6047  0.0718 -0.3391
   20MOL   H413 8431   7.054   1.221   1.968  1.1147 -2.7031  1.8431
   20MOL   H414 8432   6.931   1.121   2.053 -1.0375  0.1977 -0.2074
   20MOL   H415 8433   6.858   1.341   1.860  1.8751  2.2521  1.2863
   20MOL   H416 8434   6.752   1.221   1.931 -0.0614  1.8309  0.9536
   20MOL   H417 8435   6.912   1.401   2.110 -0.4019 -0.4750  2.1356
   20MOL   H418 8436   6.776   1.309   2.157 -0.9513  0.3447 -0.4459
   20MOL   H419 8437   6.735   1.541   2.140 -1.4276  1.0377 -0.3867
   20MOL   H420 8438   6.619   1.439   2.041  0.3842 -1.0849 -0.3282
   20MOL   H421 8439   6.762   1.528   1.971  2.0508  1.2346  2.5383
   20MOL   H422 8440   6.843   0.953   1.662  0.2555  2.8710  1.9186
   21MOL     C1 8441   2.178   6.330   3.517 -0.0968 -0.0035 -0.1464
   21MOL     C2 8442   2.103   6.222   3.592 -0.2270  0.6660 -0.9517
   21MOL     C3 8443   1.954   6.239   3.558 -0.5459 -0.0475 -0.2661
   21MOL     O4 8444   1.909   6.212   3.447 -0.6679  0.2634  0.0861
   21MOL     O5 8445   1.882   6.299   3.660  0.5561 -0.8257  0.0611
   21MOL     C6 8446   1.747   6.327   3.634 -0.4744  0.9399  0.1990
   21MOL     C7 8447   1.700   6.470   3.589  0.7047  0.1164 -0.2471
   21MOL     C8 8448   1.548   6.479   3.599 -0.9720  0.1440 -0.0505
   21MOL     C9 8449   1.509   6.621   3.571 -0.1857 -0.2855 -0.3592
   21MOL    H10 8450   2.129   6.424   3.544 -0.3435  0.2545 -1.4496
   21MOL    H11 8451   2.277   6.343   3.561 -1.1447 -0.3662  2.4079
   21MOL    H12 8452   2.113   6.251   3.697  2.3125  1.8500 -1.4755
   21MOL    H13 8453   1.674   6.284   3.702  0.9482  1.6553  2.2175
   21MOL    H14 8454   1.728   6.278   3.538  1.3760 -1.0588  0.8049
   21MOL    H15 8455   1.755   6.546   3.645 -0.3669  1.4373 -0.9342
   21MOL    H16 8456   1.744   6.496   3.493  1.2139  0.4126  0.0650
   21MOL    H17 8457   1.506   6.451   3.695 -2.7332 -0.9147 -1.0939
   21MOL    H18 8458   1.502   6.408   3.530 -1.0843 -1.5251  1.7222
   21MOL    H19 8459   1.565   6.672   3.492 -0.1047 -0.3247 -0.3273
   21MOL    H20 8460   1.507   6.677   3.665 -3.0819  0.5369 -0.8771
   21MOL    H21 8461   1.408   6.620   3.530  0.2452  2.4522 -1.6788
   21MOL    H22 8462   2.208   6.309   3.414  3.3016  1.2705  0.5255
   21MOL    C23 8463   2.169   6.084   3.555 -0.4518  0.2285 -0.6223
   21MOL    C24 8464   2.169   5.978   3.671  0.5816  0.0360 -0.3975
   21MOL    C25 8465   2.245   6.016   3.806  0.6498 -0.0763  0.0486
   21MOL    O26 8466   2.356   5.965   3.837 -0.0263 -0.1521 -0.2942
   21MOL    O27 8467   2.179   6.102   3.882  0.0812  0.1505 -0.3904
   21MOL    C28 8468   2.248   6.185   3.970  1.0631  0.2799  0.8776
   21MOL    C29 8469   2.152   6.264   4.059  0.3894  0.2518  0.2270
   21MOL    C30 8470   2.224   6.342   4.177  0.2444 -0.8967  0.1753
   21MOL    C31 8471   2.139   6.413   4.281 -0.7193  0.0108 -0.2893
   21MOL    H32 8472   2.274   6.113   3.548 -0.4233  0.8821  2.0955
   21MOL    H33 8473   2.137   6.052   3.456  0.8305  1.1061 -1.3457
   21MOL    H34 8474   2.236   5.905   3.627 -1.3424 -0.8335 -1.9661
   21MOL    H35 8475   2.303   6.249   3.900 -0.6184  1.7660  0.8938
   21MOL    H36 8476   2.321   6.124   4.023  1.8837  1.7796  1.4911
   21MOL    H37 8477   2.097   6.334   3.996  0.5129 -0.9328 -1.2191
   21MOL    H38 8478   2.074   6.201   4.100 -1.0225  0.0439 -2.6873
   21MOL    H39 8479   2.280   6.414   4.118  2.7420 -0.9733  2.3980
   21MOL    H40 8480   2.297   6.273   4.221 -1.1389 -0.8233  2.6909
   21MOL    H41 8481   2.040   6.445   4.249 -1.3212  1.2163  2.5916
   21MOL    H42 8482   2.180   6.506   4.322  3.5586 -1.8925  0.0855
   21MOL    H43 8483   2.140   6.332   4.355  1.3721  0.7867  0.5884
   21MOL    C44 8484   2.042   5.899   3.701 -0.2385  0.1198 -0.1609
   21MOL    C45 8485   2.054   5.763   3.779 -0.4415  0.2875  0.2640
   21MOL    C46 8486   1.931   5.731   3.850  0.1121  0.2678 -0.7254
   21MOL    O47 8487   1.913   5.763   3.972  0.1688 -0.4073 -0.0019
   21MOL    O48 8488   1.830   5.696   3.774  0.7121  0.6557 -0.6027
   21MOL    C49 8489   1.709   5.656   3.831  0.3721  0.4120  0.1823
   21MOL    C50 8490   1.632   5.560   3.735 -0.0302 -0.3188  0.3577
   21MOL    C51 8491   1.489   5.538   3.781 -0.6349  0.2639  0.7553
   21MOL    C52 8492   1.417   5.404   3.739  0.1739  0.5930  0.0514
   21MOL    H53 8493   2.002   5.876   3.602 -1.2807  1.4518 -0.0765
   21MOL    H54 8494   1.972   5.967   3.751  0.4534 -0.9625  2.3355
   21MOL    H55 8495   2.124   5.793   3.858 -1.3980 -1.7884  1.9709
   21MOL    H56 8496   1.642   5.740   3.847 -1.0627 -0.1928 -2.3070
   21MOL    H57 8497   1.710   5.610   3.930  1.9057  3.0196  1.4242
   21MOL    H58 8498   1.628   5.594   3.631 -1.9459  0.0017  0.5182
   21MOL    H59 8499   1.683   5.464   3.732  2.5593  0.9446  2.1350
   21MOL    H60 8500   1.430   5.610   3.724 -1.1027 -1.2289 -0.6910
   21MOL    H61 8501   1.474   5.558   3.887  1.6203 -0.7332  1.2793
   21MOL    H62 8502   1.423   5.324   3.814 -3.8521 -1.6384 -1.8420
   21MOL    H63 8503   1.457   5.371   3.643  0.5061  0.7586  0.1307
   21MOL    H64 8504   1.309   5.418   3.737  0.0631 -0.3698 -3.0685
   21MOL    C65 8505   2.112   5.648   3.701  0.6341  0.5779  0.0136
   21MOL    C66 8506   2.113   5.510   3.773 -0.0390 -0.0548  0.0890
   21MOL    C67 8507   2.142   5.400   3.669  0.4307  0.2546 -0.3661
   21MOL    O68 8508   2.170   5.432   3.551 -0.0762  0.3030  0.1443
   21MOL    O69 8509   2.135   5.278   3.718  0.1689 -0.6202  0.1082
   21MOL    C70 8510   2.157   5.161   3.643 -0.1227 -0.3178 -0.1190
   21MOL    C71 8511   2.019   5.098   3.609 -0.0908  0.1671 -0.2201
   21MOL    C72 8512   2.045   4.952   3.565  0.4175  0.4048 -0.1614
   21MOL    C73 8513   2.124   4.937   3.432 -0.0162 -0.5860  0.2347
   21MOL    H74 8514   2.216   5.673   3.680  1.1799 -0.5249  1.2713
   21MOL    H75 8515   2.062   5.630   3.607  0.5543  0.0167  0.1607
   21MOL    H76 8516   2.011   5.489   3.807  0.5184 -1.0622  1.2108
   21MOL    H77 8517   2.206   5.091   3.710  2.4717 -0.6584 -2.3152
   21MOL    H78 8518   2.216   5.177   3.553  1.3278  0.2819  0.9153
   21MOL    H79 8519   1.950   5.106   3.694 -2.9466  1.4479 -2.5472
   21MOL    H80 8520   1.961   5.153   3.535  0.5884 -1.3789 -1.9252
   21MOL    H81 8521   1.952   4.895   3.564  0.2943  0.6052 -1.1695
   21MOL    H82 8522   2.095   4.904   3.649  1.3335 -0.1543 -1.0133
   21MOL    H83 8523   2.112   4.835   3.393  0.9657 -0.7176  0.2648
   21MOL    H84 8524   2.231   4.945   3.453 -0.0705  1.0498 -0.0571
   21MOL    H85 8525   2.099   5.015   3.360 -0.4039  0.7809  1.8303
   21MOL    C86 8526   2.210   5.509   3.895 -0.0848  0.3348 -0.3567
   21MOL    C87 8527   2.144   5.475   4.036  0.4841  0.4263  0.5685
   21MOL    C88 8528   2.109   5.331   4.040  0.1913  0.3594  0.0884
   21MOL    O89 8529   1.988   5.306   4.063 -0.2531  0.0651  0.4412
   21MOL    O90 8530   2.213   5.252   4.048 -0.2970 -0.1954  0.1600
   21MOL    C91 8531   2.200   5.111   4.059 -0.4053  0.1314  0.5105
   21MOL    C92 8532   2.249   5.068   4.203 -0.4028  0.0678  0.4072
   21MOL    C93 8533   2.204   5.146   4.323 -0.1080 -0.1971  0.1589
   21MOL    C94 8534   2.266   5.098   4.451  0.8280 -0.0613 -0.4322
   21MOL    H95 8535   2.242   5.613   3.904 -0.4746  0.3579  0.8123
   21MOL    H96 8536   2.303   5.456   3.874  0.2774  0.5491  0.7101
   21MOL    H97 8537   2.049   5.529   4.038  0.4674  0.4488 -0.4083
   21MOL    H98 8538   2.255   5.069   3.975 -1.2157  1.4234 -0.6796
   21MOL    H99 8539   2.095   5.083   4.052 -0.9451  1.9052  1.2325
   21MOL   H100 8540   2.219   4.966   4.224  1.3148 -0.3558  0.8760
   21MOL   H101 8541   2.357   5.062   4.199 -0.5902 -4.8480  0.0404
   21MOL   H102 8542   2.096   5.156   4.327 -0.1496  0.3862 -1.8300
   21MOL   H103 8543   2.234   5.251   4.317 -1.3736  0.0704 -2.0363
   21MOL   H104 8544   2.204   5.013   4.480  2.1896 -1.2568 -0.9931
   21MOL   H105 8545   2.267   5.174   4.530  0.7871  1.0352 -1.4746
   21MOL   H106 8546   2.372   5.073   4.443  1.3578  1.7290  0.6194
   21MOL   C107 8547   2.232   5.532   4.151  0.4323  0.0954  0.2983
   21MOL   C108 8548   2.153   5.610   4.256  0.2604 -0.0551 -0.7021
   21MOL   C109 8549   2.061   5.524   4.341 -0.2988  0.1401 -0.2860
   21MOL   O110 8550   2.102   5.484   4.454 -0.1439 -0.1006  0.2375
   21MOL   O111 8551   1.940   5.498   4.297 -0.1673  0.2519 -0.1984
   21MOL   C112 8552   1.844   5.433   4.375  0.1204 -0.5496  0.0868
   21MOL   C113 8553   1.716   5.516   4.392 -0.6159  0.4220 -0.3320
   21MOL   C114 8554   1.677   5.587   4.261  0.4308 -0.6186 -0.1263
   21MOL   C115 8555   1.530   5.641   4.266  0.5747  0.1615  0.5343
   21MOL   H116 8556   2.306   5.604   4.115  0.1152  1.2029  1.8169
   21MOL   H117 8557   2.275   5.445   4.201  0.9040  0.2037  0.0861
   21MOL   H118 8558   2.088   5.684   4.209 -1.9764 -0.7311  1.1841
   21MOL   H119 8559   1.887   5.417   4.474 -0.7009  4.9603  1.5473
   21MOL   H120 8560   1.821   5.332   4.341 -0.1751 -0.0389 -1.2683
   21MOL   H121 8561   1.638   5.454   4.436  1.0784 -0.7450  1.1162
   21MOL   H122 8562   1.744   5.590   4.467  0.0035  0.7962 -0.9245
   21MOL   H123 8563   1.691   5.528   4.171 -0.3718 -0.7642 -0.1611
   21MOL   H124 8564   1.734   5.679   4.253  0.6655 -0.6464  1.1833
   21MOL   H125 8565   1.517   5.718   4.190 -0.2316 -0.3048  0.1939
   21MOL   H126 8566   1.509   5.693   4.359  0.8522 -0.9246  1.2145
   21MOL   H127 8567   1.450   5.569   4.249  1.3961 -0.2568 -1.7529
   21MOL   C128 8568   2.244   5.688   4.357 -0.1530  0.1300  0.6634
   21MOL   C129 8569   2.293   5.825   4.297 -0.1130  0.1742  0.2410
   21MOL   C130 8570   2.188   5.934   4.319  0.0289 -0.4766  0.1053
   21MOL   O131 8571   2.201   6.024   4.398  0.0160 -0.2811  0.1342
   21MOL   O132 8572   2.079   5.919   4.241  0.2486 -0.2812  0.5225
   21MOL   C133 8573   1.965   6.002   4.262  0.2275  0.1442 -0.8030
   21MOL   C134 8574   1.876   6.024   4.138  0.6054  0.1915 -0.0931
   21MOL   C135 8575   1.756   6.126   4.153  0.6790  0.4196 -0.0566
   21MOL   C136 8576   1.671   6.128   4.034 -0.1526  0.2354  0.3482
   21MOL   H137 8577   2.326   5.616   4.368  0.6645  0.4453 -2.6515
   21MOL   H138 8578   2.196   5.701   4.453 -0.9633  0.3724  0.2279
   21MOL   H139 8579   2.303   5.815   4.189 -0.8635  0.1662  0.1711
   21MOL   H140 8580   1.993   6.092   4.316 -2.6138  1.6251 -1.7143
   21MOL   H141 8581   1.898   5.957   4.335  2.1176  1.5005  1.8269
   21MOL   H142 8582   1.939   6.051   4.053 -1.4240 -1.5297 -2.2069
   21MOL   H143 8583   1.833   5.927   4.111  0.9638  0.2297 -0.8267
   21MOL   H144 8584   1.798   6.222   4.182  1.6182  0.2579 -0.8286
   21MOL   H145 8585   1.698   6.096   4.240  1.4681 -0.0954  0.2945
   21MOL   H146 8586   1.587   6.197   4.042  0.2845  1.0939 -2.1340
   21MOL   H147 8587   1.623   6.030   4.035 -0.5336  0.3632 -2.6745
   21MOL   H148 8588   1.729   6.137   3.942 -2.7094 -1.7608 -1.5273
   21MOL   C149 8589   2.436   5.861   4.346 -0.7836  0.1320 -0.4511
   21MOL   C150 8590   2.519   5.923   4.236 -0.1868 -0.5954 -0.3928
   21MOL   C151 8591   2.628   6.015   4.302  0.4788  0.3051 -0.3817
   21MOL   O152 8592   2.720   5.974   4.377 -0.3284 -0.3112 -0.1700
   21MOL   O153 8593   2.613   6.143   4.262  0.0478  0.4749  0.2829
   21MOL   C154 8594   2.726   6.226   4.278  0.1056 -0.3289  0.4886
   21MOL   C155 8595   2.695   6.348   4.190 -0.5087 -0.5918  0.6198
   21MOL   C156 8596   2.580   6.434   4.242 -0.0081 -0.4574  0.4591
   21MOL   C157 8597   2.550   6.536   4.135  0.3473  0.1138  0.9074
   21MOL   H158 8598   2.471   5.765   4.384  2.0793  1.3288  0.0716
   21MOL   H159 8599   2.420   5.926   4.432  3.1820  0.9899 -0.2570
   21MOL   H160 8600   2.452   5.983   4.175 -0.3996 -2.3157 -1.8921
   21MOL   H161 8601   2.816   6.169   4.252 -0.6625  0.2487 -3.8123
   21MOL   H162 8602   2.734   6.260   4.381  0.0881 -2.0974  1.0836
   21MOL   H163 8603   2.784   6.411   4.190 -1.0177  0.1637 -1.4061
   21MOL   H164 8604   2.682   6.316   4.087  0.7774  0.1791  0.2025
   21MOL   H165 8605   2.612   6.480   4.336  2.7161 -0.7592 -0.2913
   21MOL   H166 8606   2.490   6.374   4.256 -0.3720 -0.0647 -0.1340
   21MOL   H167 8607   2.634   6.604   4.116 -1.1283  1.7374  0.0563
   21MOL   H168 8608   2.461   6.594   4.156  0.2335  0.2247  0.1316
   21MOL   H169 8609   2.542   6.482   4.041 -0.0016  2.3640 -0.4028
   21MOL   C170 8610   2.583   5.814   4.138 -0.0786  0.6328 -0.0849
   21MOL   C171 8611   2.642   5.859   3.998  0.5965  0.3822 -0.3507
   21MOL   C172 8612   2.769   5.940   4.019 -0.3495 -0.2910  0.3420
   21MOL   O173 8613   2.779   6.061   3.986  0.7897  0.3252 -0.1622
   21MOL   O174 8614   2.866   5.869   4.084  0.6366  0.5059 -0.7301
   21MOL   C175 8615   2.976   5.932   4.147  0.1331 -0.3509  0.0564
   21MOL   C176 8616   3.065   5.827   4.216 -0.5549 -0.5921 -0.9561
   21MOL   C177 8617   2.997   5.754   4.330  0.2136 -0.3993 -0.1877
   21MOL   C178 8618   3.069   5.624   4.355 -0.2449  0.5003 -0.0388
   21MOL   H179 8619   2.495   5.755   4.113  0.6076 -0.3748 -0.1328
   21MOL   H180 8620   2.655   5.747   4.184 -1.8680 -0.5767  1.0438
   21MOL   H181 8621   2.572   5.923   3.943  0.9319  1.7597  0.7958
   21MOL   H182 8622   2.932   6.000   4.220  0.5800 -0.9824  0.9164
   21MOL   H183 8623   3.024   6.000   4.076 -3.1788  0.1750 -1.8139
   21MOL   H184 8624   3.109   5.763   4.138  0.6984 -0.4115 -0.4058
   21MOL   H185 8625   3.146   5.883   4.262 -0.5961 -1.0084 -0.3734
   21MOL   H186 8626   2.895   5.726   4.302  0.2862 -1.8497  0.9341
   21MOL   H187 8627   2.975   5.819   4.414  0.7504 -2.0263  1.2236
   21MOL   H188 8628   3.034   5.577   4.447 -0.7405  0.3512 -0.2958
   21MOL   H189 8629   3.176   5.634   4.374 -0.4202  1.3049  0.5617
   21MOL   H190 8630   3.048   5.564   4.266  0.1653  1.5264 -0.8312
   21MOL   C191 8631   2.682   5.742   3.906 -0.0081 -0.2563  0.4296
   21MOL   C192 8632   2.576   5.711   3.797 -0.4208  0.8825  0.1964
   21MOL   C193 8633   2.583   5.803   3.673  0.0112  0.3066  0.4207
   21MOL   O194 8634   2.671   5.896   3.657 -0.0290  0.3633 -0.3660
   21MOL   O195 8635   2.489   5.778   3.584  0.1682  0.0504  0.0398
   21MOL   C196 8636   2.479   5.863   3.463 -0.6108  0.1265  0.6252
   21MOL   C197 8637   2.554   5.811   3.337 -0.0736 -0.1032 -0.4522
   21MOL   C198 8638   2.711   5.818   3.346 -0.0374 -0.5185  0.1505
   21MOL   C199 8639   2.767   5.769   3.208 -0.7475 -0.0010 -0.2713
   21MOL   H200 8640   2.683   5.661   3.980  1.5611  0.0047  0.7071
   21MOL   H201 8641   2.780   5.763   3.864  0.5593 -0.5747  1.5530
   21MOL   H202 8642   2.480   5.737   3.839  0.9118  0.5112  3.6459
   21MOL   H203 8643   2.495   5.969   3.486 -2.0710  0.2612  1.0722
   21MOL   H204 8644   2.373   5.877   3.441 -0.3754  1.8302  0.4394
   21MOL   H205 8645   2.530   5.709   3.308  1.3804 -0.2806 -1.1049
   21MOL   H206 8646   2.517   5.863   3.249 -0.5856 -0.8044 -0.6507
   21MOL   H207 8647   2.748   5.761   3.432  0.0127  0.6291  0.8968
   21MOL   H208 8648   2.729   5.920   3.379 -1.2662 -0.5605  0.9905
   21MOL   H209 8649   2.722   5.673   3.183 -0.2706 -0.6315  1.2489
   21MOL   H210 8650   2.874   5.751   3.215 -0.2273  1.6270 -3.1197
   21MOL   H211 8651   2.755   5.845   3.130 -0.0057  0.1139 -0.2760
   21MOL   C212 8652   2.583   5.564   3.752  0.7711 -0.5267 -0.6844
   21MOL   C213 8653   2.689   5.536   3.640  1.0500 -0.4128 -0.9818
   21MOL   C214 8654   2.827   5.590   3.671  0.3759  0.6273 -0.3783
   21MOL   O215 8655   2.887   5.660   3.594  0.2356  0.1757 -0.6247
   21MOL   O216 8656   2.876   5.541   3.783 -0.7283 -0.3518  0.0486
   21MOL   C217 8657   3.004   5.581   3.834  0.5162  0.3604  0.0172
   21MOL   C218 8658   3.026   5.522   3.976 -0.4896 -0.5529  0.2602
   21MOL   C219 8659   3.037   5.364   3.964  0.0178  0.1102 -0.3724
   21MOL   C220 8660   3.048   5.302   4.107  0.3231  0.5927  1.0887
   21MOL   H221 8661   2.489   5.538   3.703 -0.3956 -1.0259  1.7335
   21MOL   H222 8662   2.584   5.514   3.849  2.8326  2.0789  0.6824
   21MOL   H223 8663   2.666   5.595   3.551  3.6272  0.5556 -1.0420
   21MOL   H224 8664   2.998   5.689   3.827 -1.1657  0.1677 -2.0435
   21MOL   H225 8665   3.085   5.545   3.770  0.7817 -2.0720  1.6330
   21MOL   H226 8666   3.119   5.560   4.019 -0.3328 -3.0744  2.2165
   21MOL   H227 8667   2.941   5.551   4.037  1.0047  0.2300  2.0212
   21MOL   H228 8668   3.120   5.336   3.900  2.9323  0.9497  2.8536
   21MOL   H229 8669   2.949   5.332   3.909 -1.3776  0.8180  1.3948
   21MOL   H230 8670   2.948   5.302   4.152  0.6791 -1.6581  1.9240
   21MOL   H231 8671   3.113   5.345   4.183  1.1393 -0.0525  0.7581
   21MOL   H232 8672   3.075   5.197   4.102  2.4031  1.0181  2.8559
   21MOL   C233 8673   2.681   5.393   3.592  0.2620  0.2643 -0.1031
   21MOL   C234 8674   2.750   5.281   3.684 -0.2727 -0.2606 -0.1919
   21MOL   C235 8675   2.647   5.246   3.785  0.4327 -0.3508 -0.2037
   21MOL   O236 8676   2.550   5.184   3.753  0.3183 -0.3595  0.1113
   21MOL   O237 8677   2.677   5.294   3.905  0.6815 -0.2665 -0.3158
   21MOL   C238 8678   2.594   5.254   4.014 -0.3600  0.3300  0.4413
   21MOL   C239 8679   2.612   5.358   4.120  0.1338  1.0669  0.3964
   21MOL   C240 8680   2.560   5.302   4.253 -0.8614 -0.1895  0.4432
   21MOL   C241 8681   2.587   5.385   4.377  0.1007  0.4838  0.3742
   21MOL   H242 8682   2.717   5.400   3.489  1.4361  4.2357  0.4978
   21MOL   H243 8683   2.578   5.361   3.578 -0.2039  1.7199 -0.0509
   21MOL   H244 8684   2.829   5.324   3.745 -0.9804  0.7525  0.0122
   21MOL   H245 8685   2.612   5.152   4.049 -0.7258  1.3392  3.6826
   21MOL   H246 8686   2.491   5.253   3.979 -0.4240 -0.4584  0.6474
   21MOL   H247 8687   2.719   5.373   4.138  0.4809  0.0711 -0.7384
   21MOL   H248 8688   2.569   5.454   4.093 -2.0107  0.5608  1.8976
   21MOL   H249 8689   2.595   5.199   4.268  1.4493  0.7046  1.4983
   21MOL   H250 8690   2.452   5.296   4.260 -0.7103 -2.5755  1.3049
   21MOL   H251 8691   2.551   5.341   4.470 -0.8299  0.3367 -0.0521
   21MOL   H252 8692   2.546   5.485   4.365 -1.0988  0.0881  1.1013
   21MOL   H253 8693   2.691   5.396   4.406 -0.4239  1.3516  2.0207
   21MOL   C254 8694   2.796   5.160   3.588 -0.1524  0.3484 -0.0607
   21MOL   C255 8695   2.897   5.055   3.643 -0.7773 -0.6764 -0.2567
   21MOL   C256 8696   2.843   4.967   3.756  0.0202  0.4152  0.2114
   21MOL   O257 8697   2.907   4.951   3.864 -0.0583 -0.3224  0.1007
   21MOL   O258 8698   2.719   4.913   3.719 -0.5048 -0.4493  0.6171
   21MOL   C259 8699   2.657   4.805   3.783 -0.5015  0.3349 -0.3189
   21MOL   C260 8700   2.515   4.855   3.822 -0.3020 -0.1781  0.3279
   21MOL   C261 8701   2.418   4.733   3.802 -0.2648 -0.0849 -0.2013
   21MOL   C262 8702   2.267   4.764   3.835  0.3174  0.2813 -1.0571
   21MOL   H263 8703   2.846   5.204   3.502 -1.1620 -1.4492 -1.6183
   21MOL   H264 8704   2.718   5.112   3.529 -3.5143  3.0256  2.0091
   21MOL   H265 8705   2.984   5.094   3.696 -1.3105 -0.4480  0.4610
   21MOL   H266 8706   2.722   4.761   3.858 -0.2630 -1.1037 -1.3558
   21MOL   H267 8707   2.651   4.731   3.704  0.1380 -0.1615  0.0962
   21MOL   H268 8708   2.510   4.892   3.924 -0.1840  1.2297 -0.1638
   21MOL   H269 8709   2.472   4.930   3.756 -1.6263 -0.6753  0.6108
   21MOL   H270 8710   2.468   4.652   3.854  0.2993  0.1279 -0.4063
   21MOL   H271 8711   2.437   4.718   3.695  2.3667  0.4499  0.1489
   21MOL   H272 8712   2.242   4.768   3.941  3.1304  0.9990 -0.3532
   21MOL   H273 8713   2.202   4.688   3.793 -0.8021  1.5763 -1.6932
   21MOL   H274 8714   2.237   4.862   3.797 -0.3386  0.4924 -0.0048
   21MOL   C275 8715   2.944   4.964   3.525  0.1322 -0.4248 -0.3224
   21MOL   C276 8716   3.033   5.028   3.413  0.2047  1.1292 -0.4034
   21MOL   C277 8717   3.148   5.093   3.489 -0.1602 -0.0983  0.5306
   21MOL   O278 8718   3.150   5.216   3.492 -0.4674 -0.2149  0.1583
   21MOL   O279 8719   3.244   5.008   3.520 -0.0301 -0.0417 -0.1669
   21MOL   C280 8720   3.362   5.053   3.567  0.7140 -0.1189 -0.0258
   21MOL   C281 8721   3.346   5.088   3.712  0.4879  0.2436  0.2534
   21MOL   C282 8722   3.288   4.971   3.796 -0.3487 -0.2778 -0.0990
   21MOL   C283 8723   3.295   4.977   3.951 -0.6056  0.5882  0.7591
   21MOL   H284 8724   2.859   4.915   3.479 -0.0596 -1.5057  1.1470
   21MOL   H285 8725   3.000   4.878   3.562  0.2661 -1.2225 -2.3084
   21MOL   H286 8726   2.964   5.098   3.366 -1.9710 -0.1367  0.8000
   21MOL   H287 8727   3.406   5.134   3.508  1.1563 -1.1829 -1.1802
   21MOL   H288 8728   3.436   4.973   3.567  0.2128 -0.6312  3.0562
   21MOL   H289 8729   3.442   5.109   3.759  1.3047 -0.7216 -0.9486
   21MOL   H290 8730   3.285   5.175   3.738 -0.9818 -0.4561 -0.8407
   21MOL   H291 8731   3.346   4.882   3.772 -0.8657 -0.3240 -1.2407
   21MOL   H292 8732   3.186   4.942   3.769 -0.5854 -0.8051  1.3076
   21MOL   H293 8733   3.249   4.883   3.984  1.6906 -1.0586 -0.5599
   21MOL   H294 8734   3.227   5.061   3.963 -2.1493 -0.0639 -2.6275
   21MOL   H295 8735   3.395   5.002   3.986 -0.3216  0.0021  0.3898
   21MOL   C296 8736   3.073   4.923   3.301  0.1959 -0.1708  0.2952
   21MOL   C297 8737   2.955   4.881   3.200  0.3681 -0.2323  0.5693
   21MOL   C298 8738   2.878   5.003   3.127  0.4703 -0.2269  0.8549
   21MOL   O299 8739   2.755   4.987   3.120 -0.1701 -0.0472  0.1147
   21MOL   O300 8740   2.942   5.105   3.084 -0.4642 -0.0702  0.2241
   21MOL   C301 8741   2.868   5.227   3.049  0.0798  0.9008  0.3827
   21MOL   C302 8742   2.870   5.328   3.163  0.3707  0.1902 -0.3632
   21MOL   C303 8743   3.012   5.381   3.198 -0.0442 -0.3717  0.3117
   21MOL   C304 8744   3.087   5.445   3.073  0.3865  0.0879 -1.3281
   21MOL   H305 8745   3.105   4.832   3.352  1.3351  0.1711  0.1856
   21MOL   H306 8746   3.155   4.973   3.251  1.0519  0.3885  2.2002
   21MOL   H307 8747   2.877   4.830   3.257  0.4534  0.0655  0.9519
   21MOL   H308 8748   2.763   5.201   3.039 -0.2458  1.5200  1.9778
   21MOL   H309 8749   2.907   5.276   2.959  0.7484  0.1698  0.2694
   21MOL   H310 8750   2.803   5.407   3.129 -0.0587 -1.5450 -3.8280
   21MOL   H311 8751   2.839   5.278   3.255  1.6062 -1.9354 -1.0682
   21MOL   H312 8752   3.077   5.298   3.229  0.1152 -0.0238  0.9049
   21MOL   H313 8753   3.015   5.449   3.283  1.5291  0.6080 -0.5116
   21MOL   H314 8754   3.187   5.485   3.091  0.1032  0.3462 -0.2770
   21MOL   H315 8755   3.047   5.544   3.055  0.3428  0.6899  1.7580
   21MOL   H316 8756   3.088   5.383   2.983  0.1900 -0.0300 -1.2490
   21MOL   C317 8757   3.014   4.783   3.096 -0.0518  0.1918 -0.1219
   21MOL   C318 8758   3.021   4.629   3.149 -0.0973 -1.0743 -0.0815
   21MOL   C319 8759   2.875   4.567   3.164 -0.4589  0.5145  0.7423
   21MOL   O320 8760   2.851   4.495   3.261  0.1922 -0.5191  0.1777
   21MOL   O321 8761   2.786   4.605   3.073  0.4910  0.3957 -0.2465
   21MOL   C322 8762   2.647   4.566   3.092  0.3768  0.2339 -0.2699
   21MOL   C323 8763   2.562   4.674   3.173  0.4821 -0.0412 -0.4685
   21MOL   C324 8764   2.605   4.684   3.314  0.4161 -0.4715 -0.5663
   21MOL   C325 8765   2.544   4.805   3.383  1.0524 -0.0754  0.9565
   21MOL   H326 8766   3.112   4.819   3.062 -0.0138 -0.6924 -0.9964
   21MOL   H327 8767   2.965   4.791   2.999 -0.2918  2.8128  0.1977
   21MOL   H328 8768   3.060   4.632   3.250 -2.1589 -3.2217  0.8208
   21MOL   H329 8769   2.638   4.468   3.140  0.8638  0.3465  0.0544
   21MOL   H330 8770   2.609   4.560   2.990 -1.9602 -0.7141  0.6243
   21MOL   H331 8771   2.574   4.769   3.121 -1.4818  0.5268  0.0844
   21MOL   H332 8772   2.461   4.633   3.167  1.4587 -3.6943  4.4729
   21MOL   H333 8773   2.711   4.678   3.337 -0.0402  0.6224  1.9959
   21MOL   H334 8774   2.574   4.593   3.365 -0.1644 -1.0485 -1.9177
   21MOL   H335 8775   2.549   4.893   3.320 -0.6670 -0.9886 -0.5027
   21MOL   H336 8776   2.591   4.829   3.478  1.6886  1.8831  0.1548
   21MOL   H337 8777   2.437   4.787   3.395  0.7572  1.2542  0.3055
   21MOL   C338 8778   3.117   4.543   3.060  0.3880 -0.0823 -0.0920
   21MOL   C339 8779   3.265   4.592   3.054  0.4652 -0.1870  0.1047
   21MOL   C340 8780   3.331   4.609   3.191  0.6203 -0.9977 -1.6089
   21MOL   O341 8781   3.341   4.721   3.239  0.4730  0.6396  0.4730
   21MOL   O342 8782   3.376   4.504   3.248  0.3119 -0.0997 -0.4004
   21MOL   C343 8783   3.454   4.509   3.366 -0.1492 -0.1909  0.0131
   21MOL   C344 8784   3.597   4.559   3.341  0.6741 -0.1050  0.4567
   21MOL   C345 8785   3.666   4.582   3.481  0.2982  0.2207 -0.6398
   21MOL   C346 8786   3.811   4.601   3.459 -0.3456 -0.2017  0.1063
   21MOL   H347 8787   3.068   4.538   2.963  0.6649  0.2060 -0.2435
   21MOL   H348 8788   3.121   4.442   3.102 -0.9906 -0.2624 -0.3736
   21MOL   H349 8789   3.262   4.688   3.002 -1.2769 -1.1147 -1.5823
   21MOL   H350 8790   3.453   4.408   3.406 -0.3640 -0.4023 -0.5225
   21MOL   H351 8791   3.411   4.578   3.439  1.1086 -1.6589  2.1907
   21MOL   H352 8792   3.658   4.491   3.281  1.5343  2.1633 -1.3111
   21MOL   H353 8793   3.596   4.651   3.283 -2.2946 -1.0666 -1.1118
   21MOL   H354 8794   3.656   4.488   3.535  1.1205  1.2314  1.3206
   21MOL   H355 8795   3.619   4.654   3.548 -2.2231 -1.7116 -0.2362
   21MOL   H356 8796   3.857   4.646   3.547 -1.3551  2.0398 -0.4835
   21MOL   H357 8797   3.831   4.667   3.375  0.1525  0.2986  0.6114
   21MOL   H358 8798   3.855   4.503   3.441 -1.5913 -0.6510 -0.5538
   21MOL   C359 8799   3.361   4.528   2.949  0.6936 -0.4603 -0.9060
   21MOL   C360 8800   3.502   4.583   2.944 -0.2478  0.0546  0.2058
   21MOL   C361 8801   3.610   4.475   2.907 -0.7335 -0.1744 -0.1480
   21MOL   O362 8802   3.661   4.410   2.997  0.7388  0.4792 -0.1792
   21MOL   O363 8803   3.632   4.472   2.778 -0.4739  0.5131 -0.6318
   21MOL   C364 8804   3.724   4.386   2.713  0.2736 -0.1600  0.2731
   21MOL   C365 8805   3.786   4.439   2.585 -0.0832  0.2263  0.2463
   21MOL   C366 8806   3.885   4.554   2.614 -0.6210 -0.0157  0.1261
   21MOL   C367 8807   3.972   4.585   2.487  0.5700 -0.0460 -0.1875
   21MOL   H368 8808   3.327   4.514   2.846 -0.9010 -4.1099  0.0464
   21MOL   H369 8809   3.371   4.425   2.983  2.4141 -0.4583 -1.3710
   21MOL   H370 8810   3.543   4.605   3.043 -0.0738 -2.3143  0.6961
   21MOL   H371 8811   3.669   4.297   2.686  0.4080 -0.0069 -0.5249
   21MOL   H372 8812   3.812   4.363   2.773  0.0804 -1.3441  0.1011
   21MOL   H373 8813   3.830   4.350   2.539 -2.4218 -1.5461  1.2863
   21MOL   H374 8814   3.708   4.472   2.517  0.9522  0.8941 -0.6370
   21MOL   H375 8815   3.959   4.522   2.687 -1.4160 -3.3809 -0.4675
   21MOL   H376 8816   3.834   4.643   2.652  0.1932  0.9564 -1.0331
   21MOL   H377 8817   3.915   4.641   2.413  0.7739  1.5759  0.8553
   21MOL   H378 8818   4.003   4.492   2.440 -1.7889 -0.7429 -0.4332
   21MOL   H379 8819   4.056   4.653   2.502 -1.8422  2.9084  0.3208
   21MOL   C380 8820   3.513   4.717   2.859  0.1098  0.8049 -0.0864
   21MOL   C381 8821   3.655   4.784   2.851  0.2600  1.1055 -0.4145
   21MOL   C382 8822   3.659   4.894   2.745 -0.3055 -0.3049  0.9945
   21MOL   O383 8823   3.741   4.888   2.645 -0.2183 -0.6171  0.0088
   21MOL   O384 8824   3.577   4.990   2.777 -0.4955 -0.9325  0.3161
   21MOL   C385 8825   3.545   5.099   2.689  0.0414 -0.1143 -0.2649
   21MOL   C386 8826   3.436   5.057   2.595  0.3097  0.6291  0.0560
   21MOL   C387 8827   3.431   5.135   2.469 -0.1945 -0.5622 -0.0943
   21MOL   C388 8828   3.309   5.096   2.376  0.2892 -0.0836  0.1635
   21MOL   H389 8829   3.445   4.792   2.900  0.5182  0.2049  1.7177
   21MOL   H390 8830   3.465   4.704   2.761 -1.4395 -0.3333  0.7951
   21MOL   H391 8831   3.726   4.708   2.818  0.9714  1.0851  1.1589
   21MOL   H392 8832   3.635   5.128   2.635  0.3951  0.2753  0.5190
   21MOL   H393 8833   3.513   5.187   2.744 -0.2601 -1.5743  1.9951
   21MOL   H394 8834   3.446   4.954   2.562  0.1674  1.5005 -2.8269
   21MOL   H395 8835   3.347   5.076   2.655  0.2694  0.4902  0.0390
   21MOL   H396 8836   3.522   5.120   2.411 -0.8070  0.9486 -1.4881
   21MOL   H397 8837   3.436   5.243   2.486  2.0111 -0.5503 -0.6863
   21MOL   H398 8838   3.328   5.128   2.274  0.5174 -0.6220  0.0375
   21MOL   H399 8839   3.214   5.144   2.397  0.2085 -0.2255  0.1198
   21MOL   H400 8840   3.301   4.987   2.378  0.1622 -0.0892 -0.7559
   21MOL   C401 8841   3.715   4.832   2.989 -0.1387  0.5060 -0.3826
   21MOL   C402 8842   3.864   4.860   2.982 -0.3176  1.2648  0.3420
   21MOL   C403 8843   3.934   4.904   3.108 -0.3861  0.3422 -0.0407
   21MOL   O404 8844   4.046   4.867   3.141 -0.0025  0.0436  0.1032
   21MOL   O405 8845   3.856   4.990   3.176  0.1102 -0.2094  0.3864
   21MOL   C406 8846   3.919   5.056   3.288  0.2569  1.0471 -0.2589
   21MOL   C407 8847   3.824   5.109   3.397  0.5774  0.4907  0.0731
   21MOL   C408 8848   3.759   5.243   3.352 -0.4115  0.2183 -0.4649
   21MOL   C409 8849   3.703   5.318   3.474  0.8132 -0.0351  0.2265
   21MOL   H410 8850   3.698   4.755   3.064  1.4631 -1.1548 -1.6711
   21MOL   H411 8851   3.663   4.921   3.023 -0.2334  0.0700  0.6144
   21MOL   H412 8852   3.870   4.946   2.916 -1.9709  0.5388 -0.8045
   21MOL   H413 8853   3.971   5.143   3.247 -1.7431  1.9515 -0.9644
   21MOL   H414 8854   3.986   4.980   3.329 -0.8010  1.3319  2.0648
   21MOL   H415 8855   3.755   5.024   3.405  0.8091  0.4027  1.1917
   21MOL   H416 8856   3.875   5.104   3.493 -0.7007  0.1266  0.7446
   21MOL   H417 8857   3.674   5.223   3.286 -0.7391 -2.7759  0.7826
   21MOL   H418 8858   3.828   5.309   3.300  1.0639 -0.4764  0.5624
   21MOL   H419 8859   3.636   5.255   3.531  1.1509 -0.2831  0.3492
   21MOL   H420 8860   3.652   5.411   3.449 -0.8830 -1.1799 -0.6370
   21MOL   H421 8861   3.779   5.338   3.550  0.6018 -1.2156  0.7507
   21MOL   H422 8862   3.915   4.786   2.920 -1.7711  1.5893 -1.2809
   22MOL     C1 8863   5.953   7.580   4.093 -0.3078  0.2156 -0.4299
   22MOL     C2 8864   5.824   7.659   4.132 -0.6122 -0.6289 -0.2292
   22MOL     C3 8865   5.854   7.791   4.213  0.1328 -0.0556 -0.5444
   22MOL     O4 8866   5.969   7.836   4.225 -0.2596  0.6535 -0.5395
   22MOL     O5 8867   5.749   7.839   4.264  0.0773  0.0875 -0.2397
   22MOL     C6 8868   5.744   0.097   4.349  0.0803 -0.4128  0.3210
   22MOL     C7 8869   5.696   0.070   4.493  0.2956  0.0163  0.0157
   22MOL     C8 8870   5.729   0.196   4.583  0.5090 -0.1560 -0.1042
   22MOL     C9 8871   5.657   0.178   4.713 -0.2166 -0.7488  0.4920
   22MOL    H10 8872   6.040   7.603   4.154  0.5301  0.7385 -1.7818
   22MOL    H11 8873   5.944   7.471   4.087 -0.1620  0.2764 -2.2221
   22MOL    H12 8874   5.762   7.592   4.193  1.7038 -0.8689  1.9557
   22MOL    H13 8875   5.681   0.170   4.298  1.5088  0.1506 -0.6876
   22MOL    H14 8876   5.846   0.136   4.344  0.7832 -2.0744  1.2231
   22MOL    H15 8877   5.590   0.048   4.487  0.3847 -1.5262  3.0778
   22MOL    H16 8878   5.745   7.834   4.534  2.0516  1.3570  0.8881
   22MOL    H17 8879   5.687   0.286   4.539  0.9320 -0.0224 -0.2359
   22MOL    H18 8880   5.836   0.211   4.594  0.4656  1.2745 -1.5158
   22MOL    H19 8881   5.550   0.159   4.698  0.0906 -1.9049 -0.3474
   22MOL    H20 8882   5.661   0.261   4.783  1.6944 -2.1005  2.0121
   22MOL    H21 8883   5.696   0.092   4.767  2.2431  0.0658  0.0484
   22MOL    H22 8884   5.994   7.599   3.993  0.6242  0.1723 -0.0592
   22MOL    C23 8885   5.743   7.694   4.005 -0.0081 -0.0117  1.3125
   22MOL    C24 8886   5.594   7.716   4.029 -0.3411 -0.3928 -0.0811
   22MOL    C25 8887   5.528   7.777   3.905 -0.1664 -0.3677  0.4641
   22MOL    O26 8888   5.503   0.042   3.901 -0.3460 -0.1822 -0.0760
   22MOL    O27 8889   5.497   7.687   3.812  0.3457  0.1738 -0.1425
   22MOL    C28 8890   5.423   7.724   3.696  0.1675  0.0146 -0.3656
   22MOL    C29 8891   5.486   7.666   3.572 -0.3328 -1.0834  0.4254
   22MOL    C30 8892   5.413   7.712   3.447 -0.4432 -0.2071 -0.0947
   22MOL    C31 8893   5.457   7.640   3.328 -0.3454  0.0137 -0.3826
   22MOL    H32 8894   5.755   7.614   3.932  0.3825  1.3534 -0.1561
   22MOL    H33 8895   5.793   7.780   3.961 -0.7648 -0.8992 -1.3542
   22MOL    H34 8896   5.574   7.797   4.099 -0.7529 -1.3680  0.9506
   22MOL    H35 8897   5.426   7.833   3.686 -1.2127  0.1843  0.9156
   22MOL    H36 8898   5.320   7.689   3.708  0.0465  1.0393  1.7242
   22MOL    H37 8899   5.592   7.683   3.555 -0.1890 -3.8511 -1.8583
   22MOL    H38 8900   5.487   7.557   3.577  0.8275 -1.0339  1.5144
   22MOL    H39 8901   5.429   7.820   3.440  1.2866 -0.5401 -1.5867
   22MOL    H40 8902   5.306   7.700   3.469 -0.3876  0.0303  0.3041
   22MOL    H41 8903   5.562   7.660   3.307 -0.7076  1.4111 -0.9298
   22MOL    H42 8904   5.405   7.669   3.237  1.5870  0.7371 -1.2872
   22MOL    H43 8905   5.441   7.533   3.337 -2.0766  0.1155 -1.9844
   22MOL    C44 8906   5.512   7.587   4.068 -0.3532 -0.4923 -0.1546
   22MOL    C45 8907   5.355   7.595   4.089 -0.1104 -0.2641  0.3972
   22MOL    C46 8908   5.285   7.469   4.022  0.4071 -0.9510 -0.1484
   22MOL    O47 8909   5.207   7.484   3.924 -0.0973  0.0775 -0.1827
   22MOL    O48 8910   5.315   7.348   4.085  0.0442 -0.6747  0.4517
   22MOL    C49 8911   5.239   7.236   4.044  0.4578 -0.2105 -0.5489
   22MOL    C50 8912   5.302   7.100   4.076  0.5023  1.3154  1.0614
   22MOL    C51 8913   5.397   7.051   3.962 -0.5587 -0.0978  0.1099
   22MOL    C52 8914   5.462   6.919   3.998  0.1382  0.0168  0.1604
   22MOL    H53 8915   5.560   7.548   4.157 -2.4249 -1.3921  0.5960
   22MOL    H54 8916   5.524   7.518   3.984 -0.0825  2.3189 -2.5210
   22MOL    H55 8917   5.323   7.679   4.028 -1.9577  0.7763  2.7563
   22MOL    H56 8918   5.223   7.229   3.937  2.2340  0.9408 -0.8967
   22MOL    H57 8919   5.145   7.259   4.094  1.4007 -0.3451  1.3371
   22MOL    H58 8920   5.344   7.098   4.177 -2.2202  1.0039  2.2657
   22MOL    H59 8921   5.219   7.032   4.096  0.8309  0.7044  0.3398
   22MOL    H60 8922   5.475   7.124   3.942 -0.9132  0.3696  0.4026
   22MOL    H61 8923   5.342   7.042   3.868  0.4334 -1.9219 -0.3085
   22MOL    H62 8924   5.506   6.923   4.098  0.9113  1.2270 -0.2099
   22MOL    H63 8925   5.539   6.895   3.925 -1.7300 -1.4182 -1.3559
   22MOL    H64 8926   5.392   6.836   3.994 -0.6312  0.6857 -0.3017
   22MOL    C65 8927   5.309   7.612   4.234  0.6337 -0.3049 -0.0418
   22MOL    C66 8928   5.362   7.735   4.315 -0.5345  0.3738 -0.3218
   22MOL    C67 8929   5.337   0.020   4.246  0.2539  0.0893 -0.3218
   22MOL    O68 8930   5.274   0.036   4.143 -0.3540 -0.2764 -0.0038
   22MOL    O69 8931   5.381   0.123   4.328 -0.0120 -0.4430  0.8408
   22MOL    C70 8932   5.364   0.257   4.293 -0.2558 -0.0220 -0.2144
   22MOL    C71 8933   5.233   0.323   4.315  0.1113  0.5310  0.6361
   22MOL    C72 8934   5.200   0.350   4.464 -1.1598  0.5273  0.9232
   22MOL    C73 8935   5.060   0.412   4.477  0.6072  0.2040  0.1756
   22MOL    H74 8936   5.315   7.516   4.285  2.2207  0.0087  0.4158
   22MOL    H75 8937   5.204   7.637   4.222  0.3469 -1.8920 -0.9276
   22MOL    H76 8938   5.471   7.730   4.314 -0.3930  1.8595  2.4241
   22MOL    H77 8939   5.387   0.268   4.186  1.7340  0.4723  0.2315
   22MOL    H78 8940   5.447   0.316   4.332  1.7814 -0.4325 -3.7127
   22MOL    H79 8941   5.244   0.417   4.263  0.0870 -0.1737 -0.6563
   22MOL    H80 8942   5.155   0.264   4.266  0.6328 -1.0947  1.7197
   22MOL    H81 8943   5.263   0.421   4.516 -0.8163  0.6193  0.3913
   22MOL    H82 8944   5.199   0.254   4.516  2.9269 -0.2689 -0.2927
   22MOL    H83 8945   5.059   0.521   4.469  0.2568  0.1374 -0.6640
   22MOL    H84 8946   5.020   0.386   4.576  2.0044 -1.0388  0.4281
   22MOL    H85 8947   4.987   0.360   4.415  0.8040  2.6257 -2.1860
   22MOL    C86 8948   5.309   7.739   4.462 -1.1463  0.0730 -0.2980
   22MOL    C87 8949   5.322   7.617   4.552  0.1871 -0.2486  0.1497
   22MOL    C88 8950   5.467   7.556   4.542  0.1202 -0.0310 -0.5154
   22MOL    O89 8951   5.564   7.632   4.511  0.7318 -0.4995  0.5832
   22MOL    O90 8952   5.461   7.421   4.564  0.3552  0.2664 -0.4524
   22MOL    C91 8953   5.564   7.331   4.521 -0.3613 -0.1575  0.9431
   22MOL    C92 8954   5.523   7.283   4.384  0.2480  0.1116  0.7765
   22MOL    C93 8955   5.588   7.152   4.329 -0.3227  0.0412 -0.0400
   22MOL    C94 8956   5.739   7.164   4.333  0.0353 -0.4174  0.2322
   22MOL    H95 8957   5.203   7.763   4.463 -1.2713 -0.4244 -1.0715
   22MOL    H96 8958   5.366   7.818   4.510 -0.5426 -0.1339 -0.6625
   22MOL    H97 8959   5.247   7.549   4.512 -0.4163  0.4709  0.0498
   22MOL    H98 8960   5.569   7.243   4.585  0.5287 -0.5469  0.3482
   22MOL    H99 8961   5.662   7.377   4.535  0.1129 -0.9535  0.2719
   22MOL   H100 8962   5.417   7.259   4.381  0.2969  0.1189 -3.5811
   22MOL   H101 8963   5.537   7.363   4.312 -1.3881 -0.0430  0.2598
   22MOL   H102 8964   5.563   7.143   4.223 -0.6404  1.9648 -0.1592
   22MOL   H103 8965   5.559   7.064   4.385  0.2458  0.3766  0.7868
   22MOL   H104 8966   5.767   7.260   4.290 -2.0606 -0.4223 -1.2458
   22MOL   H105 8967   5.788   7.092   4.267  1.2290  0.9740 -0.4274
   22MOL   H106 8968   5.777   7.140   4.432  0.8010 -2.0769 -0.4530
   22MOL   C107 8969   5.282   7.643   4.696  0.7876 -0.0807 -0.5624
   22MOL   C108 8970   5.147   7.705   4.726 -0.1706 -0.3521 -0.1079
   22MOL   C109 8971   5.034   7.611   4.702  0.1892  0.6334 -0.1641
   22MOL   O110 8972   4.970   7.620   4.595  0.9956  0.0379  0.4050
   22MOL   O111 8973   5.014   7.517   4.796  0.3790  0.2217  0.4129
   22MOL   C112 8974   4.899   7.438   4.809 -0.0893  0.2801 -0.0306
   22MOL   C113 8975   4.867   7.408   4.956 -0.2824 -0.3554 -0.3197
   22MOL   C114 8976   4.833   7.533   5.035  0.5049 -0.0771 -1.3027
   22MOL   C115 8977   4.753   7.518   5.167 -0.0473  0.1947  0.0429
   22MOL   H116 8978   5.353   7.704   4.753 -0.9698  0.1171  1.4905
   22MOL   H117 8979   5.284   7.544   4.740  0.2887 -0.2651 -0.9588
   22MOL   H118 8980   5.111   7.784   4.660  2.6836  0.4318 -0.7879
   22MOL   H119 8981   4.909   7.344   4.755 -2.3413 -0.6003  1.0000
   22MOL   H120 8982   4.816   7.494   4.766 -0.2932  0.9466  1.2175
   22MOL   H121 8983   4.786   7.335   4.959  0.2873 -0.9689  0.3214
   22MOL   H122 8984   4.952   7.363   5.008  2.4780  3.3434 -1.3997
   22MOL   H123 8985   4.798   7.613   4.969  1.2279  0.8175 -0.6196
   22MOL   H124 8986   4.936   7.565   5.052 -0.5172  1.8276  1.7350
   22MOL   H125 8987   4.645   7.530   5.160 -0.0568 -0.0468 -0.2102
   22MOL   H126 8988   4.785   7.594   5.239 -1.5300  1.4278 -0.5608
   22MOL   H127 8989   4.773   7.419   5.206 -0.9762  0.6861  1.8398
   22MOL   C128 8990   5.145   7.747   4.877  0.1353 -0.0771  0.4558
   22MOL   C129 8991   5.194   0.033   4.905  0.3705  0.2867 -0.4689
   22MOL   C130 8992   5.111   0.140   4.826 -0.1883  0.4291  0.6164
   22MOL   O131 8993   5.169   0.227   4.768  0.2066 -0.0098  0.0017
   22MOL   O132 8994   4.977   0.126   4.832 -0.1241 -0.1532 -0.3569
   22MOL   C133 8995   4.887   0.229   4.788  0.4481 -0.0618  0.4831
   22MOL   C134 8996   4.745   0.193   4.814 -0.4728  0.6080 -0.2955
   22MOL   C135 8997   4.701   0.066   4.735  0.2869  0.1724  0.6489
   22MOL   C136 8998   4.576   7.841   4.792  0.0859 -0.4574  0.2768
   22MOL   H137 8999   5.199   7.682   4.946 -0.3071  1.8309  2.6712
   22MOL   H138 9000   5.047   7.746   4.925 -0.7035  0.0086 -1.2136
   22MOL   H139 9001   5.293   0.041   4.861  0.8789 -1.1574  0.3717
   22MOL   H140 9002   4.900   0.251   4.682  2.1033  3.5063  1.3379
   22MOL   H141 9003   4.900   0.323   4.842 -2.1370  0.2432  0.6620
   22MOL   H142 9004   4.741   0.162   4.919  2.1185 -0.4652 -0.4842
   22MOL   H143 9005   4.685   0.284   4.815 -2.4075 -0.6279  0.9370
   22MOL   H144 9006   4.779   7.843   4.722  0.9251  0.9177  0.0773
   22MOL   H145 9007   4.666   0.098   4.637  0.4291 -0.6957  0.3043
   22MOL   H146 9008   4.480   0.038   4.779 -0.4310 -2.2089 -3.2460
   22MOL   H147 9009   4.583   7.816   4.897  0.4801 -3.6462 -0.4635
   22MOL   H148 9010   4.571   7.746   4.738 -1.9400 -0.6585  0.7935
   22MOL   C149 9011   5.202   0.066   5.060  1.2162 -0.0576 -0.2854
   22MOL   C150 9012   5.258   0.201   5.093 -0.7241  0.2254  0.1749
   22MOL   C151 9013   5.227   0.250   5.234 -0.5530  0.1974  0.0766
   22MOL   O152 9014   5.142   0.339   5.244  0.5327 -0.4242 -0.3508
   22MOL   O153 9015   5.281   0.195   5.333 -0.5526  0.4513 -0.6851
   22MOL   C154 9016   5.250   0.245   5.453 -0.4764 -0.4529  0.2738
   22MOL   C155 9017   5.329   0.376   5.498  0.7270 -0.0672 -0.2057
   22MOL   C156 9018   5.239   0.469   5.583 -0.4956  0.6291 -0.3434
   22MOL   C157 9019   5.232   0.426   5.730  0.0968  0.2828 -0.2210
   22MOL   H158 9020   5.245   7.831   5.106 -0.2849 -0.9183 -0.5106
   22MOL   H159 9021   5.099   0.065   5.095  0.4412  1.2609 -2.3785
   22MOL   H160 9022   5.207   0.277   5.034  1.2281  2.6220  1.4736
   22MOL   H161 9023   5.264   0.160   5.519 -1.9083 -1.8669 -1.1837
   22MOL   H162 9024   5.144   0.259   5.475 -1.1356 -4.3716 -0.0717
   22MOL   H163 9025   5.428   0.368   5.542  1.0983 -0.9778 -1.1948
   22MOL   H164 9026   5.341   0.435   5.407 -2.2590  0.2649 -0.4526
   22MOL   H165 9027   5.137   0.463   5.545 -0.2568 -0.4607 -0.8284
   22MOL   H166 9028   5.273   0.572   5.582 -1.2643  0.9599  2.9013
   22MOL   H167 9029   5.194   0.324   5.735  0.9958 -0.0659 -0.4603
   22MOL   H168 9030   5.163   0.483   5.792  0.1758 -0.3001  0.4126
   22MOL   H169 9031   5.334   0.437   5.768  0.4076 -0.7213 -0.7533
   22MOL   C170 9032   5.405   0.210   5.047 -0.3282  0.6676 -0.3917
   22MOL   C171 9033   5.526   0.154   5.135  0.2675 -0.4123  0.0669
   22MOL   C172 9034   5.523   0.005   5.139  0.1750  0.2795 -0.3860
   22MOL   O173 9035   5.478   7.794   5.234  0.1232  0.4252  0.3748
   22MOL   O174 9036   5.553   7.800   5.026  0.5273 -0.6480  0.4311
   22MOL   C175 9037   5.553   7.657   5.018  0.0935  0.1224  0.0101
   22MOL   C176 9038   5.630   7.627   4.887 -0.1997  0.5208 -0.2685
   22MOL   C177 9039   5.617   7.474   4.849  0.0825 -0.5928  1.1154
   22MOL   C178 9040   5.678   7.371   4.941 -0.0845  0.4986  0.2302
   22MOL   H179 9041   5.414   0.318   5.058  2.1021  0.1945  2.8303
   22MOL   H180 9042   5.414   0.193   4.939 -1.2277  0.8914 -0.5087
   22MOL   H181 9043   5.505   0.171   5.241  1.9059  0.0290  0.3242
   22MOL   H182 9044   5.450   7.626   5.006  0.3436 -0.2251 -1.3103
   22MOL   H183 9045   5.589   7.594   5.099 -0.0239 -0.8141 -0.6577
   22MOL   H184 9046   5.571   7.680   4.812 -0.4945  0.6379  0.0394
   22MOL   H185 9047   5.734   7.657   4.890 -0.3199  1.5052 -3.6827
   22MOL   H186 9048   5.675   7.475   4.757  0.1436  0.0786  1.1586
   22MOL   H187 9049   5.514   7.449   4.824  0.7371 -2.8822  0.6496
   22MOL   H188 9050   5.781   7.394   4.967 -0.4158  3.4779 -0.9158
   22MOL   H189 9051   5.674   7.275   4.888  2.7183  0.5583 -0.1530
   22MOL   H190 9052   5.603   7.368   5.020 -0.6246  2.1435 -0.2067
   22MOL   C191 9053   5.671   0.196   5.088  0.4085 -0.5046  0.0589
   22MOL   C192 9054   5.703   0.351   5.076  0.5071  0.0931  0.6232
   22MOL   C193 9055   5.653   0.430   5.194 -0.4898  0.0802  1.0870
   22MOL   O194 9056   5.541   0.474   5.198  0.4376 -0.1861 -0.3438
   22MOL   O195 9057   5.733   0.420   5.301 -0.8294 -0.2282  0.2088
   22MOL   C196 9058   5.706   0.484   5.422 -0.7328 -0.5658 -0.0195
   22MOL   C197 9059   5.818   0.582   5.467 -0.0136  0.2960  0.4439
   22MOL   C198 9060   5.806   0.724   5.385  0.0154 -0.1660 -0.3425
   22MOL   C199 9061   5.910   0.830   5.422 -0.1009  0.6561  0.4500
   22MOL   H200 9062   5.685   0.151   4.990  0.9113 -0.0758 -0.0719
   22MOL   H201 9063   5.750   0.162   5.156  1.2099  0.5568 -0.3332
   22MOL   H202 9064   5.649   0.388   4.989  0.9048  1.1133  0.7956
   22MOL   H203 9065   5.696   0.391   5.478  1.7654 -2.6481 -2.8370
   22MOL   H204 9066   5.612   0.539   5.415 -1.5945 -2.0951 -0.7151
   22MOL   H205 9067   5.814   0.600   5.574 -1.1025 -0.3781  0.5249
   22MOL   H206 9068   5.919   0.546   5.446  0.6321  1.4610  1.5095
   22MOL   H207 9069   5.705   0.762   5.400 -0.9537 -2.8144  0.1097
   22MOL   H208 9070   5.811   0.714   5.276 -0.1136 -0.6812 -0.3003
   22MOL   H209 9071   6.003   0.781   5.394  0.1887  0.2467  2.0915
   22MOL   H210 9072   5.923   0.869   5.523 -1.0633 -1.4504  1.4128
   22MOL   H211 9073   5.890   0.910   5.350 -0.4274  0.7816  0.6828
   22MOL   C212 9074   5.856   0.372   5.057  0.5073 -0.2500 -0.1843
   22MOL   C213 9075   5.899   0.511   5.015  0.4936  0.4910 -0.2168
   22MOL   C214 9076   6.045   0.544   5.050  0.2530  0.1370  0.2824
   22MOL   O215 9077   6.056   0.623   5.144 -0.4203 -0.5448 -0.6267
   22MOL   O216 9078   6.139   0.488   4.978 -0.3961  0.1790  0.4170
   22MOL   C217 9079   6.277   0.493   5.012 -0.1768  0.1082  0.2028
   22MOL   C218 9080   6.345   0.610   4.937 -0.8541 -0.8302  0.1430
   22MOL   C219 9081   6.459   0.680   5.018  0.3535 -0.3330 -0.2147
   22MOL   C220 9082   6.571   0.581   5.052  0.2842 -0.0701  0.5067
   22MOL   H221 9083   5.897   0.296   4.990 -0.1925  0.5740 -1.5794
   22MOL   H222 9084   5.905   0.349   5.151  2.9756  0.1242 -1.3364
   22MOL   H223 9085   5.842   0.579   5.079  0.9847  0.0529  0.6909
   22MOL   H224 9086   6.332   0.399   5.004  1.8141  1.1001  1.8228
   22MOL   H225 9087   6.279   0.514   5.119  0.5770  1.3926 -0.0467
   22MOL   H226 9088   6.393   0.572   4.848 -0.0883 -2.2793  1.1559
   22MOL   H227 9089   6.278   0.688   4.900 -1.0293 -0.7304  0.6555
   22MOL   H228 9090   6.414   0.716   5.110 -0.3922 -2.1311  0.1345
   22MOL   H229 9091   6.492   0.773   4.970 -0.4013 -0.3905 -0.8438
   22MOL   H230 9092   6.530   0.491   5.098  1.6607 -1.0034 -0.0283
   22MOL   H231 9093   6.643   0.626   5.120  0.0367  0.8463  0.1688
   22MOL   H232 9094   6.628   0.543   4.967 -0.1353  1.5757 -0.5367
   22MOL   C233 9095   5.870   0.556   4.871  0.3810  0.0374  0.4695
   22MOL   C234 9096   5.871   0.714   4.854 -0.2643 -0.3242  0.3540
   22MOL   C235 9097   5.901   0.754   4.710 -0.0715  0.5460  0.1167
   22MOL   O236 9098   6.004   0.816   4.691  0.5765 -0.5433  0.3158
   22MOL   O237 9099   5.794   0.722   4.620 -0.4450  0.4985 -0.4257
   22MOL   C238 9100   5.797   0.776   4.496  0.3251  0.4336 -0.0264
   22MOL   C239 9101   5.850   0.664   4.396  0.0165 -0.8493 -0.0762
   22MOL   C240 9102   5.743   0.572   4.347  0.3549  0.6312  0.6213
   22MOL   C241 9103   5.800   0.443   4.279  0.0108  0.3943 -0.3296
   22MOL   H242 9104   5.767   0.523   4.854  0.1344  1.9161 -1.8822
   22MOL   H243 9105   5.931   0.506   4.796 -2.7565 -0.4084 -1.8802
   22MOL   H244 9106   5.957   0.751   4.909  0.7461 -3.2515  0.8248
   22MOL   H245 9107   5.869   0.856   4.483  0.0383  0.7796  0.5148
   22MOL   H246 9108   5.697   0.814   4.476  0.1938 -0.0382 -0.2942
   22MOL   H247 9109   5.903   0.710   4.312 -0.7040 -0.2687 -0.2211
   22MOL   H248 9110   5.924   0.611   4.456  0.2838 -2.1862 -1.5253
   22MOL   H249 9111   5.675   0.620   4.276  0.7212  0.9373  0.4807
   22MOL   H250 9112   5.687   0.551   4.439  0.3182 -2.3999 -0.0232
   22MOL   H251 9113   5.834   0.367   4.349  0.3403  2.1217  1.4422
   22MOL   H252 9114   5.882   0.465   4.211  0.5560  2.7974  1.0439
   22MOL   H253 9115   5.726   0.402   4.210 -0.0196 -1.8900  1.0173
   22MOL   C254 9116   5.741   0.794   4.899  0.3137  0.4628 -0.5129
   22MOL   C255 9117   5.738   0.948   4.896 -0.0614 -0.2042  0.3018
   22MOL   C256 9118   5.596   1.004   4.903  0.1322  0.9948 -0.0170
   22MOL   O257 9119   5.535   1.026   5.009 -0.0080  0.7172 -0.1270
   22MOL   O258 9120   5.526   0.998   4.784  0.0676 -0.0279 -0.2971
   22MOL   C259 9121   5.390   1.010   4.786 -0.4163  0.8039  0.1683
   22MOL   C260 9122   5.328   0.969   4.651  0.1070  0.1537  1.3707
   22MOL   C261 9123   5.175   1.001   4.666 -0.0970  0.3409  0.3475
   22MOL   C262 9124   5.093   0.940   4.545 -0.6517  0.0133  0.3162
   22MOL   H263 9125   5.714   0.744   4.992  0.4603 -1.0257 -1.2706
   22MOL   H264 9126   5.674   0.763   4.819  0.0750  2.2456 -1.0289
   22MOL   H265 9127   5.765   0.984   4.797 -3.2284 -1.3489 -1.0518
   22MOL   H266 9128   5.366   1.115   4.805 -1.5461  0.3792  1.1193
   22MOL   H267 9129   5.351   0.964   4.876  1.1943 -0.0121  0.4672
   22MOL   H268 9130   5.370   1.032   4.573 -1.1234  0.4887  0.9681
   22MOL   H269 9131   5.360   0.867   4.631 -0.3677  0.4603 -1.1823
   22MOL   H270 9132   5.174   1.110   4.670  0.7438  0.4805 -2.0061
   22MOL   H271 9133   5.134   0.966   4.761  0.1909  0.5612  0.5545
   22MOL   H272 9134   4.992   0.981   4.542 -1.2936 -1.6644 -2.3015
   22MOL   H273 9135   5.081   0.834   4.568  2.1029 -0.6246 -1.0281
   22MOL   H274 9136   5.139   0.948   4.447  1.1029 -2.4870  0.9024
   22MOL   C275 9137   5.818   1.019   5.008  0.2957 -0.1691 -0.3498
   22MOL   C276 9138   5.831   1.172   4.995 -0.0115 -0.3564  0.1754
   22MOL   C277 9139   5.881   1.231   5.130  0.5334 -0.3271  0.9525
   22MOL   O278 9140   5.911   1.162   5.227 -0.8497 -0.2280 -0.1581
   22MOL   O279 9141   5.884   1.360   5.126  0.0348 -0.2114  0.6478
   22MOL   C280 9142   5.943   1.435   5.230  0.2759 -0.3678 -0.3892
   22MOL   C281 9143   6.093   1.435   5.225 -0.6362 -0.6655 -0.9830
   22MOL   C282 9144   6.137   1.522   5.116  0.1407 -0.6282  0.2644
   22MOL   C283 9145   6.288   1.539   5.114  0.0716  0.2866  0.3528
   22MOL   H284 9146   5.917   0.972   4.997  1.2840  1.9516 -0.7070
   22MOL   H285 9147   5.774   0.988   5.103 -1.6084  0.5561 -0.9808
   22MOL   H286 9148   5.727   1.201   4.989 -0.0939  0.0083  2.8755
   22MOL   H287 9149   5.907   1.377   5.315  1.6752  0.0050  0.4685
   22MOL   H288 9150   5.898   1.533   5.248 -1.9830 -1.8389  2.4209
   22MOL   H289 9151   6.141   1.468   5.317 -0.3101 -0.4551 -1.2237
   22MOL   H290 9152   6.133   1.336   5.203  1.1769 -0.2350  0.2246
   22MOL   H291 9153   6.088   1.620   5.120 -0.3068 -0.7973 -1.0144
   22MOL   H292 9154   6.108   1.478   5.021  1.3504 -1.0601  0.0849
   22MOL   H293 9155   6.329   1.516   5.212 -0.1497 -0.8706  0.1813
   22MOL   H294 9156   6.312   1.644   5.093 -0.5896  0.8936  2.4851
   22MOL   H295 9157   6.338   1.462   5.055 -0.8100  0.3225 -0.4707
   22MOL   C296 9158   5.913   1.219   4.875 -0.4057  0.3647 -0.1658
   22MOL   C297 9159   5.869   1.355   4.818  0.1882 -0.3255 -0.0430
   22MOL   C298 9160   5.978   1.437   4.745 -0.4600 -0.1791  0.1619
   22MOL   O299 9161   6.096   1.401   4.739  0.0257 -0.6802  0.1473
   22MOL   O300 9162   5.929   1.557   4.698 -0.2691 -0.5057  0.1202
   22MOL   C301 9163   6.016   1.651   4.632  0.5185  0.5607  0.6937
   22MOL   C302 9164   6.067   1.757   4.733  0.4425  0.3683 -0.2724
   22MOL   C303 9165   6.146   1.861   4.657  0.0620  0.3708  0.8421
   22MOL   C304 9166   6.190   1.976   4.749  0.0493  0.2684 -0.0212
   22MOL   H305 9167   5.913   1.137   4.804  0.7473  0.8812 -0.7588
   22MOL   H306 9168   6.018   1.236   4.899 -0.1684 -0.9352 -0.2639
   22MOL   H307 9169   5.840   1.428   4.894 -4.2077 -1.0475 -0.9083
   22MOL   H308 9170   5.962   1.703   4.554  2.2532  0.8469 -0.3312
   22MOL   H309 9171   6.108   1.616   4.585  0.1773  0.9478 -0.2737
   22MOL   H310 9172   5.982   1.810   4.775 -0.5706 -1.7129  0.3916
   22MOL   H311 9173   6.135   1.708   4.802 -1.4378  0.2226  1.5235
   22MOL   H312 9174   6.092   1.909   4.576  1.6684  0.8844  0.0348
   22MOL   H313 9175   6.230   1.814   4.605 -0.9578 -0.1736 -0.3362
   22MOL   H314 9176   6.096   2.005   4.795  0.1780 -0.5826  0.8039
   22MOL   H315 9177   6.231   2.057   4.688  1.3429 -0.8745 -0.7168
   22MOL   H316 9178   6.251   1.934   4.829 -1.6121 -0.9193  0.6446
   22MOL   C317 9179   5.741   1.338   4.724  0.2191  0.1983 -0.3413
   22MOL   C318 9180   5.757   1.304   4.577  0.0471 -0.1928 -0.8362
   22MOL   C319 9181   5.854   1.188   4.549  0.8130  0.1361  0.0839
   22MOL   O320 9182   5.817   1.074   4.561  0.4597  0.0590  0.0606
   22MOL   O321 9183   5.972   1.221   4.506  0.0183 -0.1912 -0.0098
   22MOL   C322 9184   6.051   1.113   4.449  0.6124  0.2870 -0.3598
   22MOL   C323 9185   6.157   1.173   4.359 -0.1265  0.9284  0.2038
   22MOL   C324 9186   6.263   1.260   4.420 -0.6483 -0.1445 -0.4591
   22MOL   C325 9187   6.369   1.303   4.320 -0.2165  0.1075 -0.0601
   22MOL   H326 9188   5.701   1.439   4.736 -1.0231 -0.3462  0.1736
   22MOL   H327 9189   5.657   1.281   4.763  0.6007  1.3494  2.3128
   22MOL   H328 9190   5.802   1.394   4.533  1.0833  0.6599  1.8820
   22MOL   H329 9191   5.986   1.044   4.395 -0.3045 -1.1017  2.4384
   22MOL   H330 9192   6.086   1.041   4.523  1.6896  0.2685 -0.8760
   22MOL   H331 9193   6.204   1.095   4.299 -0.1201 -0.0295  1.4325
   22MOL   H332 9194   6.097   1.229   4.287 -0.4118  1.3966  0.8051
   22MOL   H333 9195   6.305   1.198   4.500  2.3527  0.0208 -1.8616
   22MOL   H334 9196   6.218   1.350   4.462 -0.3705  0.4359 -1.3931
   22MOL   H335 9197   6.424   1.389   4.359 -0.7581 -0.5575  2.2759
   22MOL   H336 9198   6.341   1.323   4.217 -0.3182 -0.1140 -0.0770
   22MOL   H337 9199   6.436   1.217   4.311 -0.3150  0.1375 -1.1496
   22MOL   C338 9200   5.625   1.284   4.507 -0.8947  0.3866  0.1445
   22MOL   C339 9201   5.626   1.307   4.353 -0.4053 -0.5570  0.4711
   22MOL   C340 9202   5.534   1.205   4.284 -0.1505 -0.1543 -0.2672
   22MOL   O341 9203   5.410   1.212   4.293 -0.5217  0.2895  0.1910
   22MOL   O342 9204   5.595   1.104   4.231 -0.0221 -0.6188  0.4278
   22MOL   C343 9205   5.525   1.004   4.151 -0.4900 -0.2329 -0.2621
   22MOL   C344 9206   5.529   0.865   4.221  0.0925 -0.0542 -0.1690
   22MOL   C345 9207   5.397   0.846   4.302 -0.3558  0.1820 -0.7686
   22MOL   C346 9208   5.379   0.713   4.379  0.4984 -1.1654 -0.4809
   22MOL   H347 9209   5.554   1.355   4.550 -0.1842 -0.5413  2.9114
   22MOL   H348 9210   5.572   1.194   4.538 -0.4000  0.6480  1.7585
   22MOL   H349 9211   5.727   1.284   4.318 -0.2067  1.3356 -0.2844
   22MOL   H350 9212   5.584   0.989   4.061 -0.5429  1.7444 -0.6417
   22MOL   H351 9213   5.428   1.048   4.127  1.1775  3.0970 -1.1748
   22MOL   H352 9214   5.536   0.780   4.153  2.9839 -0.3536  0.4049
   22MOL   H353 9215   5.621   0.866   4.280 -1.2895  0.2778  2.0404
   22MOL   H354 9216   5.308   0.844   4.240 -1.3832  0.7770  0.6844
   22MOL   H355 9217   5.376   0.939   4.354 -1.5157 -1.1990  1.3130
   22MOL   H356 9218   5.273   0.711   4.403 -0.2037 -2.1325 -3.4907
   22MOL   H357 9219   5.429   0.711   4.476 -0.3292  0.1996 -0.0024
   22MOL   H358 9220   5.387   0.627   4.313 -1.6394 -1.3240 -0.5765
   22MOL   C359 9221   5.591   1.457   4.319  0.0879 -0.6869  0.5125
   22MOL   C360 9222   5.629   1.508   4.178 -0.2316 -0.1213  0.2102
   22MOL   C361 9223   5.777   1.481   4.139 -0.2842  0.6426 -0.2661
   22MOL   O362 9224   5.820   1.427   4.036 -0.0876  0.1687  0.6900
   22MOL   O363 9225   5.852   1.536   4.232  0.1817  0.1108  0.1325
   22MOL   C364 9226   5.991   1.513   4.243  0.0174 -0.4369 -0.4688
   22MOL   C365 9227   6.064   1.649   4.246 -0.7123 -0.8053 -0.0011
   22MOL   C366 9228   6.204   1.631   4.301 -0.1798  0.3433  0.0228
   22MOL   C367 9229   6.274   1.770   4.312  0.0324 -0.1020 -0.3353
   22MOL   H368 9230   5.640   1.518   4.395  1.7127  0.2014 -1.2163
   22MOL   H369 9231   5.485   1.468   4.343 -1.2880 -4.2187 -3.4134
   22MOL   H370 9232   5.619   1.617   4.180 -1.6330 -0.2286 -0.3336
   22MOL   H371 9233   6.024   1.448   4.162 -1.1596 -2.0390  0.3077
   22MOL   H372 9234   6.007   1.469   4.342 -1.6413 -1.0816 -0.4790
   22MOL   H373 9235   6.050   1.702   4.152  1.3767  1.5820  0.9948
   22MOL   H374 9236   6.009   1.704   4.323 -0.0682 -0.4285  0.1907
   22MOL   H375 9237   6.267   1.567   4.239 -2.7943 -1.2643 -1.0625
   22MOL   H376 9238   6.191   1.580   4.396 -1.7713  0.6788 -0.0043
   22MOL   H377 9239   6.241   1.841   4.388 -0.2986 -0.8214  0.1984
   22MOL   H378 9240   6.261   1.829   4.221  0.5536 -0.9831 -0.9784
   22MOL   H379 9241   6.379   1.747   4.325 -0.0183 -0.2325 -0.1610
   22MOL   C380 9242   5.538   1.447   4.072 -0.1495 -0.4319 -0.2191
   22MOL   C381 9243   5.526   1.519   3.932  0.1876 -0.1050 -0.2737
   22MOL   C382 9244   5.446   1.435   3.833  0.5385 -1.0170 -0.2478
   22MOL   O383 9245   5.471   1.444   3.715 -0.2201 -0.1771  0.1037
   22MOL   O384 9246   5.354   1.353   3.893  0.2014  0.7588 -0.2544
   22MOL   C385 9247   5.274   1.263   3.815  0.4708 -0.2740  0.5500
   22MOL   C386 9248   5.154   1.209   3.902  0.1956  0.3342  0.7187
   22MOL   C387 9249   5.192   1.082   3.992 -0.0203 -0.0827  0.8114
   22MOL   C388 9250   5.069   1.028   4.060 -0.4172 -0.0283  0.2305
   22MOL   H389 9251   5.440   1.435   4.118  1.0637  1.2548  2.9740
   22MOL   H390 9252   5.582   1.354   4.037  0.8757 -0.2740  0.6304
   22MOL   H391 9253   5.624   1.538   3.887 -0.0262  0.7695 -0.3846
   22MOL   H392 9254   5.342   1.181   3.790 -3.2135 -3.6064  1.1262
   22MOL   H393 9255   5.234   1.319   3.730  1.4200 -1.0195 -0.4114
   22MOL   H394 9256   5.116   1.288   3.968 -0.0543  0.4081  0.4894
   22MOL   H395 9257   5.080   1.180   3.828  0.7350 -2.1700  1.1146
   22MOL   H396 9258   5.269   1.115   4.060 -0.0340  2.4716 -0.3259
   22MOL   H397 9259   5.226   1.015   3.914 -0.3588  0.2623  0.3564
   22MOL   H398 9260   5.001   0.988   3.985 -1.0914  3.3953 -1.1139
   22MOL   H399 9261   5.015   1.097   4.124  0.3843  1.1350 -0.3153
   22MOL   H400 9262   5.083   0.936   4.117 -3.4809 -0.3589  0.5200
   22MOL   C401 9263   5.472   1.661   3.939  0.0421  0.6413 -0.5322
   22MOL   C402 9264   5.489   1.761   3.821  0.5232  0.0604 -0.0698
   22MOL   C403 9265   5.631   1.809   3.787 -0.5450  0.1889  0.0772
   22MOL   O404 9266   5.659   1.871   3.682 -0.0517 -0.0640  0.5419
   22MOL   O405 9267   5.718   1.791   3.889  0.7809  0.2272 -0.5148
   22MOL   C406 9268   5.854   1.836   3.862  0.2724 -0.1618  0.4825
   22MOL   C407 9269   5.917   1.750   3.750  0.1583 -0.0584 -0.4913
   22MOL   C408 9270   5.926   1.604   3.797 -0.7764  0.1950  0.3927
   22MOL   C409 9271   6.000   1.513   3.698 -0.3416  0.2409 -0.0688
   22MOL   H410 9272   5.498   1.708   4.034 -0.6930  0.1944 -0.1013
   22MOL   H411 9273   5.364   1.647   3.942 -0.1066  1.7537 -0.6094
   22MOL   H412 9274   5.434   1.854   3.834  0.8788  0.1579  0.7833
   22MOL   H413 9275   5.917   1.819   3.949 -0.6642 -0.2864  1.1481
   22MOL   H414 9276   5.869   1.943   3.843 -1.1733  0.3040  1.7784
   22MOL   H415 9277   5.856   1.746   3.660  0.3741 -0.8048 -0.6121
   22MOL   H416 9278   6.021   1.779   3.738  0.1763 -0.4333 -1.2618
   22MOL   H417 9279   5.825   1.567   3.816 -1.0054  0.4497 -0.3461
   22MOL   H418 9280   5.975   1.587   3.893 -0.2403 -1.0243 -0.0743
   22MOL   H419 9281   5.977   1.551   3.599 -0.9108  2.1213  0.7747
   22MOL   H420 9282   5.963   1.410   3.706  1.2319 -0.6490 -3.1297
   22MOL   H421 9283   6.108   1.521   3.710 -0.4297  1.0233  0.1667
   22MOL   H422 9284   5.446   1.714   3.733 -1.1574  1.7765 -0.2030
   23MOL     C1 9285   1.749   4.105   4.063  0.6534 -0.2864 -0.2146
   23MOL     C2 9286   1.635   4.068   4.155 -0.1580  0.2529 -0.1830
   23MOL     C3 9287   1.645   4.137   4.293  0.3561 -0.0173  0.5324
   23MOL     O4 9288   1.736   4.215   4.316 -0.6075 -0.3654 -0.1520
   23MOL     O5 9289   1.550   4.096   4.378  0.6128 -0.4833 -0.0010
   23MOL     C6 9290   1.553   4.157   4.500  0.7619  0.4451 -0.0288
   23MOL     C7 9291   1.440   4.114   4.591 -0.6920 -0.0735 -0.4934
   23MOL     C8 9292   1.430   4.179   4.730  0.8518  0.1051 -0.0630
   23MOL     C9 9293   1.325   4.123   4.818  0.1339  0.0478 -0.1832
   23MOL    H10 9294   1.745   4.050   3.969  1.5153  2.4791 -1.9219
   23MOL    H11 9295   1.742   4.206   4.022  1.5620  0.2793  0.9954
   23MOL    H12 9296   1.647   3.961   4.168 -2.0205 -0.2247 -2.1525
   23MOL    H13 9297   1.556   4.265   4.487  0.9007  0.0236 -4.1904
   23MOL    H14 9298   1.645   4.124   4.546  0.6442 -2.9706 -2.0127
   23MOL    H15 9299   1.340   4.123   4.548 -2.2570  0.4049  3.1163
   23MOL    H16 9300   1.449   4.006   4.600 -1.5526  0.0682  2.4892
   23MOL    H17 9301   1.399   4.282   4.717 -1.6819 -0.5208  0.8189
   23MOL    H18 9302   1.524   4.175   4.785  1.4525 -2.0956 -1.2098
   23MOL    H19 9303   1.310   4.181   4.909 -2.5667  2.1235 -1.8996
   23MOL    H20 9304   1.353   4.024   4.854 -1.4274 -0.5487 -0.5636
   23MOL    H21 9305   1.227   4.106   4.772 -0.6356  0.7660  1.1737
   23MOL    H22 9306   1.841   4.091   4.120  0.4085  0.6512  0.4082
   23MOL    C23 9307   1.493   4.074   4.090 -0.0639 -0.2877 -0.1895
   23MOL    C24 9308   1.371   3.994   4.151 -0.1430  0.8466  0.1394
   23MOL    C25 9309   1.239   4.040   4.083 -1.0438  0.6280  0.3982
   23MOL    O26 9310   1.233   4.074   3.969 -0.5339 -0.2665 -0.0875
   23MOL    O27 9311   1.139   4.035   4.164 -0.1280 -0.1026 -0.0755
   23MOL    C28 9312   1.008   4.080   4.139  0.1669  0.3900  0.0061
   23MOL    C29 9313   0.970   4.200   4.221  0.5151  0.6152  0.1010
   23MOL    C30 9314   0.827   4.241   4.227  0.1822 -0.4267  0.2431
   23MOL    C31 9315   0.793   4.342   4.338  0.4564  0.3270  0.2413
   23MOL    H32 9316   1.508   4.041   3.987 -0.7170 -1.5844  0.1118
   23MOL    H33 9317   1.468   4.179   4.079  0.6860 -0.0767  0.1128
   23MOL    H34 9318   1.363   4.034   4.252 -1.1082 -0.2157  0.4987
   23MOL    H35 9319   0.941   3.998   4.164 -1.4316  1.5441 -0.3937
   23MOL    H36 9320   0.976   4.101   4.037  2.0946 -0.7163 -0.8518
   23MOL    H37 9321   1.005   4.174   4.322 -0.1698  1.0455  0.4508
   23MOL    H38 9322   1.022   4.291   4.190  1.6665 -0.5315 -1.4167
   23MOL    H39 9323   0.756   4.162   4.253  0.1350 -0.3807  0.2535
   23MOL    H40 9324   0.801   4.292   4.135 -3.9316 -1.2534  0.8544
   23MOL    H41 9325   0.840   4.438   4.315  0.8078  0.2433  0.6152
   23MOL    H42 9326   0.815   4.310   4.440  0.4410  3.4821  1.2965
   23MOL    H43 9327   0.685   4.357   4.336 -0.0062 -2.2025  2.8061
   23MOL    C44 9328   1.395   3.842   4.154 -0.9628 -0.0479  0.1995
   23MOL    C45 9329   1.279   3.761   4.213  0.2487 -0.0248  0.7524
   23MOL    C46 9330   1.284   3.615   4.158  0.5125  0.0886 -0.2227
   23MOL    O47 9331   1.196   3.582   4.074 -0.2854 -0.4852 -0.1233
   23MOL    O48 9332   1.378   3.535   4.215  0.1020 -0.4973  0.7920
   23MOL    C49 9333   1.349   3.400   4.232  0.0207  0.2258  0.0540
   23MOL    C50 9334   1.456   3.324   4.150 -0.0020  0.0300  0.0561
   23MOL    C51 9335   1.456   3.178   4.170 -1.0456  0.3806 -0.5152
   23MOL    C52 9336   1.593   3.121   4.176 -0.7416  0.1396  0.4119
   23MOL    H53 9337   1.479   3.825   4.222  0.3105 -0.7240 -1.5054
   23MOL    H54 9338   1.423   3.807   4.055 -0.6536 -3.1348  1.3162
   23MOL    H55 9339   1.188   3.806   4.173  1.6355  0.1421 -2.3910
   23MOL    H56 9340   1.249   3.366   4.204  0.1498  1.0434 -1.4913
   23MOL    H57 9341   1.352   3.381   4.339 -2.4667  0.3328  0.1851
   23MOL    H58 9342   1.447   3.349   4.044 -1.0754  1.5455  0.4750
   23MOL    H59 9343   1.554   3.363   4.177  0.0096  0.2969 -0.3590
   23MOL    H60 9344   1.406   3.138   4.082  0.3062 -1.8173 -0.3352
   23MOL    H61 9345   1.398   3.147   4.258  0.7492  1.3657  1.0434
   23MOL    H62 9346   1.648   3.167   4.258  1.2441 -1.7368  0.1651
   23MOL    H63 9347   1.657   3.141   4.091 -3.0247 -1.0628 -1.6570
   23MOL    H64 9348   1.599   3.012   4.178 -2.3183  0.0341  0.2969
   23MOL    C65 9349   1.275   3.768   4.367 -0.3092 -0.1622 -0.6433
   23MOL    C66 9350   1.135   3.801   4.422  0.6566 -0.2836  0.1924
   23MOL    C67 9351   1.024   3.714   4.365  0.3999  0.0137 -0.3291
   23MOL    O68 9352   0.933   3.765   4.299  0.3511  0.0271  0.0500
   23MOL    O69 9353   1.031   3.582   4.400 -0.0844  0.1673 -0.0254
   23MOL    C70 9354   0.924   3.489   4.358  0.4396 -0.1748 -0.1835
   23MOL    C71 9355   0.959   3.348   4.407 -0.2557 -0.3800  0.1357
   23MOL    C72 9356   0.870   3.243   4.353  0.5600  0.2815 -0.0114
   23MOL    C73 9357   0.873   3.104   4.423 -0.4448 -0.3493  0.0982
   23MOL    H74 9358   1.334   3.856   4.393  0.4397 -0.1415 -2.3272
   23MOL    H75 9359   1.332   3.684   4.407  1.4390  0.5158 -1.6474
   23MOL    H76 9360   1.108   3.896   4.374 -0.0694 -0.2773  0.6134
   23MOL    H77 9361   0.922   3.501   4.250  0.3051 -0.9892 -0.2691
   23MOL    H78 9362   0.830   3.527   4.399  0.7442  0.7802 -0.3622
   23MOL    H79 9363   1.063   3.323   4.387  0.0045  0.9054 -0.2138
   23MOL    H80 9364   0.945   3.342   4.515  0.4252  1.3431  0.3419
   23MOL    H81 9365   0.897   3.238   4.247  2.3193 -0.0722  0.4355
   23MOL    H82 9366   0.766   3.274   4.351  0.4166 -0.0076  2.4055
   23MOL    H83 9367   0.823   3.034   4.356 -0.6506  0.3619 -0.5027
   23MOL    H84 9368   0.822   3.099   4.519 -0.7087 -0.9605 -0.0728
   23MOL    H85 9369   0.972   3.060   4.439 -1.5364 -2.1040  2.2902
   23MOL    C86 9370   1.123   3.821   4.573  0.1688  0.2686  0.1332
   23MOL    C87 9371   1.142   3.699   4.665  0.1235  0.2137 -0.1079
   23MOL    C88 9372   1.297   3.679   4.684  0.4150  0.1500 -0.6279
   23MOL    O89 9373   1.365   3.773   4.729  0.0128 -0.1141  0.7969
   23MOL    O90 9374   1.345   3.560   4.649  0.5831 -0.0652  0.4596
   23MOL    C91 9375   1.484   3.538   4.664 -0.4203  0.2207  0.1179
   23MOL    C92 9376   1.542   3.434   4.564 -0.1212 -0.0625 -0.4430
   23MOL    C93 9377   1.688   3.402   4.594  0.5504  0.3777 -0.5319
   23MOL    C94 9378   1.745   3.291   4.518 -0.3845 -0.5047 -0.1656
   23MOL    H95 9379   1.016   3.833   4.588  0.1302 -1.1418  1.0981
   23MOL    H96 9380   1.156   3.919   4.606 -0.0636  0.1414  0.7583
   23MOL    H97 9381   1.105   3.606   4.624  0.5950 -0.2643  0.5459
   23MOL    H98 9382   1.511   3.514   4.767 -3.5114 -3.6197  0.1786
   23MOL    H99 9383   1.547   3.620   4.630  0.5275  0.5275  2.4849
   23MOL   H100 9384   1.489   3.341   4.583  0.1430 -0.1306 -0.0141
   23MOL   H101 9385   1.516   3.461   4.462  1.1138  0.3782 -0.6493
   23MOL   H102 9386   1.693   3.373   4.699  0.3798 -0.5232 -0.7700
   23MOL   H103 9387   1.756   3.487   4.590 -1.5784  2.2666  1.2192
   23MOL   H104 9388   1.852   3.304   4.506 -0.3106  0.0176  0.9785
   23MOL   H105 9389   1.707   3.287   4.416 -0.9684  0.8738 -0.0272
   23MOL   H106 9390   1.723   3.200   4.573  0.7229 -0.4415  0.3849
   23MOL   C107 9391   1.072   3.715   4.804 -0.0585  0.5506 -0.0889
   23MOL   C108 9392   1.074   3.589   4.893  0.5057  0.2635  0.0306
   23MOL   C109 9393   1.026   3.622   5.042  0.4746 -0.1018  0.4577
   23MOL   O110 9394   0.929   3.568   5.095 -0.1897  0.5383 -0.1985
   23MOL   O111 9395   1.103   3.710   5.110 -0.3583 -0.0871  0.3980
   23MOL   C112 9396   1.081   3.742   5.246 -0.2353  0.4029  0.3170
   23MOL   C113 9397   1.208   3.814   5.297 -0.3590  0.2295  0.3441
   23MOL   C114 9398   1.243   3.947   5.228 -0.8344 -0.5183 -0.4484
   23MOL   C115 9399   1.368   4.016   5.290 -0.4419  0.3523 -0.3931
   23MOL   H116 9400   0.970   3.745   4.781 -0.6348 -1.4481 -0.2708
   23MOL   H117 9401   1.119   3.798   4.858 -1.0591  2.8943 -2.7043
   23MOL   H118 9402   1.178   3.557   4.898 -0.0387 -1.5251  0.4292
   23MOL   H119 9403   1.061   3.648   5.298 -0.5782  0.8104  0.9352
   23MOL   H120 9404   0.989   3.794   5.216  0.0340 -0.0309 -1.2934
   23MOL   H121 9405   1.179   3.837   5.399 -0.4272 -3.2616  1.1802
   23MOL   H122 9406   1.293   3.746   5.292 -1.1236 -0.7194  0.1312
   23MOL   H123 9407   1.156   4.012   5.233  0.7843  1.6801  0.0437
   23MOL   H124 9408   1.261   3.936   5.121 -1.2999  1.8113 -0.7879
   23MOL   H125 9409   1.353   4.053   5.392 -1.2136 -1.2028  0.0627
   23MOL   H126 9410   1.398   4.101   5.228 -1.2501  1.6683  0.9670
   23MOL   H127 9411   1.459   3.957   5.295 -0.0882  0.9764  0.6896
   23MOL   C128 9412   0.999   3.461   4.838 -0.2472  0.0208  0.0257
   23MOL   C129 9413   1.026   3.324   4.903 -0.2198  0.1443 -0.3515
   23MOL   C130 9414   0.907   3.234   4.859 -0.3296  0.2757 -0.0020
   23MOL   O131 9415   0.917   3.166   4.759 -0.0656  0.5547  0.2505
   23MOL   O132 9416   0.803   3.229   4.939 -0.1008  0.5655 -0.2642
   23MOL   C133 9417   0.681   3.168   4.889 -0.3937  0.3371  0.1739
   23MOL   C134 9418   0.574   3.141   4.993 -0.3160  0.5220  0.5061
   23MOL   C135 9419   0.532   3.266   5.077  0.6117 -0.2927 -0.0171
   23MOL   C136 9420   0.431   3.241   5.188 -0.1358  1.0099 -0.2387
   23MOL   H137 9421   1.024   3.438   4.734 -0.5765  0.1753 -0.0892
   23MOL   H138 9422   0.890   3.468   4.835 -0.3743 -1.3515  1.0019
   23MOL   H139 9423   1.026   3.327   5.012  0.9399  0.3884 -0.3425
   23MOL   H140 9424   0.713   3.072   4.847  1.5864  1.5805 -1.2849
   23MOL   H141 9425   0.640   3.234   4.813  1.8458  4.4850  2.3562
   23MOL   H142 9426   0.490   3.094   4.942 -0.9667  0.7709  1.3174
   23MOL   H143 9427   0.597   3.061   5.064 -0.8311  0.4477  0.5901
   23MOL   H144 9428   0.485   3.346   5.019  0.7379  0.3742  0.7892
   23MOL   H145 9429   0.618   3.303   5.133  0.1523  1.3286 -0.3435
   23MOL   H146 9430   0.463   3.186   5.276  0.5158 -0.1374 -1.1768
   23MOL   H147 9431   0.349   3.182   5.146  0.2063  0.0932  0.3518
   23MOL   H148 9432   0.389   3.337   5.217  0.8431  1.8339 -1.5269
   23MOL   C149 9433   1.171   3.269   4.859 -0.1674 -0.2382 -0.5674
   23MOL   C150 9434   1.252   3.202   4.967 -0.4627 -0.3870 -0.7042
   23MOL   C151 9435   1.215   3.051   4.978 -0.4174  0.0814  0.1694
   23MOL   O152 9436   1.267   2.963   4.910 -0.0195 -0.2900  0.5873
   23MOL   O153 9437   1.118   3.034   5.068  0.4129  0.1166  0.0765
   23MOL   C154 9438   1.077   2.895   5.096 -0.1110  0.3262  0.5350
   23MOL   C155 9439   0.930   2.886   5.134 -1.1484  0.7752  0.2886
   23MOL   C156 9440   0.883   2.737   5.137  0.1069 -0.2429  0.2037
   23MOL   C157 9441   0.747   2.712   5.194  0.3477  0.0231  0.1274
   23MOL   H158 9442   1.231   3.356   4.834  0.6667  0.5042  3.7139
   23MOL   H159 9443   1.168   3.208   4.769 -1.7292 -2.1453  0.7372
   23MOL   H160 9444   1.228   3.247   5.063 -0.6555  0.4355 -1.1264
   23MOL   H161 9445   1.147   2.860   5.172 -0.6918 -3.1073 -0.4201
   23MOL   H162 9446   1.091   2.832   5.008  3.6712  0.3984  0.9911
   23MOL   H163 9447   0.910   2.921   5.235  0.3906  0.0991  0.8363
   23MOL   H164 9448   0.871   2.947   5.065 -0.4574 -0.2205 -1.2054
   23MOL   H165 9449   0.958   2.677   5.189  0.3825  0.4040  0.5539
   23MOL   H166 9450   0.878   2.680   5.044  0.5476  0.3584 -0.1860
   23MOL   H167 9451   0.725   2.774   5.281 -5.3017 -1.5729  0.0203
   23MOL   H168 9452   0.720   2.608   5.209  0.8125 -0.0313  0.6160
   23MOL   H169 9453   0.684   2.755   5.116  0.1940  0.0665  0.2726
   23MOL   C170 9454   1.404   3.236   4.957 -0.0746  0.1207 -0.1681
   23MOL   C171 9455   1.507   3.171   5.061 -0.0842  0.1127  0.1034
   23MOL   C172 9456   1.653   3.203   5.019 -0.3408 -0.6590  0.4049
   23MOL   O173 9457   1.682   3.312   4.968  0.4062  1.0069 -0.0805
   23MOL   O174 9458   1.733   3.096   5.035 -0.2463 -0.3993 -0.3628
   23MOL   C175 9459   1.881   3.116   5.015 -0.2331 -0.1861  0.7233
   23MOL   C176 9460   1.951   3.147   5.141 -0.6125  0.0684 -0.1267
   23MOL   C177 9461   2.096   3.185   5.125  0.6011  0.8890 -0.4952
   23MOL   C178 9462   2.168   3.172   5.256 -0.2402 -0.2969 -0.1133
   23MOL   H179 9463   1.416   3.345   4.955 -0.9018  0.2000 -0.9736
   23MOL   H180 9464   1.438   3.204   4.859  0.3484  1.1047 -0.3515
   23MOL   H181 9465   1.503   3.062   5.060 -1.8323  0.1572  0.6643
   23MOL   H182 9466   1.906   3.155   4.917 -0.4976 -0.2057  0.6481
   23MOL   H183 9467   1.909   3.014   4.990  0.0287 -0.0606  0.5014
   23MOL   H184 9468   1.908   3.228   5.199 -0.4564 -1.0800  1.6351
   23MOL   H185 9469   1.938   3.061   5.207  3.9781  0.4452  1.3951
   23MOL   H186 9470   2.110   3.285   5.082 -1.3220 -0.0288 -3.4107
   23MOL   H187 9471   2.141   3.114   5.056  0.7502  0.5866 -0.0890
   23MOL   H188 9472   2.276   3.166   5.246 -0.1682 -1.4133  1.0500
   23MOL   H189 9473   2.139   3.075   5.298 -1.2266  0.7470  1.6793
   23MOL   H190 9474   2.147   3.254   5.324  0.0465  1.6672 -2.3570
   23MOL   C191 9475   1.481   3.215   5.207  0.6296 -0.1991 -0.3006
   23MOL   C192 9476   1.525   3.360   5.256  0.3582 -0.4221  0.3820
   23MOL   C193 9477   1.455   3.478   5.182  0.5849  0.3270 -0.5331
   23MOL   O194 9478   1.333   3.477   5.152 -0.2081  0.0845  0.1166
   23MOL   O195 9479   1.540   3.574   5.153  0.1944 -0.1118 -0.0659
   23MOL   C196 9480   1.503   3.683   5.064 -0.4168  0.5319 -0.5993
   23MOL   C197 9481   1.629   3.718   4.979  0.0109 -1.1812 -0.5295
   23MOL   C198 9482   1.626   3.862   4.927  0.4213  0.4888  0.5994
   23MOL   C199 9483   1.685   3.882   4.782  0.2562 -0.0219 -0.0754
   23MOL   H200 9484   1.533   3.141   5.268  1.7874  1.6138  0.9617
   23MOL   H201 9485   1.380   3.195   5.245  0.7609 -2.1329 -0.8961
   23MOL   H202 9486   1.630   3.370   5.229  0.5019  1.5600  1.5313
   23MOL   H203 9487   1.491   3.769   5.130 -1.2204 -0.3895  0.4560
   23MOL   H204 9488   1.414   3.672   5.002 -0.2685 -1.5998 -0.4417
   23MOL   H205 9489   1.720   3.695   5.034 -0.7670 -0.2699  1.1812
   23MOL   H206 9490   1.629   3.656   4.889 -0.8588 -0.3398 -1.1233
   23MOL   H207 9491   1.669   3.930   5.001 -0.4246  0.6233  0.9688
   23MOL   H208 9492   1.519   3.881   4.931  0.3590  0.4634 -0.9832
   23MOL   H209 9493   1.688   3.987   4.755 -0.0911  0.1593  0.5769
   23MOL   H210 9494   1.643   3.813   4.708  0.4796  0.8557 -1.0264
   23MOL   H211 9495   1.790   3.858   4.795 -0.2990 -1.2268  2.7375
   23MOL   C212 9496   1.505   3.382   5.411 -0.1125 -0.2147  0.1372
   23MOL   C213 9497   1.620   3.302   5.482  0.3777 -0.1814 -0.7582
   23MOL   C214 9498   1.704   3.403   5.562  0.4917  0.1165 -0.7738
   23MOL   O215 9499   1.811   3.444   5.523  0.4992 -0.5772  0.7831
   23MOL   O216 9500   1.640   3.449   5.671  0.6209  0.4652 -0.4890
   23MOL   C217 9501   1.708   3.543   5.753 -0.1293  0.1916 -0.2391
   23MOL   C218 9502   1.622   3.587   5.867 -0.1505  0.4526  1.1305
   23MOL   C219 9503   1.527   3.480   5.931 -0.9790 -0.0095  0.8428
   23MOL   C220 9504   1.443   3.544   6.040 -0.7698 -0.8694 -0.2089
   23MOL   H221 9505   1.404   3.348   5.437 -0.0969 -1.7286 -1.6758
   23MOL   H222 9506   1.499   3.485   5.445  2.0762  0.4941 -1.5430
   23MOL   H223 9507   1.688   3.258   5.408 -0.1612 -1.8529 -0.2693
   23MOL   H224 9508   1.731   3.629   5.691 -2.6480  0.4961 -0.8084
   23MOL   H225 9509   1.804   3.512   5.795  0.2263 -0.9063 -1.8292
   23MOL   H226 9510   1.694   3.628   5.938 -1.8596  0.3295  2.9741
   23MOL   H227 9511   1.565   3.674   5.838  1.2984  0.6766 -1.1611
   23MOL   H228 9512   1.563   3.384   5.967  0.0999 -0.6632 -1.8981
   23MOL   H229 9513   1.464   3.438   5.852  0.3162 -0.8093  0.2212
   23MOL   H230 9514   1.507   3.610   6.099 -0.8529  0.7997 -1.9267
   23MOL   H231 9515   1.403   3.478   6.117  0.5532 -1.2439  0.1705
   23MOL   H232 9516   1.356   3.598   6.002  1.2550  1.8448 -1.1479
   23MOL   C233 9517   1.564   3.187   5.568  0.2660 -0.3479  0.2314
   23MOL   C234 9518   1.657   3.066   5.590  0.1173 -0.4231  0.0930
   23MOL   C235 9519   1.802   3.104   5.628  0.3824  0.0395  0.0685
   23MOL   O236 9520   1.902   3.066   5.573 -0.0978  1.3023  0.3760
   23MOL   O237 9521   1.803   3.176   5.746  0.4186 -0.6721 -1.0328
   23MOL   C238 9522   1.920   3.237   5.795  0.4349  0.3141 -0.2206
   23MOL   C239 9523   1.993   3.143   5.889  0.0357 -0.2008  0.0677
   23MOL   C240 9524   1.912   3.097   6.015 -0.4283 -0.6377 -0.2419
   23MOL   C241 9525   1.990   3.023   6.121 -0.4200  0.5805  0.4305
   23MOL   H242 9526   1.483   3.141   5.511 -0.6798  0.9702  0.4969
   23MOL   H243 9527   1.517   3.224   5.659  1.7668 -2.4790  1.9432
   23MOL   H244 9528   1.666   3.015   5.494  2.0776 -0.0829  0.0781
   23MOL   H245 9529   1.905   3.329   5.851  0.4663  0.0497  0.2235
   23MOL   H246 9530   1.972   3.257   5.701  1.6087 -1.0999  0.1027
   23MOL   H247 9531   2.020   3.057   5.828 -1.2690 -1.6765  1.5293
   23MOL   H248 9532   2.085   3.194   5.916 -0.0467  0.7174 -1.3411
   23MOL   H249 9533   1.822   3.041   5.993 -1.0072  0.4774 -0.7492
   23MOL   H250 9534   1.869   3.184   6.065  1.0432 -2.6259  4.7557
   23MOL   H251 9535   1.922   3.009   6.204 -1.9000 -2.4753 -1.1871
   23MOL   H252 9536   2.071   3.073   6.174 -1.4577  0.2863  2.3190
   23MOL   H253 9537   2.021   2.924   6.084 -0.1822  1.3343 -1.4557
   23MOL   C254 9538   1.591   2.955   5.683  0.0367  0.3420 -0.0613
   23MOL   C255 9539   1.650   2.813   5.657 -0.0643 -0.5197 -0.5643
   23MOL   C256 9540   1.751   2.771   5.762 -0.9151  0.7081 -0.0251
   23MOL   O257 9541   1.745   2.804   5.882 -0.1730  0.1110  0.7817
   23MOL   O258 9542   1.843   2.691   5.712 -0.1651 -0.3137 -0.0667
   23MOL   C259 9543   1.959   2.657   5.790  0.3549  0.1136  0.2444
   23MOL   C260 9544   2.078   2.637   5.695  0.5343  0.5776 -0.9658
   23MOL   C261 9545   2.206   2.612   5.777  0.7617 -0.5763  0.2583
   23MOL   C262 9546   2.220   2.467   5.825  0.0587  0.4699 -0.2152
   23MOL   H263 9547   1.482   2.958   5.690 -0.0286  2.0608 -1.3992
   23MOL   H264 9548   1.609   2.981   5.787  1.6359  1.7077 -0.6663
   23MOL   H265 9549   1.703   2.822   5.562  0.8260  1.5355  0.0917
   23MOL   H266 9550   1.938   2.569   5.850 -1.3740 -0.8847 -1.7474
   23MOL   H267 9551   1.980   2.742   5.856 -0.9947  1.0981 -0.5549
   23MOL   H268 9552   2.061   2.557   5.623 -0.4932 -0.8967  0.8870
   23MOL   H269 9553   2.091   2.733   5.644 -0.8290  0.4199 -1.6552
   23MOL   H270 9554   2.209   2.670   5.869  2.5584 -0.4233  0.1145
   23MOL   H271 9555   2.291   2.646   5.719 -0.8025 -2.3093 -3.2097
   23MOL   H272 9556   2.317   2.441   5.868 -0.1701 -1.5636 -0.9002
   23MOL   H273 9557   2.212   2.404   5.737 -1.4761 -0.0091  0.2534
   23MOL   H274 9558   2.141   2.443   5.897  0.3923  0.5444  0.1738
   23MOL   C275 9559   1.543   2.700   5.642  0.2582 -0.2308  0.2053
   23MOL   C276 9560   1.440   2.738   5.537  0.4275 -0.0247  0.3979
   23MOL   C277 9561   1.507   2.775   5.407  0.1227  0.0009  0.0859
   23MOL   O278 9562   1.498   2.892   5.359 -0.4178 -0.4858 -0.1165
   23MOL   O279 9563   1.578   2.672   5.344 -0.0793 -0.6029  0.0938
   23MOL   C280 9564   1.651   2.690   5.225  0.1697 -0.2746 -0.6276
   23MOL   C281 9565   1.777   2.784   5.233  0.3481  0.0908 -0.9657
   23MOL   C282 9566   1.892   2.722   5.311 -0.5555  0.4428 -0.6402
   23MOL   C283 9567   2.019   2.814   5.325  0.3516 -0.4240  0.1198
   23MOL   H284 9568   1.494   2.686   5.738 -0.7018 -1.3878 -0.4554
   23MOL   H285 9569   1.594   2.607   5.616 -1.7634 -1.3045  0.0428
   23MOL   H286 9570   1.397   2.829   5.579  0.0673 -0.6503  1.4109
   23MOL   H287 9571   1.581   2.743   5.161  0.7742  0.0068 -1.0649
   23MOL   H288 9572   1.674   2.591   5.186 -1.8255 -1.9657  2.2780
   23MOL   H289 9573   1.803   2.814   5.131 -1.7666  0.0112 -1.5511
   23MOL   H290 9574   1.763   2.882   5.279 -5.1749 -2.0031  2.3665
   23MOL   H291 9575   1.914   2.623   5.272 -1.6337  0.0775 -0.3306
   23MOL   H292 9576   1.862   2.684   5.408 -0.8892  1.0049 -0.5254
   23MOL   H293 9577   2.107   2.771   5.372  1.0883 -1.3594 -2.0689
   23MOL   H294 9578   2.000   2.898   5.393  1.1994 -0.3905  0.3288
   23MOL   H295 9579   2.072   2.847   5.236 -2.3178  1.8138 -0.7250
   23MOL   C296 9580   1.329   2.628   5.535  0.0387  0.3685  0.1927
   23MOL   C297 9581   1.197   2.677   5.457 -0.1286  0.0574 -0.3824
   23MOL   C298 9582   1.150   2.566   5.363 -0.1321  0.5928 -0.6426
   23MOL   O299 9583   1.038   2.512   5.369 -0.4380  0.5491  0.0450
   23MOL   O300 9584   1.250   2.524   5.278 -0.0204  0.3193 -0.0882
   23MOL   C301 9585   1.243   2.405   5.191 -0.1210  0.3982 -1.1694
   23MOL   C302 9586   1.229   2.461   5.046  0.6028 -0.0551 -0.4656
   23MOL   C303 9587   1.358   2.521   4.997 -0.4489 -0.5223 -0.7751
   23MOL   C304 9588   1.341   2.678   4.988 -0.6245  0.6367 -0.0307
   23MOL   H305 9589   1.314   2.592   5.636 -1.1215 -2.7873 -1.0248
   23MOL   H306 9590   1.375   2.546   5.479  0.7078 -0.0516  1.3601
   23MOL   H307 9591   1.215   2.756   5.383 -0.7792 -0.1614 -0.7797
   23MOL   H308 9592   1.160   2.336   5.209 -0.2092  0.1066 -2.6010
   23MOL   H309 9593   1.336   2.349   5.196 -0.1392  0.3509 -1.3483
   23MOL   H310 9594   1.197   2.376   4.986  0.6742 -0.0291 -0.5403
   23MOL   H311 9595   1.148   2.533   5.035 -0.0794 -0.7241  0.1716
   23MOL   H312 9596   1.374   2.479   4.897 -2.7474 -1.3214 -0.8191
   23MOL   H313 9597   1.444   2.490   5.056 -1.8728 -0.3266  1.4746
   23MOL   H314 9598   1.257   2.707   4.925 -1.7406 -0.1159  1.0837
   23MOL   H315 9599   1.422   2.727   4.934 -1.2523  0.2846 -1.3092
   23MOL   H316 9600   1.344   2.705   5.094  3.4644  0.2592  0.0214
   23MOL   C317 9601   1.086   2.726   5.555 -0.7225  0.3438 -0.2416
   23MOL   C318 9602   1.124   2.857   5.619 -0.0918  0.0725  0.5080
   23MOL   C319 9603   1.145   2.979   5.527  0.2572 -0.1453  0.9963
   23MOL   O320 9604   1.257   3.036   5.517  0.4184 -0.0567 -0.4046
   23MOL   O321 9605   1.028   3.014   5.456  0.0285 -0.2630 -0.2809
   23MOL   C322 9606   1.031   3.139   5.386 -0.0401 -0.2422  0.4947
   23MOL   C323 9607   1.002   3.261   5.484  0.0021  0.2988 -0.3437
   23MOL   C324 9608   0.969   3.380   5.392  0.3614 -0.5461 -0.0750
   23MOL   C325 9609   0.827   3.371   5.324  0.4999 -0.5477 -0.1479
   23MOL   H326 9610   1.069   2.651   5.633  0.7831 -2.4596 -2.5233
   23MOL   H327 9611   0.991   2.728   5.502  0.2617  0.7354 -2.0199
   23MOL   H328 9612   1.227   2.848   5.651 -0.0439  2.1682  0.9925
   23MOL   H329 9613   0.950   3.131   5.314  0.6105  0.9960 -0.3826
   23MOL   H330 9614   1.113   3.140   5.315 -0.9746  0.5908 -0.5916
   23MOL   H331 9615   0.920   3.249   5.554 -0.9409  0.7613 -1.3566
   23MOL   H332 9616   1.095   3.277   5.538  0.3684 -0.9789 -0.5701
   23MOL   H333 9617   1.057   3.403   5.332  0.8828  1.9420  1.5396
   23MOL   H334 9618   0.951   3.463   5.461 -2.3889 -2.8119  2.0702
   23MOL   H335 9619   0.773   3.465   5.316  0.9785 -0.3114 -0.6135
   23MOL   H336 9620   0.765   3.310   5.390 -2.8428  3.0933  0.2694
   23MOL   H337 9621   0.835   3.322   5.227  0.1297  0.2181 -0.5696
   23MOL   C338 9622   1.020   2.891   5.730  0.4288  0.0828  0.7799
   23MOL   C339 9623   1.036   2.839   5.869 -0.5415 -0.2232  0.7266
   23MOL   C340 9624   1.186   2.830   5.913  0.6762  0.5093 -0.1755
   23MOL   O341 9625   1.251   2.727   5.913  0.0378 -0.7459  0.1907
   23MOL   O342 9626   1.233   2.945   5.951 -0.5188  0.1260  0.3275
   23MOL   C343 9627   1.363   2.949   6.009  0.6289 -0.3044 -0.8490
   23MOL   C344 9628   1.379   3.075   6.101  0.5146 -0.0831  0.0972
   23MOL   C345 9629   1.513   3.081   6.170 -0.2088 -0.2118  0.1142
   23MOL   C346 9630   1.543   3.201   6.256  0.2165  0.2387 -0.1840
   23MOL   H347 9631   0.924   2.859   5.690  0.5209  1.8710 -0.9459
   23MOL   H348 9632   1.015   2.999   5.746 -1.5359  0.1254 -0.0116
   23MOL   H349 9633   0.999   2.736   5.869 -1.9134  0.2612  0.5011
   23MOL   H350 9634   1.435   2.962   5.929  1.4243  1.9339  0.1760
   23MOL   H351 9635   1.397   2.865   6.069  1.8508 -0.1551 -1.3301
   23MOL   H352 9636   1.380   3.161   6.035 -1.9042 -1.4048 -1.7337
   23MOL   H353 9637   1.289   3.075   6.163  0.8408  2.0171  0.6141
   23MOL   H354 9638   1.586   3.071   6.090 -0.3436  0.9951 -0.1672
   23MOL   H355 9639   1.519   2.991   6.232 -0.5257 -1.1923 -1.2633
   23MOL   H356 9640   1.490   3.292   6.229 -1.3242 -1.2209 -2.2122
   23MOL   H357 9641   1.647   3.213   6.286 -0.8207  1.5565  3.1461
   23MOL   H358 9642   1.500   3.180   6.354  1.8210  0.1245  0.5145
   23MOL   C359 9643   0.951   2.914   5.968  0.4771  0.0086  0.1496
   23MOL   C360 9644   0.804   2.887   5.944  0.2359 -0.1454  0.0730
   23MOL   C361 9645   0.753   2.736   5.972  0.4946 -0.4311 -0.0991
   23MOL   O362 9646   0.774   2.685   6.085  0.5273 -0.5370  0.1273
   23MOL   O363 9647   0.709   2.682   5.868  0.1666 -0.3260  0.0354
   23MOL   C364 9648   0.684   2.543   5.858 -0.5571 -0.3718  0.1257
   23MOL   C365 9649   0.644   2.525   5.713 -0.6346 -0.6264  1.0369
   23MOL   C366 9650   0.751   2.561   5.611  0.0488 -0.1496 -0.3838
   23MOL   C367 9651   0.703   2.519   5.469 -0.6909  0.2888 -0.2294
   23MOL   H368 9652   0.976   3.019   5.982 -1.4576  0.7032 -1.3804
   23MOL   H369 9653   0.975   2.877   6.067 -2.9118 -3.2907 -0.1409
   23MOL   H370 9654   0.785   2.911   5.840 -0.8697 -0.4274  0.2029
   23MOL   H371 9655   0.597   2.502   5.908 -0.2696 -0.1174  0.8382
   23MOL   H372 9656   0.767   2.475   5.879 -1.7063 -1.9181 -0.3046
   23MOL   H373 9657   0.614   2.421   5.700 -1.7948  0.1448 -2.8719
   23MOL   H374 9658   0.562   2.593   5.690 -0.4619 -0.3140  1.3209
   23MOL   H375 9659   0.838   2.497   5.627  0.6656  0.4519 -1.2970
   23MOL   H376 9660   0.780   2.664   5.631 -0.9304 -0.1570  1.1491
   23MOL   H377 9661   0.615   2.563   5.423  0.3460 -0.7752 -3.4055
   23MOL   H378 9662   0.716   2.413   5.447  0.3465  0.6773 -1.6018
   23MOL   H379 9663   0.781   2.552   5.400 -1.6274 -0.2406 -1.5768
   23MOL   C380 9664   0.710   2.984   6.020  0.5537 -0.6922 -0.3844
   23MOL   C381 9665   0.730   3.138   5.994  0.0454  0.3979 -0.0671
   23MOL   C382 9666   0.744   3.166   5.847  0.2316  0.4038  0.4052
   23MOL   O383 9667   0.851   3.212   5.810 -0.0758 -0.2090  0.1619
   23MOL   O384 9668   0.643   3.135   5.768 -0.1845 -0.1902  0.1513
   23MOL   C385 9669   0.648   3.155   5.629 -0.2085 -0.1562 -0.0584
   23MOL   C386 9670   0.696   3.028   5.550 -0.1788 -0.1431 -0.2313
   23MOL   C387 9671   0.601   2.906   5.574 -0.5844 -0.3151 -0.8711
   23MOL   C388 9672   0.462   2.919   5.509 -0.2456  0.4851 -0.4968
   23MOL   H389 9673   0.731   2.973   6.126 -1.8905 -1.4531  0.0428
   23MOL   H390 9674   0.605   2.965   6.002  0.5495 -1.5819  0.5528
   23MOL   H391 9675   0.820   3.164   6.050  0.4021  2.0735 -1.3475
   23MOL   H392 9676   0.697   3.249   5.602  0.0235 -0.3237 -0.2196
   23MOL   H393 9677   0.543   3.167   5.605  0.0455 -3.0254 -2.8383
   23MOL   H394 9678   0.685   3.032   5.441 -0.1422  1.0507 -0.1945
   23MOL   H395 9679   0.798   3.002   5.577 -0.0698  0.7813  0.2599
   23MOL   H396 9680   0.599   2.899   5.683 -3.9028 -1.6661 -0.9601
   23MOL   H397 9681   0.650   2.821   5.529  2.9602  0.9086  0.4809
   23MOL   H398 9682   0.400   3.005   5.534  0.6267  0.4371  1.9779
   23MOL   H399 9683   0.399   2.831   5.513  0.6590 -0.1983 -1.0173
   23MOL   H400 9684   0.481   2.934   5.403  2.5654  0.0469 -0.0898
   23MOL   C401 9685   0.620   3.225   6.055 -1.3288  0.5989  0.1666
   23MOL   C402 9686   0.653   3.380   6.064  0.3338 -0.0939  0.5910
   23MOL   C403 9687   0.555   3.451   6.162 -0.1437 -0.3724  0.5993
   23MOL   O404 9688   0.604   3.504   6.258 -0.1577 -0.3881  0.0200
   23MOL   O405 9689   0.427   3.441   6.123 -0.4589  0.5274  0.0015
   23MOL   C406 9690   0.326   3.469   6.218  0.2339  0.1083 -0.1605
   23MOL   C407 9691   0.185   3.430   6.176 -0.1369 -0.0374 -0.4009
   23MOL   C408 9692   0.165   3.284   6.156  0.1237  0.2170  0.0883
   23MOL   C409 9693   0.156   3.213   6.288 -0.2549  0.2179  0.6285
   23MOL   H410 9694   0.586   3.188   6.152  1.0184 -1.3246  0.3049
   23MOL   H411 9695   0.533   3.220   5.990 -1.0120  2.2836 -0.3949
   23MOL   H412 9696   0.646   3.431   5.968  0.0819 -1.0549  0.0942
   23MOL   H413 9697   0.325   3.573   6.248 -0.0503  0.2730 -0.7281
   23MOL   H414 9698   0.357   3.411   6.305 -0.2665 -2.8716 -1.8682
   23MOL   H415 9699   0.124   3.469   6.258 -2.5875  0.4156 -2.4050
   23MOL   H416 9700   0.144   3.483   6.091 -1.3549 -3.0337 -1.7662
   23MOL   H417 9701   0.241   3.245   6.088  0.5942 -1.0635  1.3176
   23MOL   H418 9702   0.071   3.277   6.101  0.8742  2.9254 -1.6640
   23MOL   H419 9703   0.052   3.214   6.324  0.2587 -2.1570  2.3200
   23MOL   H420 9704   0.225   3.256   6.361  0.4164 -0.4175  0.3582
   23MOL   H421 9705   0.177   3.108   6.269 -1.6020  0.2690 -1.2349
   23MOL   H422 9706   0.750   3.399   6.109  0.2872  1.4639  0.0431
   24MOL     C1 9707   3.036   7.643   7.282 -0.0855  0.3579 -0.3415
   24MOL     C2 9708   3.140   7.721   7.364  0.3891  0.5843  0.3340
   24MOL     C3 9709   3.242   7.633   7.424  0.0646  0.1535  0.4029
   24MOL     O4 9710   3.245   7.627   7.549 -0.6786  0.1817  0.2561
   24MOL     O5 9711   3.326   7.566   7.337  0.2918  0.2478 -0.3115
   24MOL     C6 9712   3.446   7.510   7.384  0.2476 -0.3854 -1.0029
   24MOL     C7 9713   3.550   7.484   7.285 -0.5016  0.2079 -0.6456
   24MOL     C8 9714   3.614   7.596   7.202  0.3096  0.0599 -0.1338
   24MOL     C9 9715   3.734   7.656   7.268 -0.6193 -0.2366  0.1695
   24MOL    H10 9716   2.976   7.579   7.348  1.3063  0.3064  0.8938
   24MOL    H11 9717   2.975   7.699   7.212 -1.2153 -0.5598 -0.1232
   24MOL    H12 9718   3.086   7.757   7.451 -0.0686  0.0695  0.2614
   24MOL    H13 9719   3.435   7.412   7.431  1.5319  0.8272  1.9739
   24MOL    H14 9720   3.493   7.578   7.455  1.1881 -0.0008 -1.9900
   24MOL    H15 9721   3.628   7.432   7.341 -2.7092 -1.7351  0.7010
   24MOL    H16 9722   3.511   7.406   7.220 -0.6143  1.8450 -2.5903
   24MOL    H17 9723   3.553   7.687   7.193  0.7895  0.0904 -4.2258
   24MOL    H18 9724   3.646   7.566   7.102 -0.7642 -1.6713  0.0286
   24MOL    H19 9725   3.709   7.723   7.351 -1.3760 -0.8028  0.4051
   24MOL    H20 9726   3.795   7.706   7.193  0.8011  0.8344  1.9592
   24MOL    H21 9727   3.789   7.581   7.325  2.6647  1.6127 -0.3859
   24MOL    H22 9728   3.077   7.568   7.215 -1.7158  0.0641 -1.0410
   24MOL    C23 9729   3.202   7.837   7.282  0.5029  0.0870 -0.1028
   24MOL    C24 9730   3.113   0.108   7.255  0.5644  0.7537  0.7925
   24MOL    C25 9731   3.049   0.176   7.374 -0.1934 -0.5092  0.3573
   24MOL    O26 9732   2.934   0.211   7.369  0.1360  0.0958 -0.1036
   24MOL    O27 9733   3.137   0.185   7.473  0.8541  0.3121  0.0858
   24MOL    C28 9734   3.093   0.239   7.597  0.3415 -0.3840 -0.6458
   24MOL    C29 9735   3.079   0.120   7.697  1.1792 -0.0353 -0.1727
   24MOL    C30 9736   3.035   0.156   7.836 -0.1010 -0.4243 -0.4104
   24MOL    C31 9737   2.971   0.048   0.076 -0.5039  0.5948  0.0015
   24MOL    H32 9738   3.242   7.792   7.191 -0.9077  0.2228 -0.7973
   24MOL    H33 9739   3.289   0.013   7.341 -0.7558  1.7001  0.9778
   24MOL    H34 9740   3.034   0.070   7.190  0.7513 -1.6548  1.9430
   24MOL    H35 9741   2.994   0.285   7.597  0.7844  0.5694 -0.9776
   24MOL    H36 9742   3.164   0.317   7.622 -0.3998  0.2069 -0.3594
   24MOL    H37 9743   2.996   0.064   7.654  3.1980 -5.2461  2.2572
   24MOL    H38 9744   3.169   0.060   7.698  0.1527 -1.8603 -4.6523
   24MOL    H39 9745   2.960   0.233   7.817  0.4967 -0.4111 -2.8952
   24MOL    H40 9746   3.116   0.211   0.032 -1.1704  1.5002 -0.7311
   24MOL    H41 9747   3.023   7.807   0.055  0.1650  0.8323  0.5809
   24MOL    H42 9748   2.864   0.045   0.056 -0.3450  1.0621 -0.9283
   24MOL    H43 9749   3.003   0.076   0.177  1.9760 -0.8268 -0.3487
   24MOL    C44 9750   3.200   0.213   7.174 -0.0746  0.1690 -0.3464
   24MOL    C45 9751   3.242   0.171   7.038 -0.0639  0.9415  0.6629
   24MOL    C46 9752   3.128   0.141   6.940 -0.6441  0.5244  0.1561
   24MOL    O47 9753   3.127   0.048   6.860  0.5589  0.1572  0.0779
   24MOL    O48 9754   3.038   0.232   6.954  0.0194 -0.4048  0.5330
   24MOL    C49 9755   2.923   0.244   6.874  0.4884 -0.0229  0.3979
   24MOL    C50 9756   2.826   0.345   6.950  0.3364  0.4923  1.2906
   24MOL    C51 9757   2.895   0.481   6.973 -0.0458 -0.7534  0.5093
   24MOL    C52 9758   2.929   0.543   6.831 -0.5965 -0.0056  0.5055
   24MOL    H53 9759   3.287   0.238   7.235 -1.8669  0.5108  2.1691
   24MOL    H54 9760   3.145   0.307   7.164  0.4590  0.4484 -0.6954
   24MOL    H55 9761   3.291   0.074   7.053  0.1525  0.8339 -0.6703
   24MOL    H56 9762   2.883   0.144   6.860 -0.7002  0.2843  1.4458
   24MOL    H57 9763   2.947   0.258   6.769  1.8618 -2.3148  0.3701
   24MOL    H58 9764   2.731   0.355   6.898  0.7008 -1.4582  0.2068
   24MOL    H59 9765   2.795   0.298   7.043  0.1530  0.6286  1.2995
   24MOL    H60 9766   2.986   0.467   7.032 -1.5995  0.2797  3.2694
   24MOL    H61 9767   2.827   0.549   7.025 -2.1043 -1.3609 -1.3371
   24MOL    H62 9768   2.974   0.642   6.844  1.3966 -0.5863 -1.5512
   24MOL    H63 9769   2.839   0.561   6.773 -0.6056  1.1078  0.8616
   24MOL    H64 9770   2.996   0.478   6.775  0.5290  0.3888  1.3654
   24MOL    C65 9771   3.340   0.273   6.963  0.1782 -0.3026 -0.3438
   24MOL    C66 9772   3.476   0.214   6.937 -0.1914 -0.3105 -0.2811
   24MOL    C67 9773   3.555   0.185   7.063 -0.1187  0.2282  0.0709
   24MOL    O68 9774   3.554   0.066   7.100 -0.7522 -0.0455  0.6259
   24MOL    O69 9775   3.606   0.288   7.125  0.2583 -0.6410 -0.0247
   24MOL    C70 9776   3.661   0.268   7.256 -0.1887  0.1159  0.3105
   24MOL    C71 9777   3.650   0.400   7.342  0.2469 -0.3222 -0.2642
   24MOL    C72 9778   3.509   0.445   7.374  0.3833  0.4981  0.4059
   24MOL    C73 9779   3.439   0.367   7.479 -0.5331  0.1623  0.6890
   24MOL    H74 9780   3.351   0.366   7.020 -0.0891 -0.5264  0.0748
   24MOL    H75 9781   3.293   0.307   6.871  1.5026 -1.1231 -1.3393
   24MOL    H76 9782   3.526   0.293   6.879  0.0632  0.3381  0.8028
   24MOL    H77 9783   3.763   0.232   7.239 -0.5847 -0.0287 -1.9046
   24MOL    H78 9784   3.599   0.196   7.309 -0.8613  1.0172  0.7532
   24MOL    H79 9785   3.706   0.376   7.433  1.0662 -0.8947 -0.9047
   24MOL    H80 9786   3.694   0.483   7.285 -0.0370 -0.0956 -0.1519
   24MOL    H81 9787   3.450   0.441   7.282  2.2474 -1.6716 -0.7339
   24MOL    H82 9788   3.508   0.551   7.402 -2.3974  0.5344  0.3432
   24MOL    H83 9789   3.414   0.266   7.449 -0.7693 -0.0513  1.5900
   24MOL    H84 9790   3.347   0.425   7.478 -0.0703  0.9258  1.4846
   24MOL    H85 9791   3.488   0.384   7.575  0.1130 -1.5012  0.6693
   24MOL    C86 9792   3.470   0.096   6.835  0.8587 -0.2206 -0.8581
   24MOL    C87 9793   3.414   0.136   6.686  0.0353  0.6734 -0.5962
   24MOL    C88 9794   3.522   0.213   6.606 -0.3825 -0.5285 -0.5011
   24MOL    O89 9795   3.639   0.203   6.641 -0.8289  0.5172 -0.5453
   24MOL    O90 9796   3.466   0.290   6.514  0.3480 -0.4924  0.4680
   24MOL    C91 9797   3.542   0.389   6.432  0.0748 -0.1938  0.0581
   24MOL    C92 9798   3.472   0.519   6.441 -0.0778  0.4509  0.2475
   24MOL    C93 9799   3.338   0.516   6.370 -0.0910 -0.4818  0.1378
   24MOL    C94 9800   3.251   0.646   6.393 -0.2148 -0.4188  0.0098
   24MOL    H95 9801   3.414   0.012   6.875 -1.3634  1.0262 -1.2906
   24MOL    H96 9802   3.574   0.062   6.828  0.6924 -0.5512 -1.8428
   24MOL    H97 9803   3.324   0.196   6.685 -0.4236  0.0086  0.3173
   24MOL    H98 9804   3.539   0.358   6.328  0.6295  1.1362 -0.3698
   24MOL    H99 9805   3.646   0.397   6.464 -0.0875  1.1130  0.2998
   24MOL   H100 9806   3.452   0.528   6.548 -2.4436 -2.7512  0.1361
   24MOL   H101 9807   3.534   0.595   6.394  2.2564 -2.1232 -0.9197
   24MOL   H102 9808   3.281   0.428   6.401 -1.0358  0.0993  0.0625
   24MOL   H103 9809   3.355   0.506   6.263  1.7243 -2.8730  0.6136
   24MOL   H104 9810   3.316   0.725   6.356  0.3193 -1.1626 -0.6794
   24MOL   H105 9811   3.237   0.651   6.501 -0.1200  0.9806 -0.0439
   24MOL   H106 9812   3.163   0.640   6.330  0.0798  0.8106 -0.5257
   24MOL   C107 9813   3.371   0.005   6.622  0.2480 -0.0108  0.0384
   24MOL   C108 9814   3.317   0.007   6.479 -0.1672 -0.1534  1.1386
   24MOL   C109 9815   3.281   7.713   6.437  0.4490 -0.5711 -0.0445
   24MOL   O110 9816   3.353   7.642   6.378  0.2818 -0.3694 -0.2010
   24MOL   O111 9817   3.155   7.678   6.478  0.3423  0.4863 -0.0501
   24MOL   C112 9818   3.088   7.564   6.436 -0.4443  0.0480  0.0468
   24MOL   C113 9819   3.031   7.588   6.295 -0.0671  0.1266 -0.5330
   24MOL   C114 9820   2.946   7.477   6.236  0.0734  0.5612 -0.6375
   24MOL   C115 9821   3.017   7.342   6.207  0.4990 -0.3618  0.2310
   24MOL   H116 9822   3.292   7.812   6.681  0.5056 -1.3487 -0.6588
   24MOL   H117 9823   3.449   7.783   6.626 -0.3407 -0.7678 -2.0075
   24MOL   H118 9824   3.388   0.046   6.406 -1.5084  1.8724  0.9113
   24MOL   H119 9825   3.004   7.547   6.504  0.3292 -0.0014  1.0060
   24MOL   H120 9826   3.148   7.473   6.429 -0.7905 -0.0840 -1.4901
   24MOL   H121 9827   2.966   7.676   6.299 -0.3609 -0.1566  1.8162
   24MOL   H122 9828   3.113   7.610   6.226  0.2116  0.4399 -0.1110
   24MOL   H123 9829   2.904   7.516   6.143 -0.6651  2.1082  0.3380
   24MOL   H124 9830   2.865   7.448   6.303 -0.0149 -0.2530 -1.0888
   24MOL   H125 9831   3.037   7.297   6.304 -0.8122  0.6784  1.0041
   24MOL   H126 9832   3.115   7.365   6.165  0.5886  0.6141  0.9482
   24MOL   H127 9833   2.951   7.277   6.149 -1.2175  1.5278 -0.0279
   24MOL   C128 9834   3.190   0.097   6.464  0.3341  0.5242 -0.2574
   24MOL   C129 9835   3.146   0.124   6.319  0.5418  0.1860  0.6334
   24MOL   C130 9836   3.008   0.184   6.314  0.3106  0.2369  0.5209
   24MOL   O131 9837   2.902   0.123   6.273  0.1590  0.1175  0.1381
   24MOL   O132 9838   3.018   0.311   6.359 -0.2683 -0.3734  0.1915
   24MOL   C133 9839   2.901   0.392   6.362  0.0895  0.5060  0.1200
   24MOL   C134 9840   2.903   0.524   6.444  0.2881 -0.4746  0.2236
   24MOL   C135 9841   2.783   0.617   6.423  1.0533 -0.0768 -0.4266
   24MOL   C136 9842   2.788   0.750   6.493 -0.1765 -0.3128  0.0639
   24MOL   H137 9843   3.208   0.194   6.510  0.2189 -0.0405  0.9943
   24MOL   H138 9844   3.109   0.065   6.529 -0.0273 -0.6334 -1.2427
   24MOL   H139 9845   3.121   0.030   6.269 -1.9905  0.6965  0.8615
   24MOL   H140 9846   2.816   0.328   6.385 -0.1228  0.5506 -0.5262
   24MOL   H141 9847   2.885   0.420   6.258  1.0120  0.6904  0.0218
   24MOL   H142 9848   2.928   0.503   6.548 -2.3310 -1.4262  0.6930
   24MOL   H143 9849   2.987   0.586   6.412 -0.2696 -0.8283 -1.9763
   24MOL   H144 9850   2.694   0.563   6.456 -0.5391  2.1726 -0.9485
   24MOL   H145 9851   2.767   0.640   6.318 -1.3835 -0.8938 -0.2532
   24MOL   H146 9852   2.706   0.813   6.459 -0.6684 -0.7609  0.3905
   24MOL   H147 9853   2.882   0.801   6.474 -0.5808  0.6465  0.6325
   24MOL   H148 9854   2.789   0.738   6.601 -2.0967 -1.9622 -0.0615
   24MOL   C149 9855   3.251   0.198   6.230 -0.1835 -0.0899 -0.3332
   24MOL   C150 9856   3.308   0.123   6.108  0.2152  0.6148 -0.3466
   24MOL   C151 9857   3.195   0.112   6.002  0.1828  0.0144  0.2108
   24MOL   O152 9858   3.175   0.202   5.917 -0.0477  0.4356  0.1870
   24MOL   O153 9859   3.118   0.010   6.011  0.4664  0.0659 -0.0026
   24MOL   C154 9860   3.003   7.849   5.934  0.2801 -0.0881 -0.2049
   24MOL   C155 9861   2.955   7.708   5.963 -0.7531 -1.0712  0.2118
   24MOL   C156 9862   2.882   7.662   5.826  0.3154 -0.8945 -0.1690
   24MOL   C157 9863   2.839   7.513   5.826 -0.5539 -0.2799 -0.1588
   24MOL   H158 9864   3.335   0.229   6.292 -0.7341  2.0109 -0.6122
   24MOL   H159 9865   3.209   0.288   6.186 -1.2034 -0.9716 -1.1948
   24MOL   H160 9866   3.333   0.021   6.139  1.7733 -0.2079 -4.0485
   24MOL   H161 9867   3.030   0.008   5.829 -1.9026  3.7747 -0.3892
   24MOL   H162 9868   2.930   0.065   5.976  1.5236  0.9907  0.2044
   24MOL   H163 9869   3.036   7.638   5.986  0.4717 -0.2010 -1.3672
   24MOL   H164 9870   2.891   7.711   6.051  1.0248 -1.2156  1.5470
   24MOL   H165 9871   2.950   7.675   5.741 -0.9625  1.0141 -0.9377
   24MOL   H166 9872   2.798   7.731   5.815  0.2375 -0.8144  0.9149
   24MOL   H167 9873   2.786   7.493   5.733 -0.1401  0.4116 -0.5488
   24MOL   H168 9874   2.781   7.485   5.914 -2.8635  0.0964 -1.5221
   24MOL   H169 9875   2.920   7.441   5.837  0.0190  0.3902  0.0559
   24MOL   C170 9876   3.428   0.194   6.058 -0.1559  0.4294 -0.3648
   24MOL   C171 9877   3.518   0.102   5.963 -0.6580 -0.0137 -0.2927
   24MOL   C172 9878   3.478   0.107   5.817  0.3622  0.1463 -0.9167
   24MOL   O173 9879   3.458   0.216   5.757  0.3521  0.0280 -0.2282
   24MOL   O174 9880   3.461   7.838   5.761  0.1419 -0.0573 -0.0026
   24MOL   C175 9881   3.405   7.808   5.629 -0.0365 -0.9842 -0.3623
   24MOL   C176 9882   3.303   7.697   5.648  0.1266 -0.1620 -0.6170
   24MOL   C177 9883   3.351   7.550   5.695 -0.7140  0.0866 -0.2208
   24MOL   C178 9884   3.238   7.466   5.747 -0.4023  0.4532  0.0387
   24MOL   H179 9885   3.489   0.223   6.144 -1.1133  2.1539 -0.2364
   24MOL   H180 9886   3.395   0.289   6.016 -3.1091 -0.1527  0.4822
   24MOL   H181 9887   3.508   7.849   5.988  0.0151 -0.5491 -2.2387
   24MOL   H182 9888   3.484   7.775   5.562  0.9006  2.2752 -0.9457
   24MOL   H183 9889   3.359   0.039   5.577  2.8934  1.1694  0.4392
   24MOL   H184 9890   3.223   7.733   5.712  1.6500  1.6913  0.3181
   24MOL   H185 9891   3.244   7.681   5.557 -0.2410 -1.6354 -0.1259
   24MOL   H186 9892   3.432   7.546   5.767 -2.9171 -0.8056  2.3171
   24MOL   H187 9893   3.403   7.505   5.611  0.0653 -0.3125  0.4774
   24MOL   H188 9894   3.154   7.474   5.679  0.5868 -0.0758 -1.2703
   24MOL   H189 9895   3.207   7.492   5.848 -1.4579 -0.3298 -0.0680
   24MOL   H190 9896   3.281   7.365   5.742  2.4158  1.3208  3.8842
   24MOL   C191 9897   3.667   0.136   5.971  0.2192 -0.2719 -0.2219
   24MOL   C192 9898   3.755   0.023   6.037  0.2240  0.0093  0.2026
   24MOL   C193 9899   3.818   7.799   5.920  0.2486  0.6319  0.1924
   24MOL   O194 9900   3.935   7.803   5.897  0.0473 -0.2888  0.0425
   24MOL   O195 9901   3.730   7.725   5.846 -0.4711  0.1531  0.4865
   24MOL   C196 9902   3.778   7.646   5.731 -0.0317  0.5754 -0.5457
   24MOL   C197 9903   3.807   7.500   5.786 -0.0115 -0.0704 -0.2376
   24MOL   C198 9904   3.960   7.489   5.799 -0.4639  1.2400  0.6631
   24MOL   C199 9905   3.999   7.345   5.815 -0.8506  0.3339 -0.1583
   24MOL   H200 9906   3.680   0.228   6.028  2.8062  0.7650 -2.3888
   24MOL   H201 9907   3.702   0.161   5.871 -0.7221  1.0301 -0.2322
   24MOL   H202 9908   3.699   7.801   6.094  0.7090 -2.4147 -2.3764
   24MOL   H203 9909   3.871   7.691   5.697 -0.2983  0.9637 -0.7666
   24MOL   H204 9910   3.708   7.647   5.648 -0.7103  1.1006  0.0240
   24MOL   H205 9911   3.754   7.486   5.880  1.1264 -0.4750  0.3403
   24MOL   H206 9912   3.759   7.426   5.722 -2.3021  0.0946  1.2079
   24MOL   H207 9913   3.997   7.553   5.879  1.8191 -0.0998  0.6975
   24MOL   H208 9914   4.024   7.520   5.716  1.2160  2.7491  2.4607
   24MOL   H209 9915   4.100   7.333   5.854 -1.2973 -0.8233  0.6692
   24MOL   H210 9916   4.001   7.284   5.725 -1.2092 -2.6052  1.7580
   24MOL   H211 9917   3.944   7.292   5.894 -0.9962  0.7810  0.0460
   24MOL   C212 9918   3.858   0.074   6.132 -0.7011  0.5434 -0.5726
   24MOL   C213 9919   3.802   0.125   6.264 -0.2810  0.3602 -0.0424
   24MOL   C214 9920   3.750   0.008   6.354  0.5113 -0.2888 -0.3209
   24MOL   O215 9921   3.628   7.838   6.361 -0.2350 -0.3203  0.1600
   24MOL   O216 9922   3.847   7.804   6.426  0.5323 -0.3551 -0.9053
   24MOL   C217 9923   3.810   7.732   6.540  0.2970 -0.0540  0.1202
   24MOL   C218 9924   3.929   7.739   6.635 -0.5030  0.1799  0.5599
   24MOL   C219 9925   3.890   7.672   6.770  0.2453 -0.2486 -0.0892
   24MOL   C220 9926   4.015   7.631   6.840  0.2313 -0.2433  0.1437
   24MOL   H221 9927   3.923   0.149   6.086  0.0027  1.7479  2.2862
   24MOL   H222 9928   3.939   0.009   6.167 -0.4091  0.6504 -1.0421
   24MOL   H223 9929   3.707   0.171   6.235  0.4775  2.0486  0.0665
   24MOL   H224 9930   3.775   7.630   6.522 -1.0133  0.4433 -0.1839
   24MOL   H225 9931   3.724   7.777   6.590  0.0748 -0.3891  0.0409
   24MOL   H226 9932   4.005   7.681   6.582 -0.7044 -0.4850  0.9893
   24MOL   H227 9933   3.966   7.841   6.637 -2.9316  1.1594 -2.0570
   24MOL   H228 9934   3.821   7.588   6.756  1.2339 -1.1187  0.1800
   24MOL   H229 9935   3.826   7.747   6.816  0.7049 -0.9919  1.8401
   24MOL   H230 9936   4.059   7.538   6.804  1.2942  0.3103 -0.0375
   24MOL   H231 9937   3.996   7.633   6.948 -2.0240  0.9925 -0.2585
   24MOL   H232 9938   4.094   7.705   6.825 -1.3770  2.1463  2.9061
   24MOL   C233 9939   3.879   0.228   6.348 -0.8802  0.2693  0.0489
   24MOL   C234 9940   3.952   0.351   6.283  0.6006  0.0311  0.1625
   24MOL   C235 9941   3.854   0.445   6.212  0.6620 -0.2291  0.1173
   24MOL   O236 9942   3.745   0.402   6.177  0.3862 -0.2510  0.0455
   24MOL   O237 9943   3.900   0.569   6.192  0.4585  0.1156  0.0079
   24MOL   C238 9944   3.819   0.675   6.143 -0.3934  0.2365  0.4258
   24MOL   C239 9945   3.807   0.785   6.251 -0.5664 -0.5230  0.7272
   24MOL   C240 9946   3.750   0.919   6.201  0.0134  0.3118  0.5611
   24MOL   C241 9947   3.599   0.934   6.184  0.6460 -0.5090 -0.2423
   24MOL   H242 9948   3.961   0.185   6.405 -1.0626  1.9592  1.6133
   24MOL   H243 9949   3.819   0.276   6.425 -0.8623  1.2480 -0.5466
   24MOL   H244 9950   4.013   0.312   6.202 -1.1986  0.7306 -1.5657
   24MOL   H245 9951   3.717   0.639   6.128 -0.5415  1.6044 -2.0894
   24MOL   H246 9952   3.869   0.710   6.053  1.9206 -1.7446  0.8889
   24MOL   H247 9953   3.767   0.748   6.346  2.6619 -1.5004  1.7415
   24MOL   H248 9954   3.904   0.818   6.287 -0.5516 -1.4766  1.5870
   24MOL   H249 9955   3.798   0.941   6.105 -0.2955  1.7009  0.7162
   24MOL   H250 9956   3.791   0.996   6.266  1.1716 -0.0779  0.3044
   24MOL   H251 9957   3.555   1.030   6.210  1.8792 -0.0973  0.3918
   24MOL   H252 9958   3.550   0.875   6.261 -0.1646 -1.9005 -1.8236
   24MOL   H253 9959   3.562   0.903   6.087 -0.6441 -1.0181  0.4088
   24MOL   C254 9960   4.065   0.422   6.367 -0.4024 -0.5423 -0.1191
   24MOL   C255 9961   4.020   0.538   6.464 -0.7431  0.1466  0.1852
   24MOL   C256 9962   3.926   0.489   6.576  0.5626  0.0906 -0.4473
   24MOL   O257 9963   3.823   0.547   6.594  0.0191 -0.4334  0.7273
   24MOL   O258 9964   3.964   0.368   6.638 -0.2540 -0.2004 -0.3817
   24MOL   C259 9965   3.893   0.315   6.745 -0.1771  0.2856  0.4610
   24MOL   C260 9966   3.985   0.322   6.869  0.3754  0.0012  0.3339
   24MOL   C261 9967   3.938   0.237   6.988  0.7354  0.1250  0.4061
   24MOL   C262 9968   4.023   0.254   7.111 -0.0236  0.1167 -0.2648
   24MOL   H263 9969   4.132   0.457   6.289  0.0290 -0.7545  0.1491
   24MOL   H264 9970   4.117   0.347   6.427 -0.5763 -0.1930  0.4787
   24MOL   H265 9971   3.966   0.616   6.411  2.8217  1.0866 -2.2755
   24MOL   H266 9972   3.861   0.216   6.712  0.1158 -0.2213  1.6629
   24MOL   H267 9973   3.797   0.360   6.773 -1.1597  0.3295 -2.7842
   24MOL   H268 9974   4.087   0.301   6.836 -0.5859 -1.6599 -1.7175
   24MOL   H269 9975   3.981   0.427   6.898 -1.9491 -0.0342  0.2456
   24MOL   H270 9976   3.940   0.135   6.949  2.5036 -0.1710  1.2362
   24MOL   H271 9977   3.835   0.267   7.008  0.6077  0.7477 -1.1525
   24MOL   H272 9978   4.068   0.351   7.133 -0.1211  0.2562 -0.6738
   24MOL   H273 9979   4.109   0.191   7.087 -1.6994 -1.2195 -3.0501
   24MOL   H274 9980   3.969   0.209   7.195  1.2045  2.1025  1.6224
   24MOL   C275 9981   4.151   0.615   6.500 -0.2313  0.7082  0.1818
   24MOL   C276 9982   4.160   0.716   6.607 -0.0145 -0.3560 -0.9418
   24MOL   C277 9983   4.078   0.843   6.587  0.7270 -0.8297  0.5904
   24MOL   O278 9984   3.962   0.843   6.633  0.1113 -0.4240 -0.1953
   24MOL   O279 9985   4.127   0.934   6.505  0.2935  0.0202 -0.9018
   24MOL   C280 9986   4.051   1.044   6.463 -0.1975  0.2829  0.7300
   24MOL   C281 9987   4.068   1.169   6.554  0.3895 -0.5893 -0.2864
   24MOL   C282 9988   4.211   1.234   6.549 -0.2257  0.1694 -0.2730
   24MOL   C283 9989   4.316   1.166   6.652 -0.4144 -0.5340 -0.0453
   24MOL   H284 9990   4.184   0.660   6.406  0.3680 -1.5765 -0.7327
   24MOL   H285 9991   4.229   0.542   6.521  0.7943  2.1827  1.6706
   24MOL   H286 9992   4.264   0.750   6.604 -0.2456  0.5625  0.6771
   24MOL   H287 9993   3.947   1.014   6.449 -0.2225  1.3490 -1.6579
   24MOL   H288 9994   4.083   1.068   6.362 -2.0905  1.2753  0.3452
   24MOL   H289 9995   3.991   1.240   6.526  0.5612 -0.8473 -1.4396
   24MOL   H290 9996   4.028   1.152   6.654 -1.4763 -0.4354 -0.9814
   24MOL   H291 9997   4.205   1.338   6.578  0.0773  0.0888  0.0729
   24MOL   H292 9998   4.246   1.237   6.446  0.0510  0.3156 -0.1723
   24MOL   H293 9999   4.267   1.184   6.748  0.7420 -0.9306  0.6240
   24MOL   H29410000   4.405   1.229   6.657  0.7282 -2.2341  1.3930
   24MOL   H29510001   4.341   1.061   6.637  1.3332 -0.0988 -0.2894
   24MOL   C29610002   4.138   0.651   6.745  0.2342  0.2356 -0.1879
   24MOL   C29710003   4.200   0.702   6.873 -0.7807 -0.0198 -0.3515
   24MOL   C29810004   4.357   0.681   6.865 -0.1092  0.3240  0.0503
   24MOL   O29910005   4.407   0.593   6.933  0.1048 -0.0321  0.6947
   24MOL   O30010006   4.427   0.764   6.780  0.2539 -0.1591 -0.5478
   24MOL   C30110007   4.564   0.730   6.768  0.4919 -0.0162  0.3182
   24MOL   C30210008   4.632   0.855   6.723 -0.1158 -0.4863 -0.2090
   24MOL   C30310009   4.628   0.975   6.822 -0.2600  0.2424  0.0401
   24MOL   C30410010   4.696   1.101   6.767 -1.0320 -0.5761  0.0014
   24MOL   H30510011   4.162   0.547   6.724  2.3478  0.8015 -0.6150
   24MOL   H30610012   4.032   0.648   6.773  0.5740 -0.5521  1.0225
   24MOL   H30710013   4.170   0.630   6.948 -0.4695 -1.8189 -1.9130
   24MOL   H30810014   4.578   0.645   6.701 -2.2394 -0.8925  0.7993
   24MOL   H30910015   4.602   0.695   6.864 -1.0508 -0.7256  0.6971
   24MOL   H31010016   4.736   0.829   6.703 -0.1365 -0.1979 -0.7334
   24MOL   H31110017   4.588   0.890   6.629  1.3490  0.1635 -0.6635
   24MOL   H31210018   4.682   0.949   6.914 -1.5107 -2.9323 -0.0277
   24MOL   H31310019   4.528   1.006   6.853 -0.0717 -0.2490  1.1933
   24MOL   H31410020   4.805   1.099   6.761 -0.7854 -2.2387  3.4873
   24MOL   H31510021   4.674   1.188   6.829  0.5646  1.6158 -2.4160
   24MOL   H31610022   4.661   1.132   6.669 -0.9667  1.4447  0.5948
   24MOL   C31710023   4.167   0.848   6.902 -0.3329 -0.0436  0.1170
   24MOL   C31810024   4.240   0.909   7.034  0.1264 -0.4402  0.2695
   24MOL   C31910025   4.211   1.060   7.055 -0.3092  0.2062 -0.3336
   24MOL   O32010026   4.125   1.116   6.991 -0.3523  0.6050  0.0747
   24MOL   O32110027   4.286   1.125   7.151  0.4800  0.3322  0.2150
   24MOL   C32210028   4.261   1.257   7.185 -0.0117 -0.9621  0.4181
   24MOL   C32310029   4.337   1.352   7.092  0.0289  0.8130 -0.0243
   24MOL   C32410030   4.485   1.312   7.076 -1.0020 -0.2029 -0.0573
   24MOL   C32510031   4.543   1.396   6.968 -0.6498 -0.8377  0.2233
   24MOL   H32610032   4.059   0.859   6.916 -0.7408 -1.0602 -1.9958
   24MOL   H32710033   4.188   0.903   6.810 -1.1490  1.3303  0.7324
   24MOL   H32810034   4.346   0.913   7.008 -0.1253 -1.7436 -0.9952
   24MOL   H32910035   4.291   1.281   7.287 -1.6982 -0.9574  0.9253
   24MOL   H33010036   4.156   1.283   7.186 -0.6958 -3.5877  0.5749
   24MOL   H33110037   4.286   1.370   6.997 -0.1142 -3.3526 -0.8346
   24MOL   H33210038   4.341   1.450   7.140  0.7315 -0.0728  1.7596
   24MOL   H33310039   4.498   1.208   7.047 -1.8698 -0.9993  2.2654
   24MOL   H33410040   4.538   1.331   7.170 -0.5320 -0.0616 -0.3544
   24MOL   H33510041   4.538   1.501   6.998  1.3446 -0.7379  0.2909
   24MOL   H33610042   4.489   1.384   6.874 -0.2727 -0.4610 -0.0476
   24MOL   H33710043   4.647   1.367   6.949 -0.8999 -1.2778 -0.5034
   24MOL   C33810044   4.218   0.830   7.171  0.1263  0.1756 -0.5605
   24MOL   C33910045   4.083   0.864   7.245  0.7654  0.7660  0.7402
   24MOL   C34010046   3.990   0.747   7.225  0.3260  0.4988  0.5485
   24MOL   O34110047   3.984   0.660   7.314 -0.1883  0.6153 -0.5282
   24MOL   O34210048   3.922   0.745   7.108 -0.0018 -0.2754  0.3696
   24MOL   C34310049   3.843   0.633   7.078  0.0594 -0.4250  0.2882
   24MOL   C34410050   3.747   0.689   6.966  0.4422  0.3201  0.6041
   24MOL   C34510051   3.623   0.596   6.944 -0.2490  0.4617 -0.4306
   24MOL   C34610052   3.537   0.627   6.821 -0.6456 -0.1692  0.4263
   24MOL   H34710053   4.300   0.867   7.233  0.3765 -3.4503  1.3949
   24MOL   H34810054   4.230   0.722   7.158 -1.9783 -0.1944  0.4367
   24MOL   H34910055   4.035   0.958   7.216  1.6220  0.7523 -0.7992
   24MOL   H35010056   3.787   0.611   7.169  1.7210 -1.9589  0.9548
   24MOL   H35110057   3.895   0.542   7.048  0.1706 -0.5632  0.9070
   24MOL   H35210058   3.700   0.780   7.003 -1.0425 -0.2762  0.2221
   24MOL   H35310059   3.796   0.709   6.871 -0.3250 -0.4905  0.0334
   24MOL   H35410060   3.553   0.598   7.028  0.5696  1.3213  0.2394
   24MOL   H35510061   3.651   0.491   6.948 -0.0517  0.5815  1.4941
   24MOL   H35610062   3.500   0.729   6.824 -0.1285  0.0760 -1.1928
   24MOL   H35710063   3.444   0.573   6.842  0.1800 -1.6167  0.4591
   24MOL   H35810064   3.581   0.598   6.725  1.2781 -1.4756  1.6592
   24MOL   C35910065   4.100   0.907   7.392  0.1962 -0.0530  0.2666
   24MOL   C36010066   3.967   0.927   7.478 -0.3234 -0.4545  0.5649
   24MOL   C36110067   4.008   0.938   7.628  0.0739 -0.4646 -0.1008
   24MOL   O36210068   4.108   0.991   7.668  0.0764 -0.3898 -0.1542
   24MOL   O36310069   3.904   0.898   7.702 -0.3928  0.1043  0.2136
   24MOL   C36410070   3.920   0.904   7.844  1.0808  0.3919 -0.3877
   24MOL   C36510071   3.781   0.929   0.062 -0.2015 -0.8209  0.7410
   24MOL   C36610072   3.802   0.951   0.211  0.0091 -0.1088 -0.1989
   24MOL   C36710073   3.681   0.915   0.297 -0.1438  0.2616  0.2653
   24MOL   H36810074   4.166   0.993   7.391  2.5315 -1.7751  0.7848
   24MOL   H36910075   4.163   0.834   7.443 -0.1800 -0.5418  0.0496
   24MOL   H37010076   3.903   0.838   7.478  0.0969 -0.7907 -1.8579
   24MOL   H37110077   3.977   0.991   0.022 -0.8882  0.9520  1.8265
   24MOL   H37210078   3.954   0.807   0.028  0.6724  0.3762 -0.0469
   24MOL   H37310079   3.745   1.026   0.028 -4.6059 -2.7492 -0.3046
   24MOL   H37410080   3.699   0.860   0.046 -2.5152  2.1981 -1.0146
   24MOL   H37510081   3.831   1.056   0.219  2.4586 -0.8741  1.7278
   24MOL   H37610082   3.881   0.889   0.253  0.3352 -0.3789 -1.1961
   24MOL   H37710083   3.657   0.809   0.300  2.3377 -0.3821 -1.0195
   24MOL   H37810084   3.597   0.968   0.253  0.0272 -0.1929 -0.6073
   24MOL   H37910085   3.692   0.960   0.396  0.2843  0.0679  0.3065
   24MOL   C38010086   3.883   1.055   7.428 -0.1619  0.4503  0.1126
   24MOL   C38110087   3.787   1.027   7.316 -0.1585 -0.8157  0.4360
   24MOL   C38210088   3.679   0.927   7.359 -0.0748 -0.0216 -0.3071
   24MOL   O38310089   3.687   0.807   7.326 -0.0133 -0.3853  0.2855
   24MOL   O38410090   3.582   0.967   7.447 -0.3728 -0.4543 -0.0058
   24MOL   C38510091   3.506   0.868   7.515 -0.1310  0.2684 -0.1824
   24MOL   C38610092   3.576   0.825   7.639 -0.8982 -0.2786 -0.5305
   24MOL   C38710093   3.508   0.716   7.724 -0.3694 -0.6924  0.0835
   24MOL   C38810094   3.358   0.746   7.746  0.0286 -0.1048 -0.5820
   24MOL   H38910095   3.945   1.135   7.389  1.3173 -1.2228 -1.0448
   24MOL   H39010096   3.834   1.100   7.515  1.0133  1.6752  0.1582
   24MOL   H39110097   3.838   0.983   7.230 -0.6822  1.2947 -0.9992
   24MOL   H39210098   3.471   0.790   7.447 -0.4795  1.0967 -0.9548
   24MOL   H39310099   3.422   0.930   7.543 -0.2388 -0.4420  1.1208
   24MOL   H39410100   3.675   0.783   7.618 -1.4625 -2.6708  1.2949
   24MOL   H39510101   3.605   0.911   7.699 -0.2535 -1.4704  0.9251
   24MOL   H39610102   3.555   0.705   7.821 -0.8297 -1.1214  0.2585
   24MOL   H39710103   3.518   0.622   7.671 -1.6462 -1.3838  1.0435
   24MOL   H39810104   3.318   0.669   7.812 -2.0032  2.1588  0.9017
   24MOL   H39910105   3.315   0.738   7.646  0.0274 -3.3843 -0.3754
   24MOL   H40010106   3.338   0.836   7.804 -1.6501  0.1455 -1.5252
   24MOL   C40110107   3.723   1.157   7.258 -0.1315  0.9854 -0.7847
   24MOL   C40210108   3.817   1.211   7.151 -0.0070 -0.7270 -1.1723
   24MOL   C40310109   3.786   1.178   7.004 -0.4109 -0.1660  0.3501
   24MOL   O40410110   3.783   1.268   6.913  0.0300  0.0016 -0.1988
   24MOL   O40510111   3.769   1.051   6.983 -0.8728 -0.3782  0.1760
   24MOL   C40610112   3.768   1.009   6.848 -0.0065  0.3511 -0.3740
   24MOL   C40710113   3.626   1.027   6.785 -0.2409  0.0948  0.2870
   24MOL   C40810114   3.597   0.930   6.667 -0.5303  0.2182 -0.5007
   24MOL   C40910115   3.453   0.929   6.616  0.7203  0.0365 -0.3989
   24MOL   H41010116   3.704   1.233   7.334  1.5190 -0.5455  1.2319
   24MOL   H41110117   3.627   1.130   7.214  0.6047 -0.4146 -1.5874
   24MOL   H41210118   3.914   1.165   7.171 -1.1312 -1.2208  3.8232
   24MOL   H41310119   3.803   0.905   6.845  1.0465  0.7228 -1.2643
   24MOL   H41410120   3.847   1.057   6.790  0.2234  0.5957  0.1368
   24MOL   H41510121   3.541   1.002   6.849 -1.4653 -0.6714 -1.6019
   24MOL   H41610122   3.610   1.129   6.753 -0.2725 -0.1360 -0.4403
   24MOL   H41710123   3.630   0.827   6.683  1.5179  1.0979  1.0307
   24MOL   H41810124   3.661   0.949   6.581 -1.3979 -1.0917 -1.4615
   24MOL   H41910125   3.408   1.027   6.609 -0.0419 -0.3315 -0.7313
   24MOL   H42010126   3.394   0.877   6.691 -1.1842 -0.7648 -2.3854
   24MOL   H42110127   3.448   0.856   6.535  2.2218 -0.1008 -0.3842
   24MOL   H42210128   3.813   1.320   7.146 -0.1533 -0.6211  0.8467
   25MOL     C110129   0.452   7.300   7.192  0.2904  0.0158  0.1097
   25MOL     C210130   0.376   7.388   7.091  0.1179  0.7056  0.3476
   25MOL     C310131   0.386   7.535   7.135  0.3207  0.4939  0.3243
   25MOL     O410132   0.429   7.626   7.066 -0.3275  0.4240 -0.3130
   25MOL     O510133   0.332   7.548   7.255 -0.1566 -0.2491 -0.1870
   25MOL     C610134   0.360   7.663   7.332  0.3691  0.2925 -0.5923
   25MOL     C710135   0.314   7.644   7.478 -0.2630 -0.2992  0.4739
   25MOL     C810136   0.402   7.715   7.588  0.1938  0.9108  0.0511
   25MOL     C910137   0.358   7.682   7.729  0.3967 -0.3439  0.2176
   25MOL    H1010138   0.561   7.309   7.198  0.3923 -0.2541 -1.1735
   25MOL    H1110139   0.409   7.307   7.291  1.3395  0.6098  0.5360
   25MOL    H1210140   0.270   7.366   7.102  0.0249  1.0152  0.0729
   25MOL    H1310141   0.286   7.736   7.299 -0.4155  0.2897  1.0989
   25MOL    H1410142   0.464   7.692   7.321  0.0744  1.2056 -0.9661
   25MOL    H1510143   0.207   7.662   7.484  0.0409  2.2611 -1.2963
   25MOL    H1610144   0.313   7.541   7.515  2.2096 -1.1025 -1.5349
   25MOL    H1710145   0.381   7.821   7.576  0.3363  0.8782 -0.4881
   25MOL    H1810146   0.508   7.694   7.571 -0.7412 -2.1505 -2.4762
   25MOL    H1910147   0.441   7.703   7.797 -0.9658 -0.1430  1.8561
   25MOL    H2010148   0.324   7.580   7.747 -0.2552 -0.2354 -0.4038
   25MOL    H2110149   0.278   7.743   7.771  0.0624  0.1655 -1.1185
   25MOL    H2210150   0.442   7.196   7.160  1.0492 -0.3765  1.1071
   25MOL    C2310151   0.399   7.355   6.941 -0.0226  0.4460  0.1536
   25MOL    C2410152   0.275   7.343   6.850  0.1932  0.7270 -0.1303
   25MOL    C2510153   0.221   7.488   6.838  0.2641  0.1529  0.1542
   25MOL    O2610154   0.244   7.548   6.731 -0.1926 -0.2092 -0.0020
   25MOL    O2710155   0.164   7.538   6.946 -0.3891  0.2160 -0.1225
   25MOL    C2810156   0.118   7.675   6.943  0.4239 -0.4605  0.3514
   25MOL    C2910157   0.040   7.717   7.076  0.2589 -0.1877 -0.3529
   25MOL    C3010158   7.771   7.617   7.111 -0.1480  0.2750  0.2021
   25MOL    C3110159   7.690   7.666   7.237 -0.6874  0.4688 -0.3601
   25MOL    H3210160   0.446   7.256   6.944 -1.4572 -0.2381  0.4458
   25MOL    H3310161   0.468   7.419   6.886  1.1318  0.5651  1.7154
   25MOL    H3410162   0.203   7.291   6.913 -0.1797  2.2063  0.6862
   25MOL    H3510163   0.055   7.687   6.855  2.2700 -0.1692 -0.9480
   25MOL    H3610164   0.195   7.749   6.923  0.9270 -0.9183  0.5742
   25MOL    H3710165   0.113   7.706   7.157  0.6561 -0.3716 -0.7374
   25MOL    H3810166   0.004   7.820   7.081 -1.4588 -0.6678 -2.5037
   25MOL    H3910167   7.807   7.517   7.135 -1.7573 -0.4244 -0.2678
   25MOL    H4010168   7.708   7.605   7.023  1.6596 -3.8959 -0.6517
   25MOL    H4110169   7.744   7.641   7.327 -2.8218  1.5850  1.2771
   25MOL    H4210170   7.590   7.624   7.246 -0.6267  0.4942  0.4427
   25MOL    H4310171   7.692   7.774   7.251  2.0514  0.0626  2.7492
   25MOL    C4410172   0.293   7.259   6.722 -0.1483  0.1166  0.2740
   25MOL    C4510173   0.155   7.233   6.646  0.1927  0.4851 -0.5484
   25MOL    C4610174   0.168   7.209   6.501 -0.0566 -0.1201  0.0272
   25MOL    O4710175   0.106   7.275   6.418 -0.1031 -0.5035 -0.2916
   25MOL    O4810176   0.262   7.116   6.470 -0.0369 -0.2695 -0.8464
   25MOL    C4910177   0.285   7.064   6.345 -0.3870 -0.2463 -0.2201
   25MOL    C5010178   0.364   7.162   6.255  0.0799 -0.2792 -0.3068
   25MOL    C5110179   0.439   7.111   6.127  0.2825 -0.5274 -0.9333
   25MOL    C5210180   0.518   7.219   6.059 -0.0728  0.2446  0.3864
   25MOL    H5310181   0.337   7.160   6.734 -0.9556 -0.0796  1.7251
   25MOL    H5410182   0.354   7.311   6.648 -2.7573  1.5220 -0.9445
   25MOL    H5510183   0.100   7.325   6.665  0.6537  0.7043 -0.2701
   25MOL    H5610184   0.201   7.028   6.286 -0.0256 -0.8476 -0.3757
   25MOL    H5710185   0.343   6.972   6.359 -0.9207 -0.3014  1.7259
   25MOL    H5810186   0.296   7.241   6.222  2.3681  1.4421 -1.0732
   25MOL    H5910187   0.432   7.223   6.314 -0.1455  0.4393 -0.7756
   25MOL    H6010188   0.369   7.063   6.059 -2.4140  1.8500  0.0748
   25MOL    H6110189   0.503   7.026   6.154 -1.0291 -1.6529 -1.3048
   25MOL    H6210190   0.562   7.293   6.126  0.8299  0.3079 -0.2788
   25MOL    H6310191   0.465   7.267   5.976  1.6319  0.3770 -0.6417
   25MOL    H6410192   0.598   7.171   6.003 -4.0071 -4.7186 -1.4216
   25MOL    C6510193   0.068   7.121   6.715  0.2755 -0.1168 -0.3662
   25MOL    C6610194   0.133   6.978   6.747 -0.3715  0.5174 -0.1184
   25MOL    C6710195   0.223   6.971   6.873  0.0474 -0.4128  0.5049
   25MOL    O6810196   0.209   7.058   6.956 -0.0679  0.0154  0.3262
   25MOL    O6910197   0.317   6.879   6.868 -0.0552  0.0239  0.8768
   25MOL    C7010198   0.427   6.868   6.963 -0.9878 -0.5687 -0.5381
   25MOL    C7110199   0.458   6.730   7.022 -0.4940 -0.4052  0.2923
   25MOL    C7210200   0.341   6.664   7.096  0.1511 -0.3817  0.1901
   25MOL    C7310201   0.371   6.529   7.165  0.1171  0.3631 -0.3009
   25MOL    H7410202   7.837   7.106   6.647  0.8791  0.2608 -1.2071
   25MOL    H7510203   0.034   7.168   6.808  1.8103 -1.4579  0.9074
   25MOL    H7610204   0.192   6.945   6.662 -3.3795 -0.5064 -1.8756
   25MOL    H7710205   0.406   6.936   7.046 -1.3258  0.2808 -1.3040
   25MOL    H7810206   0.510   6.916   6.912 -0.0397  0.4979  1.9099
   25MOL    H7910207   0.499   6.657   6.951  0.2469  1.2193 -0.9852
   25MOL    H8010208   0.542   6.751   7.087 -1.4611  1.9094  0.8451
   25MOL    H8110209   0.263   6.652   7.021  0.2435 -1.0989  0.2102
   25MOL    H8210210   0.305   6.733   7.173  1.7625 -0.0027  0.6193
   25MOL    H8310211   0.447   6.539   7.242 -1.6282  0.1724  1.4707
   25MOL    H8410212   0.409   6.445   7.105  0.4760  0.5052 -0.2793
   25MOL    H8510213   0.282   6.488   7.212 -0.1794  2.1424  0.7052
   25MOL    C8610214   0.016   6.874   6.774 -0.1136  0.1110  0.3361
   25MOL    C8710215   7.829   6.793   6.644 -0.5870  0.1165 -0.5875
   25MOL    C8810216   0.084   6.696   6.589  0.4133 -0.1630 -0.4564
   25MOL    O8910217   0.113   6.696   6.472 -0.0581  0.3702 -0.0573
   25MOL    O9010218   0.133   6.619   6.680 -0.6019  0.6758  0.0466
   25MOL    C9110219   0.246   6.533   6.649 -0.3595  0.0472 -0.6005
   25MOL    C9210220   0.387   6.605   6.658 -0.4651 -0.1517  0.3874
   25MOL    C9310221   0.436   6.681   6.548  0.4453 -0.4813  0.8560
   25MOL    C9410222   0.579   6.736   6.567 -0.4417  0.1485 -0.3949
   25MOL    H9510223   7.784   6.932   6.811 -0.5756  0.2288 -0.9064
   25MOL    H9610224   0.035   6.796   6.848  1.4482 -1.9739 -2.2044
   25MOL    H9710225   7.811   6.861   6.562 -1.8317 -0.5573 -0.8807
   25MOL    H9810226   0.242   6.493   6.548  1.1000 -0.1096 -0.6059
   25MOL    H9910227   0.242   6.468   6.737 -1.1292  3.2974  1.8821
   25MOL   H10010228   0.377   6.664   6.749  0.0656  1.1080 -0.3689
   25MOL   H10110229   0.463   6.529   6.677 -0.4289  0.1349  1.4433
   25MOL   H10210230   0.366   6.765   6.540  2.2174  1.0968  1.5512
   25MOL   H10310231   0.427   6.630   6.452 -3.0638  0.7400  0.4351
   25MOL   H10410232   0.577   6.840   6.601  0.7403  0.1452 -0.2798
   25MOL   H10510233   0.643   6.729   6.479  0.4293  2.4508  0.0024
   25MOL   H10610234   0.635   6.680   6.642  0.8860  0.2171 -1.3156
   25MOL   C10710235   7.701   6.719   6.673 -0.1290 -0.0242 -0.1711
   25MOL   C10810236   7.573   6.802   6.707 -1.1767  0.2582  0.4823
   25MOL   C10910237   7.553   6.915   6.612  0.1940 -0.1846  0.9433
   25MOL   O11010238   7.547   7.027   6.654 -0.3226 -0.1814 -0.0775
   25MOL   O11110239   7.521   6.878   6.482 -0.1449 -0.7011 -0.0209
   25MOL   C11210240   7.511   6.975   6.382  0.5269  0.0484  0.2630
   25MOL   C11310241   7.472   6.896   6.255 -0.3703  0.2938  0.0891
   25MOL   C11410242   7.591   6.838   6.179  0.3696 -0.0276  0.0492
   25MOL   C11510243   7.546   6.761   6.049  0.0943  0.0742  0.0279
   25MOL   H11610244   7.731   6.649   6.750  1.8250  1.4124  0.4424
   25MOL   H11710245   7.670   6.662   6.586  0.3668  0.4011 -0.6375
   25MOL   H11810246   7.591   6.839   6.807  0.8854  2.9319 -0.8002
   25MOL   H11910247   7.600   7.036   6.365 -0.4420  1.6984  0.9912
   25MOL   H12010248   7.426   7.034   6.418  1.2856  0.9788  0.5418
   25MOL   H12110249   7.393   6.825   6.276 -1.1063  0.1914 -2.8413
   25MOL   H12210250   7.423   6.965   6.186 -0.5452 -1.5419 -1.6807
   25MOL   H12310251   7.654   6.773   6.239 -0.3847  0.2498  1.1682
   25MOL   H12410252   7.664   6.907   6.137  1.5690 -1.3080  0.0099
   25MOL   H12510253   7.619   6.704   5.992  0.5985  0.9664 -0.2239
   25MOL   H12610254   7.507   6.834   5.980 -2.7035 -1.9152 -0.5877
   25MOL   H12710255   7.471   6.692   6.088 -0.0671 -0.4531 -1.1986
   25MOL   C12810256   7.454   6.713   6.714 -0.5362  0.2419  0.1834
   25MOL   C12910257   7.442   6.623   6.843 -0.2856 -0.0127 -0.4211
   25MOL   C13010258   7.408   6.706   6.964 -0.4013  0.1482  0.0413
   25MOL   O13110259   7.367   6.823   6.954  0.4476  0.2000  0.2495
   25MOL   O13210260   7.449   6.642   7.080 -0.6918  0.1799  0.4360
   25MOL   C13310261   7.443   6.720   7.194 -0.5580  0.1677 -0.2871
   25MOL   C13410262   7.586   6.784   7.217 -0.0808 -0.2243 -0.0426
   25MOL   C13510263   7.699   6.683   7.211  0.3488 -0.9735  0.3373
   25MOL   C13610264   7.844   6.740   7.218  0.1076 -0.3198  0.3373
   25MOL   H13710265   7.455   6.647   6.627  1.2662 -0.1765  0.5021
   25MOL   H13810266   7.360   6.764   6.697 -1.8092 -1.6488  1.2971
   25MOL   H13910267   7.544   6.585   6.855  0.0541  1.7108  2.4980
   25MOL   H14010268   7.426   6.638   7.265 -1.4261  1.1037  0.6010
   25MOL   H14110269   7.360   6.790   7.194  0.2911  1.1978  0.7250
   25MOL   H14210270   7.607   6.845   7.130  2.0547 -0.6816  0.1362
   25MOL   H14310271   7.574   6.850   7.303  0.3280 -0.2515  0.0329
   25MOL   H14410272   7.688   6.629   7.117 -3.0809  1.4045 -0.7240
   25MOL   H14510273   7.676   6.618   7.295 -0.3524  0.3413  1.1723
   25MOL   H14610274   7.842   6.825   7.285  0.4112  0.5857 -0.7920
   25MOL   H14710275   0.022   6.771   7.119 -1.5489 -0.1449 -0.1451
   25MOL   H14810276   0.069   6.669   7.245  0.8594  1.0009  1.7222
   25MOL   C14910277   7.354   6.497   6.823  0.0821  0.4497  0.7403
   25MOL   C15010278   7.411   6.392   6.720 -0.1350 -0.1914  0.3516
   25MOL   C15110279   7.521   6.302   6.776 -0.0133 -0.1375  0.7394
   25MOL   O15210280   7.503   6.184   6.776 -0.2530  0.1473 -0.1143
   25MOL   O15310281   7.632   6.364   6.804  0.7232 -0.6250 -0.1502
   25MOL   C15410282   7.743   6.298   6.865  0.1786  0.4673  0.0287
   25MOL   C15510283   7.835   6.401   6.932  0.4224  0.3827  0.2209
   25MOL   C15610284   0.120   6.342   6.977  0.7724 -0.5472  0.3919
   25MOL   C15710285   0.104   6.270   7.110 -0.4638  0.1659 -0.2760
   25MOL   H15810286   7.253   6.522   6.792  0.4798  2.1381  0.7581
   25MOL   H15910287   7.332   6.454   6.921  2.9480  0.9144  1.6384
   25MOL   H16010288   7.473   6.438   6.643 -1.6564 -0.6405 -1.1764
   25MOL   H16110289   7.789   6.237   6.787  0.8579 -0.5760  1.2409
   25MOL   H16210290   7.706   6.229   6.941  2.0685  0.1397  0.6754
   25MOL   H16310291   0.005   6.478   6.858 -0.1883 -2.3856 -2.9427
   25MOL   H16410292   7.785   6.442   7.020 -1.9917 -1.8303 -0.0273
   25MOL   H16510293   0.184   6.428   6.998 -1.7730  1.1227  1.5387
   25MOL   H16610294   0.170   6.279   6.903  0.1324 -1.4217  0.6951
   25MOL   H16710295   0.199   6.231   7.147  0.1749  2.2470  0.3644
   25MOL   H16810296   0.040   6.183   7.095  0.0333 -0.4027  0.8109
   25MOL   H16910297   0.075   6.333   7.194 -1.6415  0.1911 -0.6985
   25MOL   C17010298   7.294   6.318   6.646  0.0945 -0.1014  0.4479
   25MOL   C17110299   7.214   6.401   6.546 -0.1875  0.3396 -0.5161
   25MOL   C17210300   7.303   6.466   6.436  0.6217 -0.0828  0.1267
   25MOL   O17310301   7.310   6.590   6.427  0.0403  0.1353  0.2919
   25MOL   O17410302   7.367   6.378   6.353  0.2112  0.1400 -0.6790
   25MOL   C17510303   7.471   6.426   6.272 -0.0234  0.7256  0.5019
   25MOL   C17610304   7.601   6.443   6.357 -0.1952  0.1161  0.0393
   25MOL   C17710305   7.667   6.310   6.391 -0.1331 -0.2194 -0.7033
   25MOL   C17810306   7.809   6.332   6.454  0.1809  1.0135  0.2032
   25MOL   H17910307   7.217   6.282   6.713 -1.1334  0.6745 -0.5264
   25MOL   H18010308   7.335   6.233   6.592 -1.3262 -1.0104  0.7841
   25MOL   H18110309   7.168   6.482   6.602 -0.4524 -0.5458  0.5479
   25MOL   H18210310   7.443   6.518   6.219  0.3830 -0.9055 -2.6541
   25MOL   H18310311   7.487   6.351   6.194 -0.5459  0.6337  0.4818
   25MOL   H18410312   7.667   6.499   6.290  0.2289 -0.2785  0.1210
   25MOL   H18510313   7.582   6.502   6.447 -2.9506 -0.5270 -0.0894
   25MOL   H18610314   7.675   6.262   6.293 -0.6093  0.1773 -0.9399
   25MOL   H18710315   7.606   6.258   6.465  0.3346  1.5041  0.9329
   25MOL   H18810316   0.011   6.392   6.382 -0.3281  1.9427  0.5767
   25MOL   H18910317   0.005   6.235   6.465 -0.2923  0.8365  0.8306
   25MOL   H19010318   7.797   6.374   6.554  1.5433  1.4520  0.1904
   25MOL   C19110319   7.090   6.328   6.483  0.4425  0.1136  0.1263
   25MOL   C19210320   7.102   6.200   6.412  0.6026  0.8734  0.4801
   25MOL   C19310321   7.112   6.086   6.508  0.3677 -0.0836  0.1138
   25MOL   O19410322   7.212   6.014   6.511 -0.2073 -0.2883 -0.2449
   25MOL   O19510323   6.994   6.071   6.572 -0.2697  0.5437 -0.6083
   25MOL   C19610324   6.973   5.945   6.636 -1.0560 -0.7710 -0.8532
   25MOL   C19710325   7.011   5.960   6.783  0.3754 -0.1140  0.0645
   25MOL   C19810326   6.974   5.845   6.876 -0.0449 -0.1382 -0.4332
   25MOL   C19910327   6.991   5.869   7.018  0.0602  0.2924 -0.3803
   25MOL   H20010328   7.038   6.406   6.428 -0.9728 -1.9970 -1.5899
   25MOL   H20110329   7.029   6.311   6.571  0.2271 -0.8673 -0.2081
   25MOL   H20210330   7.200   6.209   6.364 -0.3587  0.3378 -1.6226
   25MOL   H20310331   7.021   5.873   6.570  0.1063 -1.6812  0.9578
   25MOL   H20410332   6.869   5.913   6.629 -0.3382 -3.2696 -0.5716
   25MOL   H20510333   7.117   5.983   6.797  0.1055  0.7959  0.6391
   25MOL   H20610334   6.959   6.052   6.810 -0.6805 -0.8645  0.6386
   25MOL   H20710335   7.036   5.765   6.836 -2.3265 -2.5287  0.6969
   25MOL   H20810336   6.874   5.814   6.848  0.3322 -2.1566  0.4217
   25MOL   H20910337   6.964   5.969   7.052  3.6510  0.8285  1.2158
   25MOL   H21010338   7.097   5.852   7.038  0.4317  0.9019 -1.7467
   25MOL   H21110339   6.944   5.792   7.078  1.5501 -0.1907  0.2015
   25MOL   C21210340   7.006   6.182   6.300  0.2281 -0.0179  0.0560
   25MOL   C21310341   7.058   6.264   6.176  0.1815 -0.2816 -0.1363
   25MOL   C21410342   7.157   6.180   6.100 -0.1055 -0.3160 -0.5600
   25MOL   O21510343   7.163   6.057   6.100 -0.0062 -0.4311  0.2933
   25MOL   O21610344   7.244   6.257   6.035 -0.1062  0.7803 -0.3928
   25MOL   C21710345   7.353   6.205   5.959 -0.3453 -0.1638  0.1712
   25MOL   C21810346   7.431   6.324   5.907  0.4435  0.0709 -0.0448
   25MOL   C21910347   7.531   6.286   5.799 -0.0698 -0.6732  0.5655
   25MOL   C22010348   7.539   6.400   5.688 -1.5136  0.1680  0.5841
   25MOL   H22110349   6.904   6.210   6.328 -0.4158  0.4434 -2.5814
   25MOL   H22210350   7.002   6.075   6.279  1.4575  0.1986 -1.3625
   25MOL   H22310351   7.117   6.346   6.218 -0.5286  0.7718 -1.1368
   25MOL   H22410352   7.329   6.138   5.876  2.1298  0.2617 -0.9294
   25MOL   H22510353   7.422   6.149   6.022  0.7485  0.4204 -0.4964
   25MOL   H22610354   7.356   6.394   5.871  2.0727  2.7331  1.6079
   25MOL   H22710355   7.482   6.377   5.987  0.9354  2.4525 -1.8907
   25MOL   H22810356   7.511   6.187   5.757  1.6501 -1.4280  1.4650
   25MOL   H22910357   7.626   6.266   5.848  1.7287  1.0947 -2.0585
   25MOL   H23010358   7.453   6.391   5.622 -0.7654  0.4250 -0.4456
   25MOL   H23110359   7.633   6.398   5.632 -0.5554  0.8112  2.1424
   25MOL   H23210360   7.518   6.492   5.743 -1.4566  0.1058  0.7114
   25MOL   C23310361   6.954   6.331   6.087 -0.3200  0.5908 -0.1455
   25MOL   C23410362   6.902   6.470   6.138  0.0387  0.2672  0.0071
   25MOL   C23510363   7.020   6.575   6.140 -0.1280  0.6333  0.1624
   25MOL   O23610364   7.055   6.634   6.243  0.0673  0.5431 -0.2533
   25MOL   O23710365   7.065   6.599   6.011 -0.6368 -0.5074 -0.0037
   25MOL   C23810366   7.150   6.708   5.984 -0.3702  0.4922  0.2025
   25MOL   C23910367   7.129   6.770   5.842 -0.0787 -0.3891  0.3180
   25MOL   C24010368   7.166   6.691   5.715  0.9040  0.3844 -0.1941
   25MOL   C24110369   7.152   6.777   5.587 -0.8201 -0.3107 -0.7695
   25MOL   H24210370   6.865   6.271   6.070 -0.0410 -0.0611  0.6731
   25MOL   H24310371   6.995   6.341   5.986  1.3403 -0.1877  0.4285
   25MOL   H24410372   6.882   6.442   6.242  2.0212 -1.4807 -0.0581
   25MOL   H24510373   7.255   6.679   5.990  0.0115  2.0546  1.4131
   25MOL   H24610374   7.135   6.784   6.061  1.8114 -0.7943  1.9369
   25MOL   H24710375   7.023   6.796   5.842  0.0637  0.2386  1.6895
   25MOL   H24810376   7.178   6.867   5.834 -0.7378 -0.0562  0.2817
   25MOL   H24910377   7.104   6.601   5.710  1.0724  0.2221  0.5448
   25MOL   H25010378   7.268   6.652   5.726  0.7283  0.3204  1.2889
   25MOL   H25110379   7.222   6.861   5.594  1.1956 -1.9357 -0.8671
   25MOL   H25210380   7.051   6.811   5.568 -0.3058  0.9176 -1.3585
   25MOL   H25310381   7.193   6.730   5.498  1.3489  1.4197 -0.7351
   25MOL   C25410382   6.771   6.516   6.078 -0.2763 -0.2097  0.4597
   25MOL   C25510383   6.692   6.634   6.128  0.1169 -0.0113  0.0993
   25MOL   C25610384   6.664   6.632   6.281 -0.4311 -0.3272 -0.5078
   25MOL   O25710385   6.675   6.733   6.351  0.0238 -0.4452 -0.1629
   25MOL   O25810386   6.646   6.508   6.327  0.1546  0.4105  0.0859
   25MOL   C25910387   6.638   6.476   6.462  0.7049  0.4650  0.3383
   25MOL   C26010388   6.485   6.466   6.510 -0.7210 -0.3418 -0.3833
   25MOL   C26110389   6.399   6.387   6.418  0.5929 -0.4658  0.8654
   25MOL   C26210390   6.442   6.241   6.404  0.1687  0.2858 -0.0613
   25MOL   H26310391   6.712   6.424   6.081  2.1953 -1.9264 -1.5557
   25MOL   H26410392   6.784   6.528   5.971 -1.4690 -3.2152 -0.0703
   25MOL   H26510393   6.592   6.633   6.084  1.4746  1.6169 -3.1671
   25MOL   H26610394   6.698   6.537   6.529 -1.1279  1.9065  0.7063
   25MOL   H26710395   6.677   6.374   6.465 -0.9193 -0.2292 -1.5943
   25MOL   H26810396   6.490   6.433   6.614 -0.6243  1.9759  0.3844
   25MOL   H26910397   6.446   6.566   6.529 -0.4578 -0.0546 -1.3574
   25MOL   H27010398   6.400   6.426   6.317  0.4309 -0.7539  0.7488
   25MOL   H27110399   6.298   6.391   6.459  0.3686  1.4704  0.1184
   25MOL   H27210400   6.479   6.204   6.500 -0.2979  0.2122  0.0922
   25MOL   H27310401   6.524   6.224   6.335 -0.7990 -0.0774 -1.1299
   25MOL   H27410402   6.348   6.191   6.382  0.6223 -0.2784 -0.7434
   25MOL   C27510403   6.757   6.766   6.075 -0.0098 -0.1546 -0.0184
   25MOL   C27610404   6.656   6.867   6.014 -0.4022  0.2398 -0.5627
   25MOL   C27710405   6.733   6.998   5.996 -0.0101  0.1101  0.1808
   25MOL   O27810406   6.835   7.015   5.930  0.5120  0.9538 -0.7690
   25MOL   O27910407   6.669   7.100   6.065 -0.6335  0.2539  0.1430
   25MOL   C28010408   6.709   7.231   6.041 -0.1325  0.2988  0.0214
   25MOL   C28110409   6.583   7.314   6.010  0.3981  0.0560  0.3946
   25MOL   C28210410   6.497   7.329   6.137  0.3465 -0.2924 -0.0459
   25MOL   C28310411   6.387   7.437   6.123 -0.2656 -0.2093 -0.1672
   25MOL   H28410412   6.836   6.748   6.002 -0.1010  0.8055 -0.3593
   25MOL   H28510413   6.812   6.815   6.156  2.9962 -1.8913 -0.9023
   25MOL   H28610414   6.584   6.881   6.094 -1.2677  2.3948 -1.6652
   25MOL   H28710415   6.777   7.241   5.956  0.0936 -0.2456  0.1379
   25MOL   H28810416   6.764   7.274   6.125 -0.9005  0.1966  0.5792
   25MOL   H28910417   6.618   7.415   5.986  1.7733 -0.8452 -1.4866
   25MOL   H29010418   6.528   7.270   5.926  1.2545  0.5728 -0.4487
   25MOL   H29110419   6.567   7.362   6.213 -0.2873  1.4230 -0.1923
   25MOL   H29210420   6.457   7.232   6.166 -1.5853  0.4540 -0.1999
   25MOL   H29310421   6.316   7.424   6.041 -0.6416 -1.7345  0.3755
   25MOL   H29410422   6.436   7.531   6.098  0.1986 -0.1841  0.8116
   25MOL   H29510423   6.330   7.454   6.214 -0.5514 -1.3447 -0.1280
   25MOL   C29610424   6.592   6.807   5.884 -0.2961 -0.6788  0.2690
   25MOL   C29710425   6.432   6.821   5.878  0.0828 -0.2867 -0.1348
   25MOL   C29810426   6.353   6.713   5.953 -1.0968 -0.1016 -0.5170
   25MOL   O29910427   6.341   6.604   5.901 -0.0175  0.1918  0.1607
   25MOL   O30010428   6.331   6.748   6.081  0.2554  0.0865  0.5785
   25MOL   C30110429   6.249   6.672   6.169  0.5968 -0.0737  0.7378
   25MOL   C30210430   6.253   6.723   6.313 -0.1326 -0.2664 -0.2014
   25MOL   C30310431   6.148   6.655   6.408  0.1507  0.7227 -0.3969
   25MOL   C30410432   6.132   6.723   6.540 -0.1803 -0.6062 -0.2657
   25MOL   H30510433   6.621   6.705   5.858  0.7760  0.4289 -3.0022
   25MOL   H30610434   6.633   6.846   5.791 -0.2413  1.7519  1.2707
   25MOL   H30710435   6.403   6.797   5.776  0.5415 -1.7009  0.0587
   25MOL   H30810436   6.301   6.577   6.179 -0.2293 -0.5616  0.3919
   25MOL   H30910437   6.152   6.667   6.121  0.8930 -2.8688  0.3426
   25MOL   H31010438   6.350   6.704   6.359 -0.5952 -0.0012  0.8936
   25MOL   H31110439   6.236   6.831   6.305  0.3000 -0.2439 -0.9068
   25MOL   H31210440   6.170   6.552   6.438 -1.4687  0.3482 -0.4565
   25MOL   H31310441   6.046   6.654   6.369  0.1959  0.5599 -0.5100
   25MOL   H31410442   6.076   6.815   6.525 -2.2813 -1.5477  1.4949
   25MOL   H31510443   6.225   6.735   6.595  0.5517 -0.3426 -1.5454
   25MOL   H31610444   6.067   6.664   6.605 -2.2859 -0.2846 -2.0201
   25MOL   C31710445   6.389   6.971   5.902 -0.7147  0.1663  0.2924
   25MOL   C31810446   6.240   6.982   5.852  0.6840 -0.3056 -0.1227
   25MOL   C31910447   6.143   7.003   5.969  0.5406  0.7947 -0.2165
   25MOL   O32010448   6.041   6.930   5.983 -0.0962 -0.0306 -0.0629
   25MOL   O32110449   6.178   7.108   6.054 -0.0183 -0.8837 -0.2233
   25MOL   C32210450   6.114   7.124   6.178  0.1019  0.0252  0.7278
   25MOL   C32310451   6.050   7.263   6.151  0.3140  0.0945  0.3829
   25MOL   C32410452   5.974   7.312   6.274  0.5463 -1.0635 -0.4377
   25MOL   C32510453   5.888   7.440   6.247 -0.3311 -0.2194  0.4316
   25MOL   H32610454   6.450   7.035   5.838  1.3325 -2.7611 -0.7826
   25MOL   H32710455   6.409   6.994   6.006  0.4121 -0.2447  0.1705
   25MOL   H32810456   6.217   6.890   5.799  0.4495  0.3492 -1.1853
   25MOL   H32910457   6.175   7.121   6.269 -0.2790  3.0991  1.1667
   25MOL   H33010458   6.040   7.045   6.186 -1.1739  0.9653 -1.4843
   25MOL   H33110459   6.127   7.337   6.129 -0.1153  0.1126 -1.0669
   25MOL   H33210460   5.975   7.254   6.073  1.0639  0.4215 -0.3778
   25MOL   H33310461   6.038   7.326   6.361 -0.0155 -0.0091 -0.1851
   25MOL   H33410462   5.902   7.232   6.294 -2.1201  0.7882 -2.2417
   25MOL   H33510463   5.842   7.480   6.337  1.1018  2.5120  0.0085
   25MOL   H33610464   5.806   7.415   6.180  0.7100  0.2068 -1.0365
   25MOL   H33710465   5.949   7.521   6.208 -0.4397 -0.4580 -0.2399
   25MOL   C33810466   6.231   7.087   5.740  0.5502 -0.8285  0.6132
   25MOL   C33910467   6.305   7.058   5.610 -0.2761 -0.0501 -0.7371
   25MOL   C34010468   6.220   6.958   5.529 -0.5939 -0.2851 -0.4950
   25MOL   O34110469   6.122   6.995   5.469  0.8059 -0.1823 -0.2954
   25MOL   O34210470   6.263   6.831   5.542  0.1168  0.1166 -0.1115
   25MOL   C34310471   6.182   6.731   5.497 -0.1276  0.2229 -0.4536
   25MOL   C34410472   6.232   6.606   5.572 -0.2361 -0.2017  0.5288
   25MOL   C34510473   6.345   6.517   5.512  0.1887 -0.6544  0.3245
   25MOL   C34610474   6.397   6.400   5.611  0.0436  0.4920  0.0781
   25MOL   H34710475   6.269   7.178   5.784 -3.6890  2.0483 -1.2682
   25MOL   H34810476   6.126   7.113   5.721  0.8722  0.1265  0.0920
   25MOL   H34910477   6.401   7.008   5.618  0.6898  1.5149 -2.3207
   25MOL   H35010478   6.187   6.705   5.391 -0.3760 -2.2597  0.1063
   25MOL   H35110479   6.075   6.742   5.515  0.1778  2.8255 -0.0100
   25MOL   H35210480   6.259   6.635   5.673  0.0544 -0.6799  0.5890
   25MOL   H35310481   6.145   6.541   5.587 -0.2279 -0.7640 -1.6793
   25MOL   H35410482   6.434   6.579   5.497 -1.2592  0.8309 -2.4253
   25MOL   H35510483   6.332   6.499   5.405 -2.2437  1.2422  0.2670
   25MOL   H35610484   6.479   6.357   5.554 -0.2539  0.9011 -0.6756
   25MOL   H35710485   6.318   6.328   5.633 -1.6085  2.0334 -0.6207
   25MOL   H35810486   6.432   6.432   5.709 -1.6689  1.1353  0.5052
   25MOL   C35910487   6.319   7.194   5.527 -0.3243  0.9942 -0.3064
   25MOL   C36010488   6.435   7.282   5.583 -0.6767  0.9891  0.4016
   25MOL   C36110489   6.568   7.211   5.578  0.7034 -1.0854  0.4719
   25MOL   O36210490   6.637   7.189   5.676  0.3113  0.1813  0.1772
   25MOL   O36310491   6.591   7.147   5.458  0.6247 -0.0372  0.1317
   25MOL   C36410492   6.685   7.040   5.445 -0.1451  0.2444  0.2598
   25MOL   C36510493   6.612   6.923   5.381  0.4748  0.1312  0.0023
   25MOL   C36610494   6.544   6.944   5.243  0.2561 -0.1619  0.5079
   25MOL   C36710495   6.490   6.803   5.193  0.0648 -0.5839 -0.4116
   25MOL   H36810496   6.227   7.251   5.542 -1.6122 -1.3816  1.1780
   25MOL   H36910497   6.320   7.169   5.421 -1.0424  1.7180 -0.4880
   25MOL   H37010498   6.415   7.300   5.689  0.7708  3.5343  0.3035
   25MOL   H37110499   6.724   7.009   5.542  1.2254  1.9736  0.2917
   25MOL   H37210500   6.772   7.078   5.391  0.6511 -0.0782  1.3217
   25MOL   H37310501   6.677   6.837   5.387 -0.2298 -0.4070  0.0154
   25MOL   H37410502   6.535   6.902   5.455 -0.2128  0.7156 -0.5330
   25MOL   H37510503   6.608   7.001   5.176 -1.0279  2.4279  1.4218
   25MOL   H37610504   6.466   7.015   5.272  1.1490  1.0321 -0.0063
   25MOL   H37710505   6.424   6.818   5.108 -0.7635 -0.2257  0.2869
   25MOL   H37810506   6.438   6.754   5.276 -0.3371 -1.5134 -1.2086
   25MOL   H37910507   6.575   6.742   5.163  0.9940  0.6353 -0.3168
   25MOL   C38010508   6.450   7.423   5.514  0.2848 -0.9820 -0.3346
   25MOL   C38110509   6.499   7.547   5.604 -0.5502  0.0095 -0.1312
   25MOL   C38210510   6.400   7.563   5.725  0.6917  0.8876  0.3865
   25MOL   O38310511   6.435   7.561   5.847 -0.5547  0.4481 -0.0756
   25MOL   O38410512   6.272   7.566   5.683 -0.3632 -0.2909  0.7916
   25MOL   C38510513   6.161   7.560   5.774  0.1845 -0.1876 -0.3189
   25MOL   C38610514   6.060   7.467   5.703 -0.4745 -0.3665  0.2071
   25MOL   C38710515   5.937   7.433   5.776  0.8150 -0.0510 -0.2661
   25MOL   C38810516   5.871   7.537   5.869  0.1707 -0.2471 -0.7731
   25MOL   H38910517   6.350   7.445   5.477  0.8392  0.0436 -1.2693
   25MOL   H39010518   6.505   7.419   5.420  0.7398  0.8703 -0.1712
   25MOL   H39110519   6.490   7.641   5.550 -0.5207 -1.1334 -2.1726
   25MOL   H39210520   6.108   7.654   5.792  0.3576 -0.4085  1.4630
   25MOL   H39310521   6.195   7.524   5.871 -0.7074 -0.6896 -0.1850
   25MOL   H39410522   6.035   7.524   5.613 -1.5183  1.5588  1.6928
   25MOL   H39510523   6.108   7.373   5.676  2.9321  0.7762  2.0202
   25MOL   H39610524   5.943   7.342   5.835  0.1894  1.5025  2.2708
   25MOL   H39710525   5.865   7.383   5.712 -0.3570 -1.7611  2.2876
   25MOL   H39810526   5.914   7.530   5.969 -2.5758 -0.5785  0.4289
   25MOL   H39910527   5.762   7.530   5.873  0.0335  1.6807 -0.5042
   25MOL   H40010528   5.892   7.634   5.824  0.7324  0.2297  0.4878
   25MOL   C40110529   6.645   7.536   5.646 -0.2562 -0.5870  0.1262
   25MOL   C40210530   6.710   7.638   5.734  0.3317 -0.7053 -0.1298
   25MOL   C40310531   6.748   7.759   5.654 -0.1263  0.4750 -0.0741
   25MOL   O40410532   6.664   7.821   5.590  0.0810 -0.1580  0.4000
   25MOL   O40510533   6.875   7.790   5.667 -0.4095  0.6150 -0.3836
   25MOL   C40610534   6.920   0.065   5.622 -0.2829 -0.4303  0.4236
   25MOL   C40710535   6.986   0.045   5.478  0.8464  0.0331  0.6119
   25MOL   C40810536   7.113   7.816   5.471  0.0586  0.0562 -0.2484
   25MOL   C40910537   7.157   7.799   5.324 -0.5687 -0.5901  0.0476
   25MOL   H41010538   6.707   7.527   5.557  1.1770  1.4843  0.8800
   25MOL   H41110539   6.655   7.437   5.691  0.5313 -0.5304  0.0810
   25MOL   H41210540   6.806   7.597   5.766  0.3649  0.2027  0.9792
   25MOL   H41310541   6.990   0.101   5.697 -1.1361  0.6036  0.7403
   25MOL   H41410542   6.836   0.134   5.610 -0.3560 -0.5964 -0.0389
   25MOL   H41510543   6.912   0.014   5.404 -1.7381  1.2465  2.6111
   25MOL   H41610544   7.021   0.145   5.452 -0.1810 -0.5714 -3.4690
   25MOL   H41710545   7.092   7.719   5.517  0.9042 -0.3485 -0.6940
   25MOL   H41810546   7.193   0.013   5.525  2.2983 -1.4611 -2.0243
   25MOL   H41910547   7.247   7.741   5.302 -0.8920 -1.0367 -0.1122
   25MOL   H42010548   7.166   0.040   5.271 -0.5159 -0.1486  0.8287
   25MOL   H42110549   7.074   7.746   5.276  0.5341 -0.5818 -1.9314
   25MOL   H42210550   6.651   7.668   5.821  1.8992 -0.2115  0.7700
   26MOL     C110551   5.041   4.729   1.602  0.9120  0.4123  0.2384
   26MOL     C210552   4.891   4.682   1.569 -0.4489  0.5818 -0.4090
   26MOL     C310553   4.868   4.530   1.581 -0.1845  0.8427 -0.2492
   26MOL     O410554   4.869   4.455   1.482  0.3708 -0.2827  0.8007
   26MOL     O510555   4.839   4.487   1.708 -0.0158 -0.0432  0.0568
   26MOL     C610556   4.807   4.349   1.732  0.5557  1.1061 -0.2378
   26MOL     C710557   4.710   4.325   1.847  0.0287  1.0726  0.0552
   26MOL     C810558   4.578   4.406   1.825 -0.1947 -0.7441 -0.2356
   26MOL     C910559   4.471   4.397   1.930  0.2039 -0.1430  0.5219
   26MOL    H1010560   5.112   4.664   1.550 -0.4121 -2.5873  2.0298
   26MOL    H1110561   5.059   4.831   1.570  0.7580  0.4335  0.2166
   26MOL    H1210562   4.885   4.693   1.460  1.9380  0.9163 -0.5390
   26MOL    H1310563   4.903   4.299   1.742 -0.5014 -1.1466 -0.9111
   26MOL    H1410564   4.761   4.309   1.641 -0.6391  0.8646  0.4673
   26MOL    H1510565   4.695   4.218   1.857  2.5251  0.8410  1.7616
   26MOL    H1610566   4.755   4.347   1.944  2.8681  0.2465 -1.0126
   26MOL    H1710567   4.531   4.367   1.735 -0.7005 -2.0354  0.5633
   26MOL    H1810568   4.604   4.511   1.816  3.2637 -1.6050 -0.9240
   26MOL    H1910569   4.431   4.297   1.950 -3.0427  1.2091  1.0292
   26MOL    H2010570   4.394   4.473   1.930  0.2195 -0.1169  1.8798
   26MOL    H2110571   4.515   4.414   2.028 -1.2650  1.5286  0.9071
   26MOL    H2210572   5.073   4.715   1.705 -0.4672 -0.6574  0.5332
   26MOL    C2310573   4.790   4.774   1.643  0.1009 -0.1287  0.4202
   26MOL    C2410574   4.736   4.893   1.552  1.3579 -0.0899  0.5209
   26MOL    C2510575   4.652   4.846   1.428 -0.6262  0.1205  0.7131
   26MOL    O2610576   4.696   4.862   1.312  0.1149 -0.6655 -0.0141
   26MOL    O2710577   4.547   4.783   1.461 -0.0862 -0.1105 -0.1121
   26MOL    C2810578   4.467   4.716   1.360  0.8890 -0.4406  0.6667
   26MOL    C2910579   4.350   4.638   1.427 -0.2629 -1.1218 -0.1274
   26MOL    C3010580   4.402   4.520   1.506  0.3708 -0.6752 -0.4900
   26MOL    C3110581   4.284   4.438   1.561 -0.4217  0.4807  0.7897
   26MOL    H3210582   4.833   4.822   1.730  0.7263  0.0905 -0.0075
   26MOL    H3310583   4.706   4.717   1.682 -0.4413  0.2145 -0.2126
   26MOL    H3410584   4.820   4.943   1.503  1.4149 -2.4003 -1.8548
   26MOL    H3510585   4.538   4.658   1.301 -2.6655 -1.2439 -3.0448
   26MOL    H3610586   4.430   4.799   1.300  3.3758 -0.3558 -0.8301
   26MOL    H3710587   4.299   4.706   1.495  0.4430 -1.7927  1.0856
   26MOL    H3810588   4.277   4.605   1.353 -2.4672 -0.3913  1.6719
   26MOL    H3910589   4.470   4.553   1.584 -0.7268  0.7614 -0.1249
   26MOL    H4010590   4.464   4.456   1.442  0.7578 -1.1280  0.3354
   26MOL    H4110591   4.235   4.496   1.640  0.6879  0.2205  1.6916
   26MOL    H4210592   4.322   4.347   1.609  0.3931 -0.5026 -1.6337
   26MOL    H4310593   4.224   4.409   1.475  1.2840  0.5414 -0.4463
   26MOL    C4410594   4.669   5.005   1.636 -0.1043  0.6012 -0.1660
   26MOL    C4510595   4.746   5.140   1.657 -0.2469 -0.1011  0.2445
   26MOL    C4610596   4.763   5.230   1.542 -0.2892 -0.7464  0.3803
   26MOL    O4710597   4.693   5.214   1.437 -0.9450  0.1004  0.7295
   26MOL    O4810598   4.863   5.319   1.564  0.0934 -0.3375 -0.4598
   26MOL    C4910599   4.892   5.415   1.463  0.7556  0.0756 -0.2168
   26MOL    C5010600   4.998   5.520   1.511 -0.2918 -1.2213 -0.0111
   26MOL    C5110601   5.138   5.468   1.506  0.2360 -0.0844  0.0416
   26MOL    C5210602   5.247   5.565   1.558 -0.0170 -0.3377  0.2819
   26MOL    H5310603   4.655   4.968   1.737  0.0380  0.4935 -0.1852
   26MOL    H5410604   4.567   5.031   1.607 -0.6547  0.1509  1.3136
   26MOL    H5510605   4.848   5.105   1.675 -0.0663 -0.1890 -0.8662
   26MOL    H5610606   4.793   5.455   1.443  0.2759 -1.0841 -0.2423
   26MOL    H5710607   4.935   5.373   1.372 -1.5037  0.8632 -1.6699
   26MOL    H5810608   4.989   5.608   1.447 -0.8259 -0.6475  0.8409
   26MOL    H5910609   4.974   5.558   1.611 -0.8008  1.2697 -1.0423
   26MOL    H6010610   5.175   5.446   1.406 -2.0808  0.6738 -1.0131
   26MOL    H6110611   5.139   5.376   1.565 -1.3452 -2.0899 -2.9456
   26MOL    H6210612   5.350   5.531   1.559  0.4898  1.0081 -2.1176
   26MOL    H6310613   5.217   5.589   1.661 -3.7081 -2.1772 -0.2722
   26MOL    H6410614   5.255   5.662   1.508  0.6351  0.5581  2.0729
   26MOL    C6510615   4.698   5.215   1.784 -0.2266  0.1975 -0.1311
   26MOL    C6610616   4.794   5.308   1.858  0.6048 -0.1660 -0.6622
   26MOL    C6710617   4.733   5.449   1.865  0.1368  0.3681 -0.1960
   26MOL    O6810618   4.781   5.546   1.806  0.4346  0.4189  0.9083
   26MOL    O6910619   4.638   5.458   1.949  0.0749  0.1507  0.1918
   26MOL    C7010620   4.569   5.580   1.971  0.2177  0.2724 -0.0948
   26MOL    C7110621   4.544   5.584   2.128 -0.2830  0.0690  0.5531
   26MOL    C7210622   4.448   5.481   2.175  0.4511 -0.1104  0.2532
   26MOL    C7310623   4.520   5.366   2.242  0.1681 -0.2892 -0.0699
   26MOL    H7410624   4.655   5.140   1.851  0.5603 -1.0367 -0.9986
   26MOL    H7510625   4.601   5.254   1.754  0.0992  0.2305 -1.1709
   26MOL    H7610626   4.885   5.318   1.798 -0.0938 -1.4736 -1.9600
   26MOL    H7710627   4.476   5.595   1.916 -2.5203 -1.9465  3.6718
   26MOL    H7810628   4.630   5.667   1.946  2.3427 -1.7703 -2.2633
   26MOL    H7910629   4.636   5.578   2.186  0.4182  1.3247 -0.3694
   26MOL    H8010630   4.494   5.678   2.153 -1.5392 -0.9001  1.6822
   26MOL    H8110631   4.374   5.443   2.105 -0.9601  0.5305  1.3628
   26MOL    H8210632   4.388   5.532   2.250  0.1782 -1.9309  1.2976
   26MOL    H8310633   4.452   5.320   2.314  3.7184 -1.2697  2.8347
   26MOL    H8410634   4.616   5.376   2.293  1.9352 -1.1096 -3.1505
   26MOL    H8510635   4.551   5.289   2.172  1.2238  0.3942 -0.3687
   26MOL    C8610636   4.834   5.255   2.002 -0.0496 -0.0911  0.9610
   26MOL    C8710637   4.949   5.337   2.076  0.3229  0.0275 -0.4285
   26MOL    C8810638   4.951   5.297   2.221  0.1864 -0.0238 -0.0181
   26MOL    O8910639   4.987   5.186   2.260  0.3755 -0.2956 -0.1497
   26MOL    O9010640   4.922   5.397   2.304 -0.0688  0.2719  0.1596
   26MOL    C9110641   4.941   5.376   2.444 -0.6181 -0.0175  0.3197
   26MOL    C9210642   5.079   5.414   2.493 -0.2811 -0.0701 -0.0946
   26MOL    C9310643   5.088   5.391   2.638  0.2762 -0.1099 -0.5429
   26MOL    C9410644   5.226   5.406   2.713 -0.4074 -0.3598 -0.1142
   26MOL    H9510645   4.864   5.152   1.980  0.2308  0.2240 -0.1237
   26MOL    H9610646   4.747   5.241   2.066 -0.4478  0.5619  0.5615
   26MOL    H9710647   4.910   5.438   2.069  1.5137  0.5253 -0.0578
   26MOL    H9810648   4.921   5.274   2.475  0.7553 -0.0077  1.3004
   26MOL    H9910649   4.870   5.431   2.506 -2.0785 -1.8949  0.3555
   26MOL   H10010650   5.157   5.368   2.434 -0.0042  0.2749 -0.0022
   26MOL   H10110651   5.088   5.520   2.471 -1.9006  0.3221  0.9902
   26MOL   H10210652   5.065   5.288   2.666  2.0809 -0.1979  0.7239
   26MOL   H10310653   5.017   5.450   2.696 -1.2279 -4.4595  2.3243
   26MOL   H10410654   5.293   5.322   2.690 -0.2140 -0.3143  0.2911
   26MOL   H10510655   5.205   5.395   2.819 -1.6194 -0.0833 -0.3157
   26MOL   H10610656   5.275   5.499   2.685  1.8564 -1.5609 -0.2861
   26MOL   C10710657   5.085   5.336   1.996 -0.0336  0.3595  0.6281
   26MOL   C10810658   5.190   5.437   2.063 -0.2727 -0.7717  1.0116
   26MOL   C10910659   5.327   5.385   2.026  0.0438  0.5644  0.3091
   26MOL   O11010660   5.348   5.355   1.908 -0.3512 -0.5234  0.1896
   26MOL   O11110661   5.416   5.386   2.119 -0.0716  0.0614  0.2861
   26MOL   C11210662   5.560   5.353   2.086 -0.3941  0.7076 -0.0980
   26MOL   C11310663   5.643   5.479   2.047  0.2389 -0.1412 -0.1435
   26MOL   C11410664   5.792   5.455   2.013 -0.2150  0.0850 -0.4014
   26MOL   C11510665   5.881   5.578   1.995  0.2227 -0.2711 -0.7199
   26MOL   H11610666   5.069   5.365   1.892  3.0335  3.3235  0.9087
   26MOL   H11710667   5.126   5.235   2.003 -1.7014 -0.2793  1.3902
   26MOL   H11810668   5.175   5.422   2.170  0.0337 -0.2545  1.1300
   26MOL   H11910669   5.561   5.262   2.026  2.8546 -1.6926  3.3577
   26MOL   H12010670   5.590   5.331   2.188  0.2639 -3.5995 -1.1499
   26MOL   H12110671   5.609   5.532   1.958  2.4873  2.7174  0.6386
   26MOL   H12210672   5.635   5.550   2.129  0.8516  0.5761 -0.6951
   26MOL   H12310673   5.793   5.402   1.918 -0.0428  1.8568 -1.4050
   26MOL   H12410674   5.838   5.392   2.089  0.2704 -0.2926 -1.0018
   26MOL   H12510675   5.859   5.648   1.914  0.1436  1.1048  0.4719
   26MOL   H12610676   5.977   5.535   1.968  0.5821  0.1252 -0.0778
   26MOL   H12710677   5.883   5.644   2.081  2.5562  0.8473 -1.5908
   26MOL   C12810678   5.176   5.582   2.027 -0.0592  0.0054  0.1710
   26MOL   C12910679   5.274   5.678   2.106 -0.2121  0.2995  0.1160
   26MOL   C13010680   5.340   5.793   2.027  0.4721 -0.6551 -0.7477
   26MOL   O13110681   5.288   5.907   2.022 -0.3740  0.1158  0.1080
   26MOL   O13210682   5.454   5.753   1.965 -0.3010 -0.1024 -0.3149
   26MOL   C13310683   5.534   5.831   1.884  0.0602  0.8017  0.4952
   26MOL   C13410684   5.487   5.818   1.734  0.7913  0.0313 -0.5250
   26MOL   C13510685   5.576   5.909   1.643  0.4095 -0.8989 -0.7905
   26MOL   C13610686   5.573   5.850   1.497  0.2395 -0.0151  0.7595
   26MOL   H13710687   5.071   5.608   2.045  0.0841  0.7663 -0.0975
   26MOL   H13810688   5.199   5.590   1.921  1.9827 -1.9216  0.4178
   26MOL   H13910689   5.367   5.623   2.126 -0.7311 -0.6127  0.0677
   26MOL   H14010690   5.626   5.775   1.898 -1.0427 -1.4337 -0.8596
   26MOL   H14110691   5.553   5.933   1.918 -0.5564  0.5698  1.5887
   26MOL   H14210692   5.507   5.713   1.711 -1.0167 -0.8409  1.7135
   26MOL   H14310693   5.380   5.835   1.723  0.1301 -2.9886  0.6912
   26MOL   H14410694   5.682   5.890   1.662  0.4976 -0.7434 -1.1359
   26MOL   H14510695   5.557   6.016   1.652 -1.3597 -1.3507  1.1792
   26MOL   H14610696   5.655   5.892   1.438 -1.5582  0.8200 -1.2237
   26MOL   H14710697   5.483   5.883   1.445  0.1943  0.9618  1.4362
   26MOL   H14810698   5.589   5.743   1.488 -1.0872  0.0211 -2.7381
   26MOL   C14910699   5.232   5.726   2.247 -0.1111 -0.0711  0.0607
   26MOL   C15010700   5.341   5.766   2.336 -0.9580 -0.0662 -0.4114
   26MOL   C15110701   5.290   5.839   2.456  0.1053  0.3196 -0.0902
   26MOL   O15210702   5.320   5.957   2.474  0.1235 -0.1406  0.1517
   26MOL   O15310703   5.203   5.769   2.535  0.1060 -0.1264 -0.0102
   26MOL   C15410704   5.140   5.836   2.643 -0.2723  0.0960  0.2303
   26MOL   C15510705   5.051   5.747   2.723 -0.0583  0.0027 -0.0529
   26MOL   C15610706   4.973   5.809   2.838 -0.4354 -0.4620 -0.4123
   26MOL   C15710707   5.078   5.869   2.941  0.5878 -0.3445 -0.3337
   26MOL   H15810708   5.177   5.641   2.289  0.6703  0.1483  1.5571
   26MOL   H15910709   5.163   5.810   2.239  1.9095  1.5718 -0.4016
   26MOL   H16010710   5.406   5.836   2.285 -1.2073  0.7167  0.3325
   26MOL   H16110711   5.086   5.920   2.600 -0.2353  0.8797  1.6781
   26MOL   H16210712   5.211   5.894   2.702 -0.0145 -0.5405  0.5480
   26MOL   H16310713   4.989   5.688   2.655  1.6515  0.5350 -2.1377
   26MOL   H16410714   5.103   5.661   2.765 -2.0540 -0.5845  1.2746
   26MOL   H16510715   4.908   5.736   2.886 -2.5192  1.0970 -0.7697
   26MOL   H16610716   4.904   5.885   2.800  1.9031  0.9323 -1.9850
   26MOL   H16710717   5.144   5.795   2.987  0.7758  0.9390  1.5126
   26MOL   H16810718   5.021   5.914   3.021 -0.0024 -1.3486 -0.1860
   26MOL   H16910719   5.146   5.943   2.897 -0.6553  1.5772  0.9556
   26MOL   C17010720   5.429   5.639   2.386 -0.3322  0.2114 -0.2609
   26MOL   C17110721   5.570   5.650   2.457  0.5243  0.4369  0.1519
   26MOL   C17210722   5.663   5.761   2.399  0.3759  1.0940  0.2373
   26MOL   O17310723   5.760   5.729   2.332 -0.2197  0.6045 -0.1551
   26MOL   O17410724   5.617   5.878   2.438 -0.2031  0.0150 -0.1815
   26MOL   C17510725   5.698   5.989   2.409  0.8264  0.8466  0.1394
   26MOL   C17610726   5.724   6.044   2.549  0.0436 -0.0891  0.4375
   26MOL   C17710727   5.591   6.094   2.611  0.0693  1.2543  0.1723
   26MOL   C17810728   5.605   6.196   2.725  0.4687 -0.1300  0.1490
   26MOL   H17910729   5.451   5.559   2.315 -0.0918  1.5367 -1.6935
   26MOL   H18010730   5.366   5.579   2.452  1.1905 -1.1153  0.0242
   26MOL   H18110731   5.625   5.567   2.413  1.3808  2.1742 -2.2374
   26MOL   H18210732   5.651   6.062   2.343  0.3841 -1.3020 -1.9726
   26MOL   H18310733   5.797   5.971   2.368  0.8568 -0.8132  0.8841
   26MOL   H18410734   5.778   5.972   2.611  1.5535 -0.3902 -1.1766
   26MOL   H18510735   5.788   6.131   2.531 -0.7918  0.2485 -0.9381
   26MOL   H18610736   5.532   6.013   2.655  2.0009  0.7098  1.8633
   26MOL   H18710737   5.529   6.128   2.528  1.4653  3.0459 -0.1436
   26MOL   H18810738   5.524   6.175   2.795 -0.0300 -1.1813 -0.7399
   26MOL   H18910739   5.583   6.294   2.682  0.7343  0.6927  1.8388
   26MOL   H19010740   5.698   6.195   2.782  1.3465  0.2496 -1.2447
   26MOL   C19110741   5.570   5.634   2.606  0.2189 -0.4055  0.5001
   26MOL   C19210742   5.701   5.616   2.683  0.8957  0.5520 -0.3694
   26MOL   C19310743   5.672   5.595   2.830 -0.1318  0.2527  0.3804
   26MOL   O19410744   5.566   5.555   2.871 -0.2914 -0.7377 -0.1290
   26MOL   O19510745   5.783   5.630   2.908  0.9508  0.4847 -0.5893
   26MOL   C19610746   5.792   5.610   3.045 -0.1308 -0.2256 -0.3372
   26MOL   C19710747   5.935   5.604   3.098 -0.2006  0.6488 -0.1573
   26MOL   C19810748   5.949   5.536   3.236 -0.3575 -0.3004  0.4347
   26MOL   C19910749   6.095   5.528   3.281  0.9858 -0.5289 -0.0863
   26MOL   H20010750   5.513   5.543   2.624 -2.9822  1.6952  1.2783
   26MOL   H20110751   5.516   5.716   2.654  0.9722 -1.0211  2.4424
   26MOL   H20210752   5.754   5.711   2.671  2.0773  0.1773  1.4829
   26MOL   H20310753   5.734   5.523   3.078  1.0987 -1.4323 -1.3086
   26MOL   H20410754   5.746   5.688   3.105  1.4354 -0.3555  1.0675
   26MOL   H20510755   5.995   5.541   3.031 -0.0561 -1.8122  2.1893
   26MOL   H20610756   5.984   5.701   3.096 -2.8114  2.1097  2.8625
   26MOL   H20710757   5.901   5.438   3.236 -1.3829  0.1782 -0.6328
   26MOL   H20810758   5.879   5.587   3.302 -2.5920 -1.3704 -1.0271
   26MOL   H20910759   6.157   5.507   3.195  0.7962  0.8958 -0.5880
   26MOL   H21010760   6.112   5.451   3.356 -1.3447 -0.2113  0.8246
   26MOL   H21110761   6.133   5.619   3.327  0.5198  0.7520 -2.1537
   26MOL   C21210762   5.792   5.510   2.622 -0.1108  0.5860 -0.2442
   26MOL   C21310763   5.740   5.362   2.653 -0.2303  0.2607  0.5113
   26MOL   C21410764   5.708   5.284   2.525  0.4934  0.0428 -0.1683
   26MOL   O21510765   5.766   5.311   2.419 -0.4163  0.5232 -0.3700
   26MOL   O21610766   5.630   5.177   2.539  0.0285 -0.0957 -0.0933
   26MOL   C21710767   5.591   5.100   2.428 -0.1039  0.5462 -0.3171
   26MOL   C21810768   5.683   4.973   2.415 -0.0510 -0.4647 -0.0637
   26MOL   C21910769   5.642   4.866   2.314 -0.2693  0.0147 -0.1551
   26MOL   C22010770   5.714   4.740   2.334 -0.8401  0.9830 -0.0197
   26MOL   H22110771   5.889   5.520   2.672  0.2931  1.6495 -1.2315
   26MOL   H22210772   5.813   5.524   2.516  1.8295  1.2475  0.2063
   26MOL   H22310773   5.648   5.377   2.709 -1.5223  2.9667 -2.2293
   26MOL   H22410774   5.606   5.159   2.337  1.6022 -0.4461 -0.6842
   26MOL   H22510775   5.484   5.079   2.422  0.0141  0.2943 -1.9775
   26MOL   H22610776   5.785   5.007   2.394  0.2209 -1.6566 -0.7069
   26MOL   H22710777   5.677   4.931   2.516 -0.3909 -2.2653 -0.8271
   26MOL   H22810778   5.650   4.903   2.212  0.9718 -2.7073 -1.0897
   26MOL   H22910779   5.536   4.843   2.325 -0.5201  1.0467 -0.3330
   26MOL   H23010780   5.707   4.719   2.440 -1.9262 -0.3665 -0.3471
   26MOL   H23110781   5.815   4.749   2.292 -0.4828 -0.2405  0.5542
   26MOL   H23210782   5.665   4.654   2.288  1.3896 -0.2263 -0.2010
   26MOL   C23310783   5.833   5.288   2.754  0.6503 -0.5101 -0.4250
   26MOL   C23410784   5.761   5.178   2.837  0.6439 -0.1863 -0.3377
   26MOL   C23510785   5.855   5.067   2.885  0.1282  0.4397 -0.3541
   26MOL   O23610786   5.977   5.092   2.910  0.4232  0.1201 -0.1410
   26MOL   O23710787   5.802   4.944   2.901  0.0607 -0.2097 -0.1784
   26MOL   C23810788   5.883   4.834   2.933 -1.2914  0.4499  0.5367
   26MOL   C23910789   5.941   4.772   2.802 -0.0641 -1.3689  0.0981
   26MOL   C24010790   5.991   4.632   2.811 -0.6499 -0.1107  0.9528
   26MOL   C24110791   6.045   4.581   2.677 -0.3280  0.7025  0.5212
   26MOL   H24210792   5.874   5.368   2.816 -0.4708 -0.2980  0.0493
   26MOL   H24310793   5.918   5.255   2.694  0.8594  0.8574 -0.9045
   26MOL   H24410794   5.692   5.119   2.777  1.2249  0.8292 -2.0473
   26MOL   H24510795   5.817   4.765   2.985 -0.4799 -0.8909 -0.1816
   26MOL   H24610796   5.965   4.852   3.003 -0.5156  1.0669 -0.5249
   26MOL   H24710797   5.869   4.784   2.721  2.1296  3.8977 -1.3319
   26MOL   H24810798   6.015   4.847   2.773 -0.0958 -0.9963  0.9480
   26MOL   H24910799   5.907   4.577   2.852 -1.2109  0.8146  1.0534
   26MOL   H25010800   6.071   4.629   2.885  1.1967  0.7670 -0.9365
   26MOL   H25110801   6.130   4.639   2.642 -0.5530 -0.3106 -1.8219
   26MOL   H25210802   5.973   4.582   2.596 -0.2623 -1.7820  0.3882
   26MOL   H25310803   6.083   4.479   2.685  2.7737  1.4869 -2.9250
   26MOL   C25410804   5.696   5.242   2.963  0.3737  0.5993 -0.0120
   26MOL   C25510805   5.579   5.173   3.017  0.0324  0.3978  0.5851
   26MOL   C25610806   5.543   5.235   3.156  0.1955 -0.1770  0.7154
   26MOL   O25710807   5.534   5.166   3.256  0.0948  0.0800  0.3200
   26MOL   O25810808   5.518   5.364   3.140 -0.4809  0.2035 -0.0327
   26MOL   C25910809   5.464   5.437   3.251 -0.3011  0.1292  0.5549
   26MOL   C26010810   5.370   5.541   3.198  0.4772 -0.0163 -0.5958
   26MOL   C26110811   5.296   5.600   3.323 -0.4484  0.6796 -0.2489
   26MOL   C26210812   5.174   5.685   3.298  0.5313  0.0031  0.6412
   26MOL   H26310813   5.670   5.344   2.937  2.3283  0.4272 -2.8352
   26MOL   H26410814   5.768   5.254   3.044 -0.4990 -0.9580  1.0312
   26MOL   H26510815   5.610   5.069   3.029  0.1125  0.1440 -1.5463
   26MOL   H26610816   5.550   5.478   3.305 -1.0371  1.7482  0.5121
   26MOL   H26710817   5.409   5.366   3.313  0.3229  1.6024  2.8757
   26MOL   H26810818   5.423   5.620   3.144 -0.8434  1.2459 -0.0718
   26MOL   H26910819   5.296   5.498   3.130  0.8906 -0.1390 -0.9711
   26MOL   H27010820   5.363   5.662   3.383  0.1172 -0.9046  0.7765
   26MOL   H27110821   5.267   5.518   3.389  0.4550 -0.3437 -1.1133
   26MOL   H27210822   5.103   5.655   3.221  0.3639  1.1581  0.3482
   26MOL   H27310823   5.206   5.784   3.268  1.0221 -0.1164  0.7574
   26MOL   H27410824   5.129   5.686   3.397  0.5306  1.4871  0.6366
   26MOL   C27510825   5.452   5.169   2.926  0.6491  0.2161  0.0975
   26MOL   C27610826   5.359   5.051   2.959  0.2051  0.3557  0.1378
   26MOL   C27710827   5.261   5.067   3.074  0.5561  0.7026  0.0999
   26MOL   O27810828   5.246   4.987   3.166  0.0703 -0.2447  0.0938
   26MOL   O27910829   5.183   5.171   3.055  0.3622  0.3099 -0.3182
   26MOL   C28010830   5.088   5.217   3.154 -0.7005 -0.4834  1.2054
   26MOL   C28110831   5.022   5.345   3.107  0.4704  0.2014  0.1282
   26MOL   C28210832   4.908   5.313   3.003  0.3780 -0.2054  0.4304
   26MOL   C28310833   4.834   5.439   2.939 -0.8579 -1.0176 -0.5284
   26MOL   H28410834   5.493   5.161   2.825  0.2919  1.4086 -0.1399
   26MOL   H28510835   5.396   5.262   2.932  0.6122  0.2684 -1.0432
   26MOL   H28610836   5.427   4.971   2.990  0.3579  0.2442 -0.4901
   26MOL   H28710837   5.145   5.235   3.245 -0.6020 -0.3104  1.1091
   26MOL   H28810838   5.007   5.144   3.163  1.6921 -2.9527  3.5846
   26MOL   H28910839   4.972   5.393   3.192  0.3951 -0.2455  0.3356
   26MOL   H29010840   5.091   5.419   3.065  0.8086 -1.2312 -1.8797
   26MOL   H29110841   4.843   5.230   3.033  1.6534 -1.1210  0.7290
   26MOL   H29210842   4.960   5.250   2.931 -2.5176 -2.0356 -0.1393
   26MOL   H29310843   4.786   5.501   3.015  1.8099  0.3925  0.0729
   26MOL   H29410844   4.751   5.414   2.874 -1.0256  1.4146 -1.3104
   26MOL   H29510845   4.904   5.497   2.878 -2.2566 -0.5149 -1.6795
   26MOL   C29610846   5.278   4.992   2.843 -0.0959  0.5420  0.5920
   26MOL   C29710847   5.369   4.927   2.730 -0.3414 -0.3349 -0.2889
   26MOL   C29810848   5.471   4.827   2.781 -0.6526  0.8542 -0.0847
   26MOL   O29910849   5.583   4.830   2.736 -0.2553 -0.0362 -0.6673
   26MOL   O30010850   5.431   4.754   2.877  0.2835 -0.4497  0.2852
   26MOL   C30110851   5.512   4.663   2.949 -0.2671 -0.0172 -0.3088
   26MOL   C30210852   5.570   4.719   3.082  0.7148 -0.1092  0.0583
   26MOL   C30310853   5.472   4.731   3.199 -0.3565 -1.0645  0.8775
   26MOL   C30410854   5.537   4.770   3.334  0.2380  0.3015  0.1431
   26MOL   H30510855   5.229   5.078   2.798 -0.5136  0.1043  0.1994
   26MOL   H30610856   5.202   4.920   2.874  0.4227  0.0405  0.6888
   26MOL   H30710857   5.414   5.011   2.678 -1.9600 -0.6682 -2.3189
   26MOL   H30810858   5.594   4.621   2.889 -2.1036 -3.4652 -0.5485
   26MOL   H30910859   5.447   4.578   2.971 -2.1296  1.3476 -0.5059
   26MOL   H31010860   5.643   4.645   3.117  1.1174 -0.0656 -0.7015
   26MOL   H31110861   5.620   4.815   3.069  1.0080 -0.1535  0.7815
   26MOL   H31210862   5.425   4.633   3.207  1.2858 -1.9160  0.1337
   26MOL   H31310863   5.398   4.806   3.167 -0.2927 -2.1543 -2.0056
   26MOL   H31410864   5.631   4.717   3.350  0.7384  1.3065  0.5708
   26MOL   H31510865   5.472   4.757   3.420 -0.2166 -3.4873 -0.6606
   26MOL   H31610866   5.566   4.874   3.322 -2.0049  1.3590  3.3192
   26MOL   C31710867   5.279   4.854   2.621  0.3527  0.3281 -0.4810
   26MOL   C31810868   5.173   4.945   2.557 -0.5939  0.1062  0.4122
   26MOL   C31910869   5.228   5.028   2.440 -0.5562 -0.3763 -0.0926
   26MOL   O32010870   5.266   5.144   2.458 -0.8312 -0.5719  0.3899
   26MOL   O32110871   5.256   4.957   2.331  0.2248 -0.1342 -0.2374
   26MOL   C32210872   5.304   5.006   2.208  0.1841  0.4549  0.8936
   26MOL   C32310873   5.234   4.922   2.101 -0.4450 -0.1622  0.3274
   26MOL   C32410874   5.087   4.938   2.107 -1.1406 -0.3418 -0.1042
   26MOL   C32510875   5.027   4.890   1.974 -0.0951 -0.4215 -0.0378
   26MOL   H32610876   5.215   4.782   2.672 -0.5598  1.8635  0.6059
   26MOL   H32710877   5.335   4.813   2.537  0.9971  0.9532 -0.3607
   26MOL   H32810878   5.135   5.010   2.636 -0.4060  0.8615 -0.1212
   26MOL   H32910879   5.412   4.995   2.200  0.1232 -0.4321  1.1940
   26MOL   H33010880   5.269   5.107   2.187  0.4548  0.3994  0.1338
   26MOL   H33110881   5.271   4.957   2.005 -1.0356  0.8245  0.4613
   26MOL   H33210882   5.267   4.819   2.115  0.5429 -0.0681 -1.1743
   26MOL   H33310883   5.079   5.047   2.101 -0.6165 -0.2405  0.9434
   26MOL   H33410884   5.041   4.887   2.191  0.3402 -1.7936 -0.1620
   26MOL   H33510885   4.925   4.926   1.967  0.3211  1.0354  1.1020
   26MOL   H33610886   5.017   4.782   1.972 -0.4600 -0.4168  1.5853
   26MOL   H33710887   5.091   4.916   1.889 -1.3883  1.1581 -0.5571
   26MOL   C33810888   5.055   4.869   2.501  0.5203 -0.5576 -0.8114
   26MOL   C33910889   4.956   4.801   2.604  0.0728  0.2922 -0.0861
   26MOL   C34010890   4.894   4.901   2.711 -0.3905 -0.3481 -0.2539
   26MOL   O34110891   4.899   5.024   2.699 -0.0844  0.2054 -0.2365
   26MOL   O34210892   4.832   4.840   2.815  0.3763  0.2472  0.3240
   26MOL   C34310893   4.808   4.916   2.932  0.2901 -0.4984  0.5169
   26MOL   C34410894   4.925   4.887   3.024 -0.8321  0.3094 -0.1564
   26MOL   C34510895   4.933   4.738   3.059  0.2596 -0.4694  0.5758
   26MOL   C34610896   5.068   4.708   3.120  0.3314 -0.0279  0.1215
   26MOL   H34710897   5.092   4.792   2.433  1.5243 -0.2420 -0.6225
   26MOL   H34810898   4.988   4.934   2.445  1.4296 -0.3870 -1.6974
   26MOL   H34910899   5.018   4.734   2.665 -1.0252 -0.4583  0.2271
   26MOL   H35010900   4.713   4.877   2.969  0.6820 -1.5194  0.4792
   26MOL   H35110901   4.797   5.023   2.914  2.6429  0.0035  1.8130
   26MOL   H35210902   5.020   4.926   2.987 -0.1248 -0.7788  0.4871
   26MOL   H35310903   4.914   4.952   3.111 -0.1449 -1.3784  1.2256
   26MOL   H35410904   4.938   4.678   2.969  1.1520 -0.1335  0.3982
   26MOL   H35510905   4.851   4.708   3.125 -1.3648 -0.2135 -1.3011
   26MOL   H35610906   5.156   4.732   3.061  1.3546 -1.2238  1.1324
   26MOL   H35710907   5.066   4.604   3.154  0.7944  0.2403  0.9788
   26MOL   H35810908   5.081   4.776   3.204  1.2478  1.2673 -1.0594
   26MOL   C35910909   4.854   4.713   2.530 -0.3278  0.1889 -0.5250
   26MOL   C36010910   4.904   4.579   2.462  0.2316  0.5514 -0.8851
   26MOL   C36110911   4.933   4.458   2.553  0.0436  0.2326 -0.0338
   26MOL   O36210912   4.876   4.351   2.542 -0.0519 -0.0558 -0.6040
   26MOL   O36310913   5.025   4.482   2.646  0.2501  0.2469 -0.1724
   26MOL   C36410914   5.056   4.375   2.741  0.4158  0.3890  0.9439
   26MOL   C36510915   5.125   4.439   2.858  0.0100 -0.6449  0.1054
   26MOL   C36610916   5.198   4.333   2.944  0.7733  0.2642 -0.0114
   26MOL   C36710917   5.209   4.371   3.095  0.0710  0.0402  0.8722
   26MOL   H36810918   4.805   4.767   2.449  0.0156 -1.3525 -1.7871
   26MOL   H36910919   4.779   4.682   2.603 -0.2310 -0.2796 -0.6258
   26MOL   H37010920   5.005   4.604   2.431  0.0119  1.2959 -1.0191
   26MOL   H37110921   5.124   4.305   2.691 -0.1102  1.2987 -1.1226
   26MOL   H37210922   4.965   4.331   2.780 -0.3578  1.6882  0.6336
   26MOL   H37310923   5.201   4.511   2.829 -0.8931  0.8147  1.2760
   26MOL   H37410924   5.057   4.498   2.921  0.9916  0.2437  0.3410
   26MOL   H37510925   5.299   4.323   2.906  1.3260 -1.0714  1.7424
   26MOL   H37610926   5.155   4.233   2.936  0.2139  0.5368 -0.4924
   26MOL   H37710927   5.276   4.452   3.122 -0.6420  0.6313  0.8587
   26MOL   H37810928   5.241   4.284   3.153  1.2696  0.8472  1.4398
   26MOL   H37910929   5.115   4.400   3.141 -1.1805 -0.1517 -1.5305
   26MOL   C38010930   4.829   4.545   2.330  0.4453  0.1112  0.0653
   26MOL   C38110931   4.875   4.621   2.196  0.0004 -1.0264  0.6043
   26MOL   C38210932   5.008   4.566   2.144  0.6261 -0.2388 -0.2695
   26MOL   O38310933   5.111   4.591   2.201 -0.4165  0.3364 -0.4922
   26MOL   O38410934   4.994   4.471   2.053 -0.0757 -0.3978  0.0328
   26MOL   C38510935   5.112   4.388   2.011 -0.0596  0.2609  0.2399
   26MOL   C38610936   5.136   4.264   2.105 -0.3530  0.4970 -0.1684
   26MOL   C38710937   5.018   4.178   2.115 -0.1417  0.3521  0.6370
   26MOL   C38810938   5.055   4.056   2.198  0.4249 -0.7568  0.1905
   26MOL   H38910939   4.728   4.582   2.345 -0.4050 -1.6869 -1.0288
   26MOL   H39010940   4.809   4.439   2.314 -0.8937  0.3894 -0.1823
   26MOL   H39110941   4.900   4.723   2.226  1.2986 -1.4681  1.0268
   26MOL   H39210942   5.197   4.450   1.984 -1.0181  1.2597 -0.5380
   26MOL   H39310943   5.095   4.350   1.910 -0.8659 -1.0733  0.8751
   26MOL   H39410944   5.211   4.202   2.057  0.5822 -0.3170  2.2381
   26MOL   H39510945   5.181   4.283   2.203  0.8403  2.5471 -1.0653
   26MOL   H39610946   4.979   4.153   2.017  3.8925 -0.5794 -0.8192
   26MOL   H39710947   4.948   4.232   2.179 -0.0680  0.7440  0.3946
   26MOL   H39810948   5.125   4.004   2.132  1.2612 -0.5553  0.9085
   26MOL   H39910949   4.970   3.988   2.202 -0.5893  0.3104 -2.4265
   26MOL   H40010950   5.108   4.073   2.292  1.4144  2.7680 -0.9396
   26MOL   C40110951   4.767   4.642   2.087 -0.0603 -0.0469  0.7586
   26MOL   C40210952   4.635   4.709   2.120  0.6147 -0.0942 -0.2365
   26MOL   C40310953   4.648   4.863   2.150 -0.0742 -0.5716 -0.1630
   26MOL   O40410954   4.676   4.950   2.070 -0.3634 -0.3118  0.0126
   26MOL   O40510955   4.628   4.883   2.278 -0.2853  0.1078  0.5940
   26MOL   C40610956   4.636   5.016   2.338  0.4280 -0.1170  0.0271
   26MOL   C40710957   4.572   4.999   2.478 -0.3331  0.2951 -0.5191
   26MOL   C40810958   4.582   5.129   2.553  0.4657 -0.5196 -0.5307
   26MOL   C40910959   4.512   5.132   2.689 -0.2888  0.3213 -0.1234
   26MOL   H41010960   4.761   4.543   2.042  2.2009 -0.0826  0.4709
   26MOL   H41110961   4.805   4.709   2.011 -1.4551  1.7863  1.6312
   26MOL   H41210962   4.578   4.646   2.187 -1.2041  0.1354 -1.5413
   26MOL   H41310963   4.580   5.081   2.270 -1.2873 -1.3640  0.2393
   26MOL   H41410964   4.742   5.040   2.350  0.1083  1.5068 -0.1627
   26MOL   H41510965   4.469   4.966   2.463 -0.2454 -0.2443  0.0438
   26MOL   H41610966   4.619   4.916   2.532 -2.4239 -0.2003  0.6238
   26MOL   H41710967   4.545   5.217   2.500 -0.0983 -0.5014 -0.1078
   26MOL   H41810968   4.680   5.172   2.568  0.7827 -2.1166  2.1612
   26MOL   H41910969   4.408   5.115   2.661 -0.5413 -0.2996  1.1707
   26MOL   H42010970   4.508   5.226   2.744  1.2202 -0.8710  2.0655
   26MOL   H42110971   4.544   5.055   2.758  0.3739  1.0260  0.3656
   26MOL   H42210972   4.575   4.704   2.029  1.4619 -0.1635 -0.8047
   27MOL     C110973   3.331   6.776   3.379 -0.0071  0.0433  0.2943
   27MOL     C210974   3.203   6.852   3.423  0.1795 -0.0752 -1.3467
   27MOL     C310975   3.213   6.859   3.584  0.8142 -0.9271  0.0548
   27MOL     O410976   3.146   6.782   3.650  0.0280 -0.1781 -0.3046
   27MOL     O510977   3.301   6.947   3.632 -0.1402  0.2109 -0.3192
   27MOL     C610978   3.329   6.938   3.773 -0.1003 -0.2183 -0.1026
   27MOL     C710979   3.450   7.026   3.807 -0.0161  0.0198  0.4661
   27MOL     C810980   3.573   7.007   3.713  0.8333  0.0154 -0.1620
   27MOL     C910981   3.704   7.068   3.763  0.3503 -0.5421  0.1003
   27MOL    H1010982   3.358   6.783   3.274  1.5383 -2.7499  0.4654
   27MOL    H1110983   3.421   6.800   3.435 -0.1526  0.3310  0.4092
   27MOL    H1210984   3.108   6.805   3.399  0.8518 -1.6332 -1.0611
   27MOL    H1310985   3.358   6.834   3.790  1.8722  0.2439 -0.5576
   27MOL    H1410986   3.243   6.959   3.837 -1.0500  0.5981 -1.6051
   27MOL    H1510987   3.425   7.132   3.805 -0.9076 -0.1660  1.0741
   27MOL    H1610988   3.477   7.011   3.911  1.4413  2.9016  0.5540
   27MOL    H1710989   3.545   7.035   3.612 -0.8529 -1.0228 -0.0039
   27MOL    H1810990   3.601   6.903   3.702  2.4286  0.5375 -1.2416
   27MOL    H1910991   3.767   7.063   3.674  0.2728  0.6938 -0.0333
   27MOL    H2010992   3.748   7.006   3.842 -1.6453 -3.8595 -1.2808
   27MOL    H2110993   3.702   7.174   3.785 -0.7675 -0.1322 -1.8686
   27MOL    H2210994   3.318   6.669   3.397  0.2976  0.0888  0.7965
   27MOL    C2310995   3.198   6.990   3.352 -0.0896 -0.5259  0.5013
   27MOL    C2410996   3.164   6.986   3.203 -0.2504 -0.6362 -0.5814
   27MOL    C2510997   3.011   6.953   3.175 -0.1385  0.1486 -0.3600
   27MOL    O2610998   2.976   6.874   3.088  0.4691  0.0820  0.0958
   27MOL    O2710999   2.924   7.030   3.256 -0.1366 -0.1854  0.3981
   27MOL    C2811000   2.783   7.008   3.251 -0.1055 -0.6261  0.2656
   27MOL    C2911001   2.724   7.144   3.205  0.3557  0.3107 -0.3328
   27MOL    C3011002   2.571   7.144   3.224 -0.2273  0.3753 -0.4164
   27MOL    C3111003   2.509   7.278   3.189 -0.1173 -0.4628 -1.1890
   27MOL    H3211004   3.295   7.036   3.371 -0.7870  0.9461  0.5751
   27MOL    H3311005   3.125   7.052   3.405 -0.7710 -0.5360 -0.4229
   27MOL    H3411006   3.215   6.910   3.144  1.4360  0.6630 -0.8338
   27MOL    H3511007   2.755   6.977   3.352 -0.7811  0.8344  0.5408
   27MOL    H3611008   2.755   6.934   3.176  0.1990  0.0997 -0.5797
   27MOL    H3711009   2.772   7.220   3.267  0.6470 -0.1370 -0.0117
   27MOL    H3811010   2.762   7.164   3.104 -0.1880 -0.4195 -0.6889
   27MOL    H3911011   2.555   7.130   3.331 -0.5049 -0.2997 -0.5417
   27MOL    H4011012   2.529   7.054   3.179 -0.1485 -0.2247  0.6881
   27MOL    H4111013   2.567   7.330   3.112  0.8250  0.9963  0.4707
   27MOL    H4211014   2.519   7.343   3.276 -0.4275 -1.7747 -0.1589
   27MOL    H4311015   2.402   7.272   3.172 -0.7783  3.0007  1.3122
   27MOL    C4411016   3.207   7.107   3.123 -0.5915 -0.0348  0.7149
   27MOL    C4511017   3.185   7.097   2.971 -0.5759  0.1887 -0.4734
   27MOL    C4611018   3.051   7.147   2.918 -0.2004 -0.2425  0.6219
   27MOL    O4711019   2.975   7.088   2.847 -0.1748 -0.4551  0.4357
   27MOL    O4811020   3.041   7.268   2.958  0.1559  0.6628  0.5224
   27MOL    C4911021   2.920   7.342   2.934  0.0984  0.1310 -0.6198
   27MOL    C5011022   2.962   7.481   2.882  0.0048 -0.4846 -0.8900
   27MOL    C5111023   3.009   7.477   2.742 -0.9872 -0.3301  0.5201
   27MOL    C5211024   3.044   7.618   2.681 -0.4051 -0.1951  0.3611
   27MOL    H5311025   3.312   7.120   3.148 -0.3359  1.1574 -0.8735
   27MOL    H5411026   3.150   7.192   3.161 -1.4121 -0.8391  1.2932
   27MOL    H5511027   3.177   6.993   2.938  0.8460  0.3777 -1.4701
   27MOL    H5611028   2.877   7.343   3.035 -0.2572  1.2643 -0.7740
   27MOL    H5711029   2.855   7.290   2.864 -0.6303  1.6088 -1.0792
   27MOL    H5811030   2.873   7.544   2.880  1.1561  1.2915  0.4846
   27MOL    H5911031   3.037   7.537   2.940  0.7189 -0.2633 -2.0227
   27MOL    H6011032   2.921   7.431   2.699 -0.0362 -0.8349 -0.9287
   27MOL    H6111033   3.094   7.409   2.744 -0.9645 -0.2869  1.1035
   27MOL    H6211034   2.961   7.683   2.710  0.4164  0.5102  1.1648
   27MOL    H6311035   3.046   7.624   2.572 -1.0706 -0.3729  0.3341
   27MOL    H6411036   3.135   7.666   2.716  1.1663 -0.6452 -2.9064
   27MOL    C6511037   3.303   7.154   2.884 -0.0575 -0.1083 -0.3784
   27MOL    C6611038   3.430   7.071   2.887 -0.5969 -0.1527  0.1947
   27MOL    C6711039   3.436   6.950   2.793 -0.5659 -0.2265  0.7032
   27MOL    O6811040   3.446   6.834   2.841  0.0906  0.5431  0.1664
   27MOL    O6911041   3.410   6.983   2.667 -0.3025 -0.2296  0.0465
   27MOL    C7011042   3.446   6.890   2.560  0.7021  0.6971 -0.2714
   27MOL    C7111043   3.327   6.884   2.467 -0.3013 -0.4105 -0.1351
   27MOL    C7211044   3.335   6.789   2.346  0.2928  0.5476  0.5833
   27MOL    C7311045   3.211   6.797   2.247 -0.9150  0.0945 -0.1959
   27MOL    H7411046   3.318   7.250   2.935  0.1324 -0.3455  0.0191
   27MOL    H7511047   3.269   7.174   2.783 -2.7302 -3.9250 -0.3202
   27MOL    H7611048   3.447   7.026   2.985 -1.1119 -0.7407  0.0180
   27MOL    H7711049   3.471   6.792   2.598 -0.5989 -0.1409 -1.5030
   27MOL    H7811050   3.536   6.921   2.508  0.7958 -0.8047 -1.0068
   27MOL    H7911051   3.233   6.861   2.518  1.3516 -2.0498  2.3112
   27MOL    H8011052   3.325   6.982   2.418 -2.4244 -0.5624 -0.4179
   27MOL    H8111053   3.349   6.684   2.371  0.9540  0.5104  0.0609
   27MOL    H8211054   3.423   6.811   2.286 -0.5994 -1.0652 -1.3741
   27MOL    H8311055   3.114   6.782   2.294 -1.1837 -2.1019 -1.3679
   27MOL    H8411056   3.212   6.711   2.179 -1.6594  0.8294 -1.1506
   27MOL    H8511057   3.209   6.893   2.196  0.2183 -0.1015 -0.6422
   27MOL    C8611058   3.548   7.166   2.846 -0.0427  0.5873  0.7215
   27MOL    C8711059   3.675   7.095   2.899 -0.0244 -0.2435 -0.1244
   27MOL    C8811060   3.779   7.071   2.795 -0.1315 -0.2532 -0.9810
   27MOL    O8911061   3.786   6.961   2.735 -0.0131 -0.0544 -0.2262
   27MOL    O9011062   3.857   7.170   2.769  0.2429 -0.3189 -0.0064
   27MOL    C9111063   3.972   7.166   2.693  0.3766  0.3544  0.6501
   27MOL    C9211064   4.097   7.204   2.768  0.4525 -0.0830 -0.3854
   27MOL    C9311065   4.208   7.259   2.684 -0.0483 -0.0613 -0.6287
   27MOL    C9411066   4.337   7.258   2.769  0.2420  0.5180 -0.1931
   27MOL    H9511067   3.531   7.263   2.893 -1.6192 -0.1093  1.6341
   27MOL    H9611068   3.560   7.180   2.739  0.5448 -0.2460  0.6785
   27MOL    H9711069   3.652   6.990   2.916  3.7302 -1.0380  0.6132
   27MOL    H9811070   3.952   7.224   2.603  0.5313  0.0088  0.3917
   27MOL    H9911071   3.981   7.059   2.672 -0.4796  0.2220  0.9339
   27MOL   H10011072   4.051   7.274   2.839 -0.3754 -0.4074 -0.5880
   27MOL   H10111073   4.136   7.116   2.820  0.5405 -1.0269 -2.0097
   27MOL   H10211074   4.184   7.363   2.659 -0.3231  0.8915  3.2327
   27MOL   H10311075   4.235   7.204   2.594  1.7730  1.8244 -1.2861
   27MOL   H10411076   4.419   7.318   2.730 -0.1574  0.1997 -1.5302
   27MOL   H10511077   4.380   7.159   2.785  0.1979  0.3428 -1.1299
   27MOL   H10611078   4.333   7.290   2.873  1.0605  1.3472 -0.4176
   27MOL   C10711079   3.735   7.164   3.026  0.4448  0.2272  0.3073
   27MOL   C10811080   3.666   7.123   3.158 -0.3248  0.2722 -0.4994
   27MOL   C10911081   3.685   6.970   3.204 -0.7267  0.7066  0.6506
   27MOL   O11011082   3.591   6.896   3.218  0.0604  0.0642 -0.2931
   27MOL   O11111083   3.813   6.940   3.223 -0.0835  0.2548  0.1460
   27MOL   C11211084   3.852   6.802   3.220  0.7551 -0.3075  0.1135
   27MOL   C11311085   3.997   6.787   3.170  0.6251 -0.5404 -0.6803
   27MOL   C11411086   4.033   6.849   3.029 -0.6268  0.6065  0.3287
   27MOL   C11511087   4.188   6.838   3.005  0.3545 -0.4081  0.3193
   27MOL   H11611088   3.755   7.270   3.016  2.8960 -0.2574 -0.2241
   27MOL   H11711089   3.837   7.133   3.046  0.2276 -1.5716 -1.2403
   27MOL   H11811090   3.559   7.134   3.140  0.4109  3.7581 -3.4008
   27MOL   H11911091   3.777   6.736   3.177  3.6416 -2.9754 -1.0734
   27MOL   H12011092   3.850   6.787   3.328 -0.4129 -0.2614  0.1033
   27MOL   H12111093   4.054   6.834   3.250  0.4357 -0.5422 -0.5423
   27MOL   H12211094   4.028   6.682   3.176 -1.3564 -1.1752 -0.9883
   27MOL   H12311095   4.001   6.953   3.020  0.6120  0.8329 -2.0535
   27MOL   H12411096   3.978   6.795   2.952  0.8670 -2.0734  1.0746
   27MOL   H12511097   4.202   6.880   2.905  0.8672 -1.4991 -0.0788
   27MOL   H12611098   4.232   6.739   2.993 -3.2079 -2.5196  3.2892
   27MOL   H12711099   4.244   6.896   3.078 -0.7431  1.2214 -0.0934
   27MOL   C12811100   3.702   7.223   3.267  0.9077  0.4428  0.0352
   27MOL   C12911101   3.636   7.357   3.254  0.4672  0.5182 -0.2833
   27MOL   C13011102   3.489   7.347   3.288 -0.0452  0.1350 -0.6797
   27MOL   O13111103   3.433   7.243   3.331  0.5631  0.2999 -0.1658
   27MOL   O13211104   3.422   7.460   3.278 -0.7530  0.2755 -0.0992
   27MOL   C13311105   3.281   7.467   3.293 -0.5131  0.4195  0.3198
   27MOL   C13411106   3.244   7.614   3.280 -0.0547  0.3184 -0.5628
   27MOL   C13511107   3.092   7.631   3.261 -0.1114  0.3591  0.3190
   27MOL   C13611108   3.033   7.771   3.265  0.4659 -0.6525  0.1121
   27MOL   H13711109   3.811   7.232   3.264  1.0041 -0.2832  1.2679
   27MOL   H13811110   3.679   7.175   3.362  0.1467 -1.0080 -0.8638
   27MOL   H13911111   3.640   7.394   3.151  0.2488  1.9933  0.2242
   27MOL   H14011112   3.251   7.429   3.391 -0.4973 -0.6984 -0.1050
   27MOL   H14111113   3.237   7.406   3.214  0.5153  1.9930 -1.4924
   27MOL   H14211114   3.274   7.661   3.374 -0.2527  2.0948 -1.3656
   27MOL   H14311115   3.304   7.662   3.203  1.2316 -2.1114 -1.0866
   27MOL   H14411116   3.042   7.562   3.329 -0.2114 -0.3880 -0.5127
   27MOL   H14511117   3.056   7.594   3.166  0.2561 -0.2397  0.4116
   27MOL   H14611118   2.933   7.754   3.225  0.2117 -0.9654  0.8655
   27MOL   H14711119   3.083   7.848   3.207 -2.3847  1.5364  0.4252
   27MOL   H14811120   3.029   7.816   3.365  0.2348  2.3855 -1.1946
   27MOL   C14911121   3.711   7.457   3.357  0.4787  0.1835 -0.3404
   27MOL   C15011122   3.835   7.531   3.299  0.1518 -0.5913 -1.1544
   27MOL   C15111123   3.812   7.579   3.162  0.2221 -0.1223  0.5055
   27MOL   O15211124   3.884   7.528   3.070 -0.3130  0.1496  0.3365
   27MOL   O15311125   3.707   7.658   3.147  0.4376 -0.5092 -0.3394
   27MOL   C15411126   3.688   7.722   3.025  0.7583  0.2813  0.2280
   27MOL   C15511127   3.600   7.642   2.929 -0.0862  0.0975  1.0812
   27MOL   C15611128   3.448   7.658   2.936 -0.4750 -0.1225 -1.3100
   27MOL   C15711129   3.377   7.546   2.857  0.1079 -0.2933  0.1355
   27MOL   H15811130   3.747   7.392   3.437 -0.4295 -0.6565 -0.5927
   27MOL   H15911131   3.634   7.526   3.390 -0.0837 -0.0555 -1.1305
   27MOL   H16011132   3.929   7.474   3.299  1.2637  1.2036 -1.5225
   27MOL   H16111133   3.788   7.733   2.983  0.6954  2.9619  0.6635
   27MOL   H16211134   3.654   7.825   3.041 -0.4494  0.0722 -0.9016
   27MOL   H16311135   3.633   7.653   2.826  2.8447  1.7624  2.1202
   27MOL   H16411136   3.614   7.535   2.944  0.0004  0.0740  0.8276
   27MOL   H16511137   3.409   7.753   2.900 -2.0418  0.6348  2.1978
   27MOL   H16611138   3.413   7.655   3.039  1.2531 -0.0627 -0.6970
   27MOL   H16711139   3.428   7.456   2.890  0.6216  0.6405  1.9789
   27MOL   H16811140   3.393   7.552   2.749 -0.7093 -2.6941 -0.1591
   27MOL   H16911141   3.270   7.552   2.880  0.2309  1.3669  0.3269
   27MOL   C17011142   3.854   7.653   3.393  0.0942  0.0772  0.0720
   27MOL   C17111143   3.925   7.611   3.525 -0.2548  0.4503  0.9292
   27MOL   C17211144   4.072   7.573   3.490  0.4006  0.0572  0.4433
   27MOL   O17311145   4.130   7.470   3.521 -0.0102  0.2017 -0.0119
   27MOL   O17411146   4.126   7.677   3.427 -0.1825  0.4402  0.2477
   27MOL   C17511147   4.224   7.649   3.331 -0.2940  0.0818 -0.0892
   27MOL   C17611148   4.268   7.781   3.270 -0.2176  0.2082 -0.2910
   27MOL   C17711149   4.155   7.836   3.180  0.8138 -0.2689 -0.3616
   27MOL   C17811150   4.209   0.095   3.095 -0.8382 -0.4022  0.0848
   27MOL   H17911151   3.757   7.697   3.415 -0.8762 -0.8009 -2.2533
   27MOL   H18011152   3.920   7.732   3.356 -1.1553  0.9535 -0.2955
   27MOL   H18111153   3.879   7.520   3.564  0.1285  0.5485  1.6321
   27MOL   H18211154   4.182   7.585   3.253 -0.9941 -2.6532  2.4539
   27MOL   H18311155   4.315   7.608   3.376  1.3745 -1.1015 -4.2433
   27MOL   H18411156   4.283   0.004   3.347 -3.8924 -0.1659  0.8976
   27MOL   H18511157   4.362   7.747   3.225  0.5701 -2.0085  2.8422
   27MOL   H18611158   4.073   0.021   3.241  0.5828  0.9998 -1.4274
   27MOL   H18711159   4.116   7.755   3.118  0.6809 -1.4737  1.2682
   27MOL   H18811160   4.147   0.104   3.006 -1.5757 -1.5664  0.4743
   27MOL   H18911161   4.306   0.072   3.050 -0.8768 -3.1369  1.3078
   27MOL   H19011162   4.209   0.197   3.133 -1.9058 -0.2435 -0.3160
   27MOL   C19111163   3.918   7.714   3.635  0.6065  0.0922  0.2066
   27MOL   C19211164   3.965   7.669   3.776  0.2815 -0.4036 -0.6880
   27MOL   C19311165   3.977   7.789   3.867  0.6142 -0.3393 -0.5577
   27MOL   O19411166   3.923   0.044   3.845 -0.5901  0.2309 -0.2207
   27MOL   O19511167   4.063   7.760   3.967  0.6258  0.0935 -0.7416
   27MOL   C19611168   4.088   0.011   4.062 -0.5351  0.5448 -0.8927
   27MOL   C19711169   4.209   7.831   4.145 -0.6664 -0.5059  0.3666
   27MOL   C19811170   4.340   7.802   4.068  0.0417  0.3983  0.2439
   27MOL   C19911171   4.442   7.747   4.160 -0.0867 -0.2451  0.4491
   27MOL   H20011172   3.824   7.768   3.629  0.3805 -0.3806 -0.5577
   27MOL   H20111173   3.987   7.794   3.610 -2.3179  3.7934  3.3364
   27MOL   H20211174   4.069   7.637   3.765  0.7183  0.8285 -0.1879
   27MOL   H20311175   3.999   0.010   4.124  0.0653  1.3952 -0.0037
   27MOL   H20411176   4.101   0.104   4.007 -1.1299  0.9389 -0.3695
   27MOL   H20511177   4.230   0.054   4.220  2.0481  0.2058 -1.0201
   27MOL   H20611178   4.192   7.742   4.206 -0.9151 -1.4870 -1.0912
   27MOL   H20711179   4.385   0.040   4.029 -1.2139  1.0813  0.3646
   27MOL   H20811180   4.321   7.736   3.983 -0.7751  2.3822 -1.1432
   27MOL   H20911181   4.411   7.662   4.220 -2.1140  0.7152  0.8044
   27MOL   H21011182   4.468   7.824   4.232 -1.1919  0.7726 -0.2185
   27MOL   H21111183   4.535   7.716   4.112 -1.2757 -0.8546 -1.5360
   27MOL   C21211184   3.896   7.541   3.827  0.1150 -0.1525 -0.2909
   27MOL   C21311185   3.743   7.561   3.871 -1.1327 -0.2058 -0.3970
   27MOL   C21411186   3.650   7.509   3.761  0.5252 -0.2460  0.0497
   27MOL   O21511187   3.669   7.411   3.691 -0.0331  0.1739 -0.0676
   27MOL   O21611188   3.546   7.595   3.741  0.1042 -0.3637 -0.3454
   27MOL   C21711189   3.453   7.578   3.639  0.0341 -0.2751  0.5337
   27MOL   C21811190   3.331   7.505   3.689  0.2054 -0.9871  0.6430
   27MOL   C21911191   3.225   7.594   3.757  0.0325  0.2562  0.2863
   27MOL   C22011192   3.097   7.506   3.786 -0.1197  0.2445  0.2027
   27MOL   H22111193   3.952   7.518   3.918  0.8654 -1.3433 -1.0350
   27MOL   H22211194   3.913   7.453   3.764 -0.0507  0.8890 -1.8266
   27MOL   H22311195   3.719   7.666   3.888 -2.8891 -0.6407 -0.1343
   27MOL   H22411196   3.501   7.529   3.554  3.0821 -0.2224  2.1774
   27MOL   H22511197   3.412   7.673   3.604 -0.7906 -0.7574  0.1629
   27MOL   H22611198   3.285   7.459   3.602  0.2206  0.9235 -0.3983
   27MOL   H22711199   3.360   7.420   3.751  1.8568 -0.5215  0.5318
   27MOL   H22811200   3.198   7.683   3.700  2.3334  0.6014 -0.3337
   27MOL   H22911201   3.257   7.633   3.853 -0.2997  1.9051 -0.2582
   27MOL   H23011202   3.114   7.417   3.846 -1.0621 -0.7153 -0.9238
   27MOL   H23111203   3.052   7.477   3.691 -4.1013  1.4404  1.6491
   27MOL   H23211204   3.017   7.564   3.832  1.5401 -0.4405  4.1903
   27MOL   C23311205   3.717   7.491   4.005 -0.0422 -0.3357  0.1499
   27MOL   C23411206   3.575   7.499   4.066 -0.0186  0.2961 -0.0580
   27MOL   C23511207   3.527   7.359   4.093  0.1909  0.7705  0.2849
   27MOL   O23611208   3.472   7.291   4.007 -0.0035  0.5855 -0.2270
   27MOL   O23711209   3.558   7.323   4.215  0.6139 -0.5503 -0.3859
   27MOL   C23811210   3.553   7.191   4.257  0.0860 -0.0865 -0.1422
   27MOL   C23911211   3.644   7.092   4.183  0.8933 -0.1446 -0.4911
   27MOL   C24011212   3.786   7.100   4.229 -0.6549  0.0759 -0.0975
   27MOL   C24111213   3.857   6.984   4.155  1.1022  0.1733 -0.3403
   27MOL   H24211214   3.780   7.545   4.076  1.7843 -2.2053 -0.0220
   27MOL   H24311215   3.751   7.388   3.998 -1.3802 -0.7719 -0.0418
   27MOL   H24411216   3.498   7.536   3.998  0.4608  3.6155  1.1567
   27MOL   H24511217   3.448   7.163   4.248  0.7345 -2.0637 -2.2034
   27MOL   H24611218   3.577   7.203   4.362  0.7342 -1.1789 -0.1529
   27MOL   H24711219   3.600   6.995   4.206  2.4320 -0.5032  1.0139
   27MOL   H24811220   3.630   7.109   4.076  1.0984 -2.3555 -0.8770
   27MOL   H24911221   3.793   7.087   4.337  1.2889 -0.8451 -0.3083
   27MOL   H25011222   3.826   7.192   4.187 -1.0810  1.1965  1.8747
   27MOL   H25111223   3.873   7.009   4.051  1.1715 -1.6513 -0.7951
   27MOL   H25211224   3.799   6.893   4.166  1.1325  0.1659 -0.2343
   27MOL   H25311225   3.959   6.977   4.194  1.1594  0.3284 -0.4619
   27MOL   C25411226   3.568   7.589   4.198  0.0549  0.6698 -0.2194
   27MOL   C25511227   3.420   7.605   4.257 -0.2236  0.1488  0.3666
   27MOL   C25611228   3.411   7.637   4.410  0.6470  0.2750 -0.3081
   27MOL   O25711229   3.360   7.739   4.451  0.1518 -0.2140  0.5702
   27MOL   O25811230   3.462   7.533   4.477 -0.3228 -0.3478  0.5424
   27MOL   C25911231   3.464   7.527   4.622 -0.3198 -0.1399  0.9428
   27MOL   C26011232   3.601   7.481   4.674 -0.8752  0.4448  0.0451
   27MOL   C26111233   3.604   7.475   4.828  0.4177  0.3812  0.7298
   27MOL   C26211234   3.747   7.451   4.885 -0.3980 -0.4348  0.7134
   27MOL   H26311235   3.604   7.688   4.172 -0.3506  0.8760 -0.0072
   27MOL   H26411236   3.635   7.557   4.278  1.4548  1.6869 -0.9605
   27MOL   H26511237   3.368   7.509   4.257 -1.4454  0.7971 -0.2823
   27MOL   H26611238   3.388   7.453   4.647  0.6883 -0.9412  1.6825
   27MOL   H26711239   3.424   7.621   4.659 -0.0595 -0.1378  1.2121
   27MOL   H26811240   3.627   7.387   4.624 -1.3398 -0.6417  1.8182
   27MOL   H26911241   3.674   7.554   4.638  0.4375  0.4230  2.5192
   27MOL   H27011242   3.532   7.402   4.865  3.0365 -2.2677  0.7552
   27MOL   H27111243   3.566   7.568   4.872 -3.8008 -1.5575  1.5169
   27MOL   H27211244   3.797   7.359   4.854 -1.2546 -0.3125 -1.0580
   27MOL   H27311245   3.739   7.445   4.994  0.2233  1.0770  0.8609
   27MOL   H27411246   3.817   7.530   4.857 -0.5458 -0.0941  1.2838
   27MOL   C27511247   3.334   7.702   4.175 -0.7126 -0.3017  0.0085
   27MOL   C27611248   3.178   7.689   4.195 -0.4024 -0.2184  0.6153
   27MOL   C27711249   3.104   7.800   4.123 -0.0051 -0.3614  0.0437
   27MOL   O27811250   3.155   0.011   4.035 -0.0783 -0.2896 -0.0189
   27MOL   O27911251   2.976   7.817   4.166 -0.6424 -0.1951  0.3203
   27MOL   C28011252   2.887   0.058   4.108  0.7213 -0.3531 -0.3359
   27MOL   C28111253   2.905   0.192   4.187  0.2973  0.0628  0.4620
   27MOL   C28211254   2.830   0.300   4.111 -0.5995 -0.2825 -0.1234
   27MOL   C28311255   2.859   0.452   4.137  0.3379 -0.4612  0.2122
   27MOL   H28411256   3.351   7.674   4.071 -0.3788 -0.1965  0.0364
   27MOL   H28511257   3.364   7.805   4.192 -1.7640  0.2072 -1.1353
   27MOL   H28611258   3.148   7.717   4.296 -3.1239  0.4731 -0.3384
   27MOL   H28711259   2.786   0.016   4.111  0.0626  1.2778  1.9463
   27MOL   H28811260   2.919   0.070   4.005 -1.6214 -1.1539 -1.1866
   27MOL   H28911261   2.870   0.186   4.290 -0.1498 -0.8668  0.2660
   27MOL   H29011262   3.010   0.218   4.194  0.2602  0.2958  0.1431
   27MOL   H29111263   2.726   0.278   4.135 -0.7412  0.1434 -0.3370
   27MOL   H29211264   2.841   0.289   4.003  0.7785 -0.3100  0.0113
   27MOL   H29311265   2.959   0.495   4.135  0.5743 -0.9477  1.4663
   27MOL   H29411266   2.822   0.470   4.238  2.0784  1.1342  0.5939
   27MOL   H29511267   2.782   0.508   4.083 -1.3626 -1.1636  1.8780
   27MOL   C29611268   3.123   7.557   4.133  0.2799  0.0055 -0.3468
   27MOL   C29711269   3.118   7.426   4.214 -0.4637 -0.5341  0.4460
   27MOL   C29811270   3.028   7.454   4.341  0.3841 -0.1408 -0.2853
   27MOL   O29911271   3.087   7.469   4.451  0.1574 -0.2659 -0.2790
   27MOL   O30011272   2.898   7.472   4.319  0.2768  0.5038  0.3985
   27MOL   C30111273   2.808   7.509   4.417 -0.0955  0.1950 -0.1046
   27MOL   C30211274   2.664   7.463   4.386  0.0905  0.1487  0.1566
   27MOL   C30311275   2.625   7.314   4.361  0.2636 -0.3550 -0.2021
   27MOL   C30411276   2.476   7.295   4.347  0.1011  0.0063 -0.2134
   27MOL   H30511277   3.192   7.534   4.052 -2.2193 -0.0441 -2.5427
   27MOL   H30611278   3.023   7.569   4.090 -0.1639 -1.1847  0.3219
   27MOL   H30711279   3.211   7.390   4.258 -0.9290 -2.6461 -0.2339
   27MOL   H30811280   2.815   7.618   4.419  0.6400  0.1418  0.3163
   27MOL   H30911281   2.843   7.466   4.511  1.7587  1.0100 -0.3935
   27MOL   H31011282   2.604   7.504   4.468  0.7381  3.9091 -1.1504
   27MOL   H31111283   2.626   7.538   4.317  0.1057  1.7196  1.8048
   27MOL   H31211284   2.658   7.242   4.436 -0.5382  0.0804  0.5813
   27MOL   H31311285   2.661   7.298   4.259 -1.5154  2.5547 -1.3598
   27MOL   H31411286   2.424   7.348   4.267  2.2887 -1.3387 -2.6488
   27MOL   H31511287   2.440   7.338   4.440  3.7174  0.0503  1.2720
   27MOL   H31611288   2.443   7.191   4.345 -1.3745  0.4319  1.3701
   27MOL   C31711289   3.072   7.310   4.129 -0.2966  0.1671  0.9379
   27MOL   C31811290   3.074   7.169   4.196  0.0620 -0.4718 -0.0992
   27MOL   C31911291   2.938   7.124   4.248 -0.9041  0.3167 -0.0010
   27MOL   O32011292   2.920   7.133   4.367  0.4238  0.3844 -0.2289
   27MOL   O32111293   2.850   7.067   4.156 -0.1889  0.1783 -0.6132
   27MOL   C32211294   2.723   7.021   4.207  0.3978 -0.0266 -0.0205
   27MOL   C32311295   2.741   6.875   4.248 -0.5827  0.0594 -0.3142
   27MOL   C32411296   2.607   6.807   4.306  0.9189 -0.4235  0.2118
   27MOL   C32511297   2.566   6.858   4.442  0.5507 -0.5803  0.6795
   27MOL   H32611298   3.140   7.306   4.044 -1.7365  1.2419 -0.2917
   27MOL   H32711299   2.974   7.341   4.093  0.3083  0.4260 -0.5051
   27MOL   H32811300   3.128   7.186   4.290 -0.8798  3.0116 -0.1214
   27MOL   H32911301   2.651   7.023   4.126 -1.7810 -1.6255  1.8196
   27MOL   H33011302   2.680   7.083   4.285  1.2945  0.5106  0.0540
   27MOL   H33111303   2.777   6.824   4.159 -2.0507 -0.4392 -0.6414
   27MOL   H33211304   2.822   6.886   4.320 -1.1191  0.1183  0.2894
   27MOL   H33311305   2.603   6.698   4.313  2.3377 -0.3539  2.8081
   27MOL   H33411306   2.530   6.826   4.231  0.8911 -0.8837  0.1192
   27MOL   H33511307   2.632   6.820   4.520  0.7234  1.5502  1.5937
   27MOL   H33611308   2.466   6.823   4.468  0.0077 -0.8256 -1.5925
   27MOL   H33711309   2.584   6.965   4.446  1.1016 -0.6506  0.1981
   27MOL   C33811310   3.134   7.051   4.112  0.0496 -0.5246  0.8063
   27MOL   C33911311   3.140   6.913   4.195  0.2459  0.2961 -0.3158
   27MOL   C34011312   3.157   6.801   4.099  0.1507  1.0660  0.3006
   27MOL   O34111313   3.268   6.766   4.067  0.4169 -0.1880 -0.4977
   27MOL   O34211314   3.035   6.753   4.057 -0.6424 -0.1734  0.1020
   27MOL   C34311315   3.029   6.663   3.949 -0.3806  0.4160  0.2452
   27MOL   C34411316   3.045   6.519   4.002  0.4347 -0.7817  0.4225
   27MOL   C34511317   3.054   6.414   3.888  0.3187  0.5318 -0.0855
   27MOL   C34611318   3.060   6.268   3.933  0.4004 -0.5417 -0.1107
   27MOL   H34711319   3.240   7.070   4.093  0.0486 -1.1700  0.1327
   27MOL   H34811320   3.086   7.038   4.016  0.6547 -1.0593  0.5691
   27MOL   H34911321   3.048   6.894   4.250 -1.0266  0.7797 -2.2571
   27MOL   H35011322   3.101   6.685   3.870  0.0838  1.0253  0.8425
   27MOL   H35111323   2.929   6.676   3.907 -0.9664  0.4240  1.6068
   27MOL   H35211324   3.139   6.512   4.057  0.2730 -0.2107  0.7821
   27MOL   H35311325   2.963   6.496   4.071 -1.9908 -0.2262 -2.1684
   27MOL   H35411326   3.142   6.454   3.837 -0.0191 -1.4457 -2.3403
   27MOL   H35511327   2.975   6.418   3.813  1.8695  1.6442 -1.7262
   27MOL   H35611328   3.158   6.239   3.970 -0.8955 -2.0338  2.2698
   27MOL   H35711329   3.038   6.199   3.852  0.9503  0.5370 -1.2015
   27MOL   H35811330   2.989   6.233   4.008 -1.2212  0.8156 -0.9794
   27MOL   C35911331   3.255   6.908   4.301 -0.2060 -0.2688 -0.5563
   27MOL   C36011332   3.263   6.786   4.400 -0.3862  0.2898  0.3251
   27MOL   C36111333   3.125   6.738   4.454 -0.4949  1.1150  0.8174
   27MOL   O36211334   3.081   6.635   4.403  0.7944  0.4736  0.2133
   27MOL   O36311335   3.073   6.817   4.537 -0.2601  0.4835 -0.1824
   27MOL   C36411336   2.949   6.785   4.601 -0.7365  0.3557  0.0421
   27MOL   C36511337   2.964   6.683   4.712 -0.4262 -0.2279 -0.1170
   27MOL   C36611338   2.839   6.667   4.803 -0.2300  0.1144 -0.5352
   27MOL   C36711339   2.849   6.525   4.875  0.9498 -0.5226  0.7197
   27MOL   H36811340   3.227   6.987   4.370 -0.2441 -1.4172  0.7655
   27MOL   H36911341   3.351   6.946   4.266  1.1118 -0.9975  2.1620
   27MOL   H37011342   3.303   6.815   4.497 -0.9724 -1.1667  1.0065
   27MOL   H37111343   2.872   6.757   4.529 -1.1646  1.3403  0.1201
   27MOL   H37211344   2.920   6.882   4.640 -0.5737  0.7987 -0.9248
   27MOL   H37311345   2.984   6.583   4.675  2.0209  0.8109 -1.7816
   27MOL   H37411346   3.053   6.713   4.767 -0.4829  0.4231 -0.3722
   27MOL   H37511347   2.748   6.683   4.746  0.1183  2.3027 -0.5065
   27MOL   H37611348   2.837   6.749   4.875 -0.5297  0.3529 -0.8136
   27MOL   H37711349   2.753   6.506   4.923  0.7423 -0.5161  0.3186
   27MOL   H37811350   2.937   6.505   4.936  2.0619  1.2273 -0.2690
   27MOL   H37911351   2.858   6.453   4.793  1.0685  2.5224 -2.0825
   27MOL   C38011352   3.352   6.665   4.365  0.2232 -0.7171 -0.2969
   27MOL   C38111353   3.505   6.702   4.364  0.1915  0.3656  0.1620
   27MOL   C38211354   3.561   6.716   4.504  0.4302 -0.4358 -0.6690
   27MOL   O38311355   3.529   6.633   4.590 -0.4080 -0.3116 -0.4025
   27MOL   O38411356   3.651   6.809   4.517 -0.3189  0.2932 -0.2261
   27MOL   C38511357   3.703   6.829   4.641 -0.0638 -0.5150  0.1008
   27MOL   C38611358   3.827   6.919   4.643  0.4363 -0.5393 -0.1135
   27MOL   C38711359   3.887   6.919   4.781 -0.0493 -0.1748  0.4929
   27MOL   C38811360   4.007   7.012   4.801  0.2018  0.2520  0.4994
   27MOL   H38911361   3.317   6.631   4.268  0.4467 -0.7880 -0.3517
   27MOL   H39011362   3.332   6.578   4.427 -0.6756 -0.4654 -0.2254
   27MOL   H39111363   3.504   6.798   4.313  0.4866 -0.9652 -2.4329
   27MOL   H39211364   3.741   6.737   4.685  1.1352  0.7941  1.8630
   27MOL   H39311365   3.628   6.871   4.709 -0.1019  0.9655 -0.8217
   27MOL   H39411366   3.903   6.892   4.570  0.3516  3.7347 -1.9591
   27MOL   H39511367   3.803   7.023   4.619 -0.3223 -0.6726  0.0617
   27MOL   H39611368   3.913   6.817   4.811 -0.2561 -1.1567 -2.4689
   27MOL   H39711369   3.819   6.952   4.859 -0.4818 -0.9660  0.4473
   27MOL   H39811370   3.962   7.110   4.816 -2.2043 -0.7214 -0.0729
   27MOL   H39911371   4.092   7.008   4.734 -0.1279 -1.1007  0.1447
   27MOL   H40011372   4.050   6.979   4.896 -1.1821  1.4687  1.5738
   27MOL   C40111373   3.599   6.620   4.276 -0.3243 -0.0596 -0.1556
   27MOL   C40211374   3.605   6.464   4.315 -0.4696  0.2507 -0.2630
   27MOL   C40311375   3.501   6.377   4.247 -0.6322  0.6809  0.7376
   27MOL   O40411376   3.460   6.393   4.128 -0.6197 -0.3450 -0.4470
   27MOL   O40511377   3.459   6.282   4.321 -0.0673 -0.0527 -1.2093
   27MOL   C40611378   3.360   6.184   4.284 -0.4296  0.6103 -0.6434
   27MOL   C40711379   3.235   6.205   4.369 -0.2356  0.2815 -0.2297
   27MOL   C40811380   3.146   6.319   4.324  0.3457 -0.0967 -0.4612
   27MOL   C40911381   3.009   6.323   4.398  0.5067 -0.0387  0.4593
   27MOL   H41011382   3.697   6.662   4.256  0.7699 -2.3332  0.2620
   27MOL   H41111383   3.555   6.628   4.177 -4.1441 -3.8361  1.0754
   27MOL   H41211384   3.605   6.458   4.423  2.5270 -0.6741 -0.2863
   27MOL   H41311385   3.402   6.084   4.280 -0.5007  0.6132 -1.6122
   27MOL   H41411386   3.329   6.191   4.179 -2.1370 -1.4276 -0.3065
   27MOL   H41511387   3.174   6.115   4.365 -0.4729  0.4141  0.2532
   27MOL   H41611388   3.260   6.213   4.475  0.3822  1.3372 -0.4421
   27MOL   H41711389   3.115   6.301   4.221 -1.1827 -2.0050  0.3084
   27MOL   H41811390   3.202   6.413   4.329 -0.8945  0.5608  2.4258
   27MOL   H41911391   3.031   6.356   4.499 -1.0773  1.3877  0.3449
   27MOL   H42011392   2.948   6.233   4.404 -1.3346  1.2848  2.0435
   27MOL   H42111393   2.938   6.394   4.356  0.6457 -0.2764 -0.1916
   27MOL   H42211394   3.694   6.422   4.270  1.0339 -0.4324  3.2343
   28MOL     C111395   1.475   0.908   2.856 -0.1626 -0.0467  0.4050
   28MOL     C211396   1.552   0.947   2.732  0.0402 -0.0212 -0.0235
   28MOL     C311397   1.529   1.096   2.695 -0.2809 -0.8679 -0.1585
   28MOL     O411398   1.456   1.169   2.758  0.3058  0.4401  0.2646
   28MOL     O511399   1.586   1.128   2.574  0.3867  1.0332 -0.2601
   28MOL     C611400   1.559   1.255   2.522 -0.5133  0.5119  0.0861
   28MOL     C711401   1.691   1.332   2.538  0.0650  0.5797  0.2190
   28MOL     C811402   1.795   1.282   2.436 -0.4824 -0.0139 -0.0547
   28MOL     C911403   1.925   1.355   2.436 -0.1612  0.2771 -0.4497
   28MOL    H1011404   1.369   0.902   2.834 -0.0183 -0.2896 -0.2412
   28MOL    H1111405   1.503   0.806   2.883  0.9204 -0.1695 -1.1475
   28MOL    H1211406   1.521   0.876   2.655  0.0552  1.0698 -1.0604
   28MOL    H1311407   1.484   1.322   2.565 -1.0243  0.4149 -0.6577
   28MOL    H1411408   1.533   1.243   2.417  1.1171 -2.2500 -0.0651
   28MOL    H1511409   1.669   1.436   2.517  0.2272  0.1773 -2.0950
   28MOL    H1611410   1.721   1.319   2.642 -0.5908  0.6478  0.4166
   28MOL    H1711411   1.753   1.280   2.335 -1.3503 -1.9779  0.3182
   28MOL    H1811412   1.814   1.176   2.449  0.2479  0.3416  1.8218
   28MOL    H1911413   1.986   1.340   2.347  0.7822  1.7102 -0.0617
   28MOL    H2011414   1.981   1.319   2.523  0.7656 -1.2244 -1.6523
   28MOL    H2111415   1.902   1.461   2.448  0.9205  0.5112 -0.3399
   28MOL    H2211416   1.504   0.972   2.939  1.6722  0.6919 -0.7788
   28MOL    C2311417   1.698   0.928   2.764 -0.1401  0.0604 -0.0897
   28MOL    C2411418   1.778   0.864   2.645 -0.4008 -0.1158 -0.5195
   28MOL    C2511419   1.918   0.920   2.661  0.3155  0.2773 -0.3663
   28MOL    O2611420   1.981   0.985   2.579 -0.2689 -0.4515 -0.4188
   28MOL    O2711421   1.963   0.883   2.783  0.3686  0.5044  0.1831
   28MOL    C2811422   2.089   0.917   2.831  0.3296 -0.0510 -0.7692
   28MOL    C2911423   2.169   0.794   2.876 -0.6166 -0.1103 -0.1367
   28MOL    C3011424   2.190   0.687   2.772  0.1855  0.4632  0.1946
   28MOL    C3111425   2.279   0.576   2.837 -0.1987 -0.2281 -0.5509
   28MOL    H3211426   1.704   0.858   2.847 -0.5954  0.0048 -0.1009
   28MOL    H3311427   1.742   1.018   2.807  1.3510 -0.6507 -0.1134
   28MOL    H3411428   1.745   0.913   2.553  1.0281  1.2036 -0.3526
   28MOL    H3511429   2.075   0.987   2.914  2.5053  0.4430 -0.7855
   28MOL    H3611430   2.148   0.968   2.756 -1.9533  2.6365 -0.8127
   28MOL    H3711431   2.267   0.826   2.913 -0.8572  1.7554 -1.0237
   28MOL    H3811432   2.124   0.752   2.966  0.4334  1.3171  1.0843
   28MOL    H3911433   2.253   0.743   2.703 -1.6008 -1.7015 -3.3348
   28MOL    H4011434   2.105   0.641   2.722  0.5668  0.3306 -0.3331
   28MOL    H4111435   2.235   0.527   2.923  1.4141  0.0512  0.4499
   28MOL    H4211436   2.373   0.622   2.870 -0.4649 -0.1061  0.0419
   28MOL    H4311437   2.296   0.493   2.769 -2.6011 -1.6016  0.4901
   28MOL    C4411438   1.779   0.711   2.635 -0.1406  0.3234  0.3495
   28MOL    C4511439   1.652   0.629   2.583 -0.3563  0.7580 -0.8011
   28MOL    C4611440   1.595   0.677   2.453 -0.0590  0.7137 -0.0961
   28MOL    O4711441   1.477   0.715   2.445 -0.5165  0.2286  0.5348
   28MOL    O4811442   1.687   0.692   2.358  0.3168  0.3783 -0.2197
   28MOL    C4911443   1.651   0.752   2.238 -0.1905 -0.1188  0.1652
   28MOL    C5011444   1.776   0.790   2.157 -0.3378 -0.7269  0.6183
   28MOL    C5111445   1.825   0.928   2.208 -0.1992  0.0263  0.7359
   28MOL    C5211446   1.951   0.981   2.133  0.6879 -0.4954 -0.0376
   28MOL    H5311447   1.798   0.669   2.734 -0.6421  0.6595  0.5883
   28MOL    H5411448   1.866   0.686   2.574  0.7402  0.2719  1.6103
   28MOL    H5511449   1.579   0.648   2.661  0.4023 -1.0089  0.3747
   28MOL    H5611450   1.596   0.844   2.259  1.8180  0.7117  2.0508
   28MOL    H5711451   1.591   0.682   2.180 -0.8208  0.4222  0.1602
   28MOL    H5811452   1.852   0.711   2.163 -0.7077 -1.0930  0.4918
   28MOL    H5911453   1.742   0.804   2.055  0.6734 -0.4656  0.3139
   28MOL    H6011454   1.828   0.914   2.316  0.3747  0.4948  0.7843
   28MOL    H6111455   1.746   1.000   2.190 -0.2947  0.5382  3.0103
   28MOL    H6211456   1.972   1.075   2.183 -1.0074 -1.5518  2.7725
   28MOL    H6311457   1.935   0.998   2.027  0.7088  1.5158  0.2763
   28MOL    H6411458   2.035   0.913   2.149  0.9293 -0.6265 -1.7505
   28MOL    C6511459   1.676   0.481   2.580  0.3594 -0.1805  0.1393
   28MOL    C6611460   1.782   0.424   2.485  0.0500  0.4542  0.0709
   28MOL    C6711461   1.863   0.311   2.555  0.0397 -0.0116  0.6426
   28MOL    O6811462   1.987   0.317   2.566 -0.3062  0.0086 -0.1451
   28MOL    O6911463   1.780   0.218   2.609  0.2546 -0.2307 -0.3929
   28MOL    C7011464   1.830   0.114   2.688 -0.0086  0.8349  0.2713
   28MOL    C7111465   1.833   0.140   2.842  0.9028  0.0729 -0.2890
   28MOL    C7211466   1.897   0.023   2.923  0.1173 -0.5439  0.0921
   28MOL    C7311467   1.890   0.044   3.074 -0.5584 -0.3619  0.9889
   28MOL    H7411468   1.585   0.432   2.548 -1.5013  2.5807  1.0060
   28MOL    H7511469   1.689   0.444   2.682 -0.5873 -2.7589 -0.6323
   28MOL    H7611470   1.850   0.504   2.457  1.0223  0.1674  1.5625
   28MOL    H7711471   1.928   0.084   2.650 -0.0914 -0.0561  0.7755
   28MOL    H7811472   1.770   0.025   2.671 -0.2372  1.4721 -2.4600
   28MOL    H7911473   1.903   0.223   2.846  0.4613  0.5154 -1.5682
   28MOL    H8011474   1.734   0.165   2.877  0.6788 -1.8060  0.5055
   28MOL    H8111475   1.999   0.016   2.886  1.0770 -3.0196  2.9730
   28MOL    H8211476   1.848   7.784   2.892 -3.1637  0.7252  1.2747
   28MOL    H8311477   1.961   7.840   3.134 -2.0702 -0.8255  2.3697
   28MOL    H8411478   1.788   0.038   3.112 -0.4599  2.3124  1.7369
   28MOL    H8511479   1.914   0.145   3.106  2.0970 -0.5855 -0.1495
   28MOL    C8611480   1.715   0.361   2.353  0.2004 -0.0413 -0.0991
   28MOL    C8711481   1.805   0.306   2.234 -0.3262 -0.0087 -0.1068
   28MOL    C8811482   1.730   0.237   2.124 -0.1686 -0.0005 -0.2631
   28MOL    O8911483   1.607   0.257   2.106  0.0539  0.0466  0.3287
   28MOL    O9011484   1.809   0.157   2.064 -0.6217  0.4052 -0.6327
   28MOL    C9111485   1.761   0.054   1.985  0.6499 -0.7486  0.0145
   28MOL    C9211486   1.871   7.795   1.968  0.0365  0.0094  0.1533
   28MOL    C9311487   1.978   7.827   1.864 -0.4080  0.2446  0.9972
   28MOL    C9411488   2.041   7.699   1.818  0.5530 -0.4817  0.2936
   28MOL    H9511489   1.651   0.439   2.313 -1.4556 -1.5418 -0.4541
   28MOL    H9611490   1.654   0.273   2.374  0.1985 -0.3410 -1.3325
   28MOL    H9711491   1.873   0.224   2.258 -0.4996  0.0220  0.4937
   28MOL    H9811492   1.718   0.087   1.891 -0.4685 -0.7630  0.5184
   28MOL    H9911493   1.680   0.007   2.041  1.9370  0.0093  2.6107
   28MOL   H10011494   1.914   7.772   2.066  0.7615  0.5741 -0.0284
   28MOL   H10111495   1.820   7.704   1.939 -0.5932  0.4549 -0.1303
   28MOL   H10211496   2.055   0.034   1.914 -1.6959  0.1813  3.1261
   28MOL   H10311497   1.947   0.026   1.774  3.0544  0.9005  0.0767
   28MOL   H10411498   2.127   7.727   1.757 -0.4575 -0.2271 -1.0223
   28MOL   H10511499   1.978   7.641   1.751 -0.3802  1.4267 -0.5112
   28MOL   H10611500   2.073   7.634   1.899  2.5842 -1.0600 -0.9258
   28MOL   C10711501   1.885   0.436   2.179 -0.1018  0.4220  0.6531
   28MOL   C10811502   2.024   0.416   2.119 -0.3202 -0.5317 -0.5607
   28MOL   C10911503   2.119   0.326   2.196  0.6214 -0.5011 -0.2226
   28MOL   O11011504   2.143   0.211   2.155 -0.0479  0.1559 -0.5503
   28MOL   O11111505   2.162   0.383   2.317 -0.2802  0.0943  0.3666
   28MOL   C11211506   2.243   0.297   2.401  0.2123  0.0299 -0.2160
   28MOL   C11311507   2.327   0.374   2.508  0.5151  0.4289  0.0248
   28MOL   C11411508   2.440   0.455   2.449 -0.0845 -0.5677  0.3966
   28MOL   C11511509   2.522   0.533   2.559  0.4115  0.4928  0.1595
   28MOL   H11611510   1.898   0.511   2.257  2.5810  2.2175 -1.4204
   28MOL   H11711511   1.820   0.482   2.104 -0.6222 -0.2550  0.6810
   28MOL   H11811512   2.074   0.513   2.117 -2.3115  0.5156 -2.0165
   28MOL   H11911513   2.313   0.239   2.340 -0.5364  0.7002 -1.7326
   28MOL   H12011514   2.173   0.231   2.452 -2.4016  0.0952 -3.5255
   28MOL   H12111515   2.254   0.439   2.557  0.1408  1.4992 -1.9207
   28MOL   H12211516   2.366   0.305   2.583  2.5941 -1.1692 -2.4352
   28MOL   H12311517   2.415   0.519   2.365 -0.6032  0.4990  1.3541
   28MOL   H12411518   2.506   0.384   2.400  1.2531  0.6647  0.3818
   28MOL   H12511519   2.468   0.608   2.617  0.3968  0.4433  0.2100
   28MOL   H12611520   2.607   0.584   2.514  0.9017 -2.4146 -2.4070
   28MOL   H12711521   2.557   0.456   2.629 -0.2000 -1.1721 -1.3254
   28MOL   C12811522   2.021   0.389   1.965 -0.6378  0.0892  0.5737
   28MOL   C12911523   2.136   0.453   1.882  0.1143 -0.2777 -0.3473
   28MOL   C13011524   2.271   0.384   1.913 -0.0776 -0.9543  0.3392
   28MOL   O13111525   2.360   0.440   1.983 -0.2860  0.2238 -1.2436
   28MOL   O13211526   2.280   0.253   1.849  0.0337 -0.3522 -0.0478
   28MOL   C13311527   2.387   0.169   1.884 -0.3269 -0.1120 -0.5681
   28MOL   C13411528   2.499   0.200   1.786 -0.9685 -0.2209 -0.0029
   28MOL   C13511529   2.464   0.190   1.639 -0.1139 -0.0628 -1.0763
   28MOL   C13611530   2.573   0.239   1.541 -0.4937 -0.1597  0.3211
   28MOL   H13711531   1.925   0.418   1.922 -0.6633  0.7316  1.0575
   28MOL   H13811532   2.038   0.282   1.948  2.0886  0.4649  0.7361
   28MOL   H13911533   2.146   0.555   1.920  0.2490  0.1371 -1.4794
   28MOL   H14011534   2.374   0.062   1.900 -2.4186  0.1431 -0.4029
   28MOL   H14111535   2.416   0.198   1.985 -0.6732 -0.0235 -0.4926
   28MOL   H14211536   2.544   0.297   1.806  2.3542 -1.3696 -1.5129
   28MOL   H14311537   2.566   0.120   1.817 -2.0422 -0.2601  2.2669
   28MOL   H14411538   2.376   0.250   1.616 -0.0261  0.6953  0.5721
   28MOL   H14511539   2.427   0.088   1.622  0.9420 -1.2052  2.9443
   28MOL   H14611540   2.604   0.343   1.554  1.2661 -0.7773  1.2059
   28MOL   H14711541   2.531   0.221   1.442  0.8924 -1.7288 -0.0009
   28MOL   H14811542   2.663   0.179   1.553 -0.4636 -0.0367  0.7181
   28MOL   C14911543   2.120   0.458   1.724  0.0367  0.0975  0.5769
   28MOL   C15011544   2.004   0.534   1.669  0.5020  0.0472  0.2053
   28MOL   C15111545   1.981   0.678   1.717 -0.1337  0.0201 -0.4721
   28MOL   O15211546   1.865   0.714   1.729 -0.0935  0.0862  0.1153
   28MOL   O15311547   2.088   0.753   1.737 -0.5528  0.0561  0.3766
   28MOL   C15411548   2.065   0.886   1.793 -0.1921 -0.1170  0.4311
   28MOL   C15511549   2.199   0.947   1.838  0.5970 -0.5367 -0.6162
   28MOL   C15611550   2.271   0.863   1.951 -0.5526  0.2533 -0.8067
   28MOL   C15711551   2.413   0.899   1.986  0.0827  0.3743  0.0001
   28MOL   H15811552   2.124   0.354   1.691 -1.4037  0.0718  0.4851
   28MOL   H15911553   2.210   0.505   1.684 -2.3286  1.7106 -3.0453
   28MOL   H16011554   1.917   0.479   1.703  1.0498 -1.3651 -0.6086
   28MOL   H16111555   1.999   0.868   1.877 -0.6784  1.7938  0.4905
   28MOL   H16211556   2.016   0.964   1.733  1.0530 -0.1970 -0.7047
   28MOL   H16311557   2.267   0.944   1.753  2.0132 -2.7179  0.5319
   28MOL   H16411558   2.188   1.050   1.871  1.6104 -0.0798 -1.6673
   28MOL   H16511559   2.252   0.762   1.915  0.7505  0.0147 -0.8416
   28MOL   H16611560   2.207   0.868   2.040 -0.0749  0.9155 -0.5039
   28MOL   H16711561   2.448   0.822   2.054 -0.2646  0.4064  0.2141
   28MOL   H16811562   2.415   0.996   2.036 -0.6588 -0.2073  1.1791
   28MOL   H16911563   2.479   0.896   1.899 -1.2735  3.9417 -1.2825
   28MOL   C17011564   1.986   0.533   1.515  0.0307  0.0735  0.5472
   28MOL   C17111565   2.008   0.396   1.447 -0.0385 -0.1405 -0.2591
   28MOL   C17211566   1.930   0.281   1.512  0.5760  0.2926  0.1458
   28MOL   O17311567   1.991   0.178   1.533 -0.9186  0.1524 -0.2367
   28MOL   O17411568   1.809   0.306   1.545  0.7001 -0.2027  0.6215
   28MOL   C17511569   1.710   0.211   1.578  0.6786  0.3562  0.2748
   28MOL   C17611570   1.567   0.266   1.535  0.0256  0.1499 -0.5488
   28MOL   C17711571   1.567   0.264   1.382  0.5766  0.1736  0.6388
   28MOL   C17811572   1.437   0.317   1.321  0.6127 -0.0279 -0.2729
   28MOL   H17911573   2.061   0.600   1.474 -0.5164 -0.3682 -1.2048
   28MOL   H18011574   1.889   0.571   1.482  0.1755  0.2972  0.3727
   28MOL   H18111575   2.114   0.376   1.461  0.0899  1.0395  0.5044
   28MOL   H18211576   1.724   0.184   1.683 -0.5431  1.1832  0.6542
   28MOL   H18311577   1.724   0.123   1.516  1.5681  0.9576 -0.3818
   28MOL   H18411578   1.494   0.195   1.572  0.4127 -0.0471 -0.1554
   28MOL   H18511579   1.551   0.371   1.562  0.1987  0.4742 -1.6705
   28MOL   H18611580   1.597   0.165   1.348  1.0752 -0.0501  1.7032
   28MOL   H18711581   1.644   0.333   1.347 -1.3693  2.0306 -0.0771
   28MOL   H18811582   1.440   0.426   1.330 -0.8095  0.0250 -0.3405
   28MOL   H18911583   1.356   0.287   1.387 -0.8782  3.0305 -0.6018
   28MOL   H19011584   1.422   0.282   1.218  0.6448  1.7741 -0.9106
   28MOL   C19111585   1.988   0.409   1.294  0.6423  0.3058  0.3475
   28MOL   C19211586   2.036   0.284   1.212 -0.1639 -0.4088  0.0009
   28MOL   C19311587   1.928   0.170   1.197 -0.3351 -0.1448  0.1099
   28MOL   O19411588   1.825   0.199   1.134 -0.0915  0.0402 -0.2741
   28MOL   O19511589   1.970   0.050   1.235  0.0512 -0.6333 -0.0763
   28MOL   C19611590   1.888   7.788   1.207  0.0285 -0.1991 -0.7226
   28MOL   C19711591   1.782   7.749   1.320  0.3353  1.0274 -0.5243
   28MOL   C19811592   1.836   7.712   1.458  0.9944  0.2071  0.1318
   28MOL   C19911593   1.737   7.648   1.560  0.5335 -0.6448 -0.1227
   28MOL   H20011594   2.027   0.506   1.264  1.0579  1.4472  4.3083
   28MOL   H20111595   1.882   0.421   1.270  0.2036 -0.2879  1.8998
   28MOL   H20211596   2.124   0.231   1.251  1.8384  1.4183 -1.9144
   28MOL   H20311597   1.941   7.697   1.179  0.1161 -0.4046  0.0765
   28MOL   H20411598   1.831   7.804   1.115 -1.3820 -0.1308  0.1405
   28MOL   H20511599   1.728   7.843   1.337  0.3176  0.9568 -0.1870
   28MOL   H20611600   1.710   7.677   1.282 -1.3039  1.8124  1.0081
   28MOL   H20711601   1.892   7.797   1.498  0.2706 -0.8454  3.5589
   28MOL   H20811602   1.913   7.637   1.441 -0.2889 -0.7743 -1.4823
   28MOL   H20911603   1.713   7.549   1.522 -1.2659  0.1892 -1.2054
   28MOL   H21011604   1.652   7.716   1.567  1.1040 -0.2373  4.5034
   28MOL   H21111605   1.788   7.639   1.656 -0.1964  0.2048  0.3594
   28MOL   C21211606   2.087   0.327   1.069 -0.2654  0.2770 -0.1607
   28MOL   C21311607   2.220   0.400   1.080 -0.2497  0.4865  0.4502
   28MOL   C21411608   2.332   0.289   1.066  1.1794 -0.0501 -0.2633
   28MOL   O21511609   2.420   0.277   1.148  0.7001 -0.0137  0.5503
   28MOL   O21611610   2.329   0.213   0.950 -0.1643 -0.1684  0.4245
   28MOL   C21711611   2.416   0.107   0.918 -0.4514 -0.3331 -0.4763
   28MOL   C21811612   2.344   7.835   0.976 -0.0849 -0.1641  0.4933
   28MOL   C21911613   2.221   7.800   0.892 -0.6422  0.2204  0.1532
   28MOL   C22011614   2.134   7.698   0.966 -0.0044 -0.0022  0.4232
   28MOL   H22111615   2.016   0.394   1.020  0.0786  0.1147 -0.8911
   28MOL   H22211616   2.091   0.242   1.001 -0.3847  0.6106 -0.5937
   28MOL   H22311617   2.223   0.448   1.178  1.3654 -1.7270  1.5196
   28MOL   H22411618   2.513   0.127   0.963 -0.2729 -0.0333 -0.9957
   28MOL   H22511619   2.430   0.094   0.810 -0.7626  0.8023 -0.6556
   28MOL   H22611620   2.421   7.759   0.983 -0.1306 -0.1468  1.2684
   28MOL   H22711621   2.325   0.010   1.080  2.3022 -1.7677  1.3998
   28MOL   H22811622   2.248   7.764   0.792 -1.2848 -0.6339  0.2832
   28MOL   H22911623   2.161   0.038   0.888  0.3598  0.8703 -0.2182
   28MOL   H23011624   2.036   7.673   0.927  0.7460 -2.1022 -0.2044
   28MOL   H23111625   2.109   7.736   1.065  2.1558 -0.4428  1.1825
   28MOL   H23211626   2.181   7.604   0.996 -1.8375 -1.3994 -0.9830
   28MOL   C23311627   2.225   0.516   0.974 -0.0109 -0.3512 -0.2938
   28MOL   C23411628   2.344   0.614   0.969 -0.7381  0.1033 -0.0507
   28MOL   C23511629   2.343   0.708   1.090  0.5639  0.3209 -0.7269
   28MOL   O23611630   2.270   0.807   1.087  0.2271 -0.0246  0.1958
   28MOL   O23711631   2.424   0.672   1.188  0.7695  0.2041  0.0783
   28MOL   C23811632   2.440   0.750   1.298 -0.4635 -0.0034 -0.0349
   28MOL   C23911633   2.447   0.664   1.427  0.0676  0.2911 -0.3590
   28MOL   C24011634   2.508   0.742   1.542  0.2438 -0.5553 -0.3250
   28MOL   C24111635   2.516   0.659   1.675 -0.0222 -0.5234  0.4322
   28MOL   H24211636   2.142   0.580   1.001  0.7500  1.3275 -1.8134
   28MOL   H24311637   2.211   0.476   0.874 -2.7981  1.5481 -0.7054
   28MOL   H24411638   2.325   0.682   0.886 -1.2606 -0.7107 -0.6026
   28MOL   H24511639   2.375   0.838   1.299  0.1215  0.4312  1.6181
   28MOL   H24611640   2.539   0.793   1.282 -0.6406 -0.4869 -2.5599
   28MOL   H24711641   2.342   0.650   1.453 -0.3097 -1.8022 -2.8338
   28MOL   H24811642   2.488   0.564   1.415 -1.9409 -0.3258 -2.5577
   28MOL   H24911643   2.447   0.828   1.571 -0.3789 -1.9499  2.6600
   28MOL   H25011644   2.612   0.770   1.526  0.6026 -2.2042 -1.0183
   28MOL   H25111645   2.542   0.731   1.753 -0.2877  0.1029 -0.0495
   28MOL   H25211646   2.583   0.573   1.671 -2.1229 -2.1525 -0.4416
   28MOL   H25311647   2.420   0.619   1.707 -0.5599 -0.0774 -0.5945
   28MOL   C25411648   2.480   0.541   0.942  0.2098 -0.0728  0.4566
   28MOL   C25511649   2.588   0.633   0.885  0.1063  0.2781 -0.0873
   28MOL   C25611650   2.661   0.702   1.003 -0.1032 -0.3910  0.4160
   28MOL   O25711651   2.636   0.820   1.030  0.3944  0.1922  1.0407
   28MOL   O25811652   2.767   0.632   1.061  0.2495 -0.6639 -0.0340
   28MOL   C25911653   2.848   0.699   1.157  0.4468  0.1381 -0.2830
   28MOL   C26011654   2.832   0.621   1.284  0.4924 -0.2625 -0.1481
   28MOL   C26111655   2.909   0.684   1.399  0.0906 -0.1266 -0.3515
   28MOL   C26211656   2.921   0.584   1.519  0.6372 -0.2264 -1.1506
   28MOL   H26311657   2.466   0.460   0.871  2.5393 -0.6821  0.6266
   28MOL   H26411658   2.501   0.499   1.041 -1.7718  1.9720  1.7764
   28MOL   H26511659   2.538   0.711   0.827 -2.6457 -0.1398  1.6543
   28MOL   H26611660   2.830   0.804   1.176  0.9838 -0.0013  1.0474
   28MOL   H26711661   2.955   0.697   1.139  0.0422  2.8105 -3.2962
   28MOL   H26811662   2.727   0.605   1.306 -0.4049  0.2604 -3.7709
   28MOL   H26911663   2.872   0.522   1.258 -1.9084 -1.2806 -0.0400
   28MOL   H27011664   2.867   0.781   1.424 -0.0480  0.1406 -1.6034
   28MOL   H27111665   3.013   0.704   1.372  0.6836  0.9912  2.4991
   28MOL   H27211666   2.823   0.549   1.552  0.3921  0.4972 -1.1050
   28MOL   H27311667   2.965   0.631   1.607  1.7462 -1.2884 -1.1290
   28MOL   H27411668   2.987   0.499   1.503  0.5647 -0.5697  0.3004
   28MOL   C27511669   2.683   0.552   0.795  0.3303 -0.3206 -0.0163
   28MOL   C27611670   2.822   0.606   0.757 -0.1647 -0.1111  0.1495
   28MOL   C27711671   2.900   0.499   0.683  0.1052 -0.0533 -0.6492
   28MOL   O27811672   2.857   0.380   0.675  0.2939 -0.8285 -0.1772
   28MOL   O27911673   3.013   0.538   0.635 -0.3896 -0.4400  0.1291
   28MOL   C28011674   3.085   0.453   0.549  0.4831 -0.0095 -0.9010
   28MOL   C28111675   3.061   0.474   0.396  0.1679 -0.2787 -0.1458
   28MOL   C28211676   2.945   0.403   0.342 -0.1332  0.1667 -0.1696
   28MOL   C28311677   2.933   0.436   0.192 -0.5394  0.0264 -0.2600
   28MOL   H28411678   2.637   0.532   0.698  3.1084 -2.3990 -0.9812
   28MOL   H28511679   2.694   0.456   0.846 -0.3664 -1.3466 -1.7243
   28MOL   H28611680   2.882   0.636   0.843  2.2990 -1.6627 -0.9893
   28MOL   H28711681   3.068   0.348   0.569  1.4139  0.0387  0.2462
   28MOL   H28811682   3.190   0.480   0.561  0.1914  0.7882 -0.0980
   28MOL   H28911683   3.049   0.582   0.384 -1.3973 -0.5459 -1.2652
   28MOL   H29011684   3.153   0.451   0.342 -1.0605 -1.6979 -1.7222
   28MOL   H29111685   2.853   0.425   0.396  0.6728 -0.9139  1.7104
   28MOL   H29211686   2.975   0.299   0.354 -0.6689 -0.0072 -0.3611
   28MOL   H29311687   3.015   0.397   0.131 -0.0470  0.9595 -0.2146
   28MOL   H29411688   2.916   0.543   0.179  0.0878  0.7518  4.2831
   28MOL   H29511689   2.838   0.392   0.164  0.0105 -0.9684 -0.6142
   28MOL   C29611690   2.812   0.736   0.672  0.6189  0.3681 -0.1994
   28MOL   C29711691   2.931   0.833   0.686  0.1003  0.1784  0.2262
   28MOL   C29811692   2.943   0.908   0.557  0.2352  0.6337 -0.3346
   28MOL   O29911693   3.048   0.928   0.501  0.0093 -0.1377  0.1301
   28MOL   O30011694   2.824   0.953   0.511 -0.6681  0.2593 -0.0937
   28MOL   C30111695   2.828   1.041   0.391 -0.8312  0.2941 -0.4219
   28MOL   C30211696   2.817   1.191   0.422  0.0199  0.6047  0.6252
   28MOL   C30311697   2.679   1.234   0.469 -0.2523  0.0592 -0.1341
   28MOL   C30411698   2.667   1.379   0.509 -0.1476 -0.8570 -0.3622
   28MOL   H30511699   2.726   0.790   0.712  0.2445  0.8250 -1.6227
   28MOL   H30611700   2.786   0.713   0.569  0.5462 -2.0169  0.3074
   28MOL   H30711701   3.023   0.777   0.706  0.6428  0.4824 -1.3130
   28MOL   H30811702   2.736   1.025   0.335 -2.8669  0.0369  2.8241
   28MOL   H30911703   2.912   1.020   0.326 -1.7552 -1.0166 -1.2193
   28MOL   H31011704   2.878   1.224   0.506  0.9877 -0.8644  0.5239
   28MOL   H31111705   2.851   1.251   0.338 -1.7264  0.1776 -0.4139
   28MOL   H31211706   2.659   1.160   0.547 -0.9205 -0.8007 -1.1128
   28MOL   H31311707   2.604   1.215   0.392 -1.2898  0.0070  0.8669
   28MOL   H31411708   2.669   1.462   0.440 -0.5445 -1.8151 -1.5467
   28MOL   H31511709   2.727   1.409   0.595 -0.8336  3.5860 -1.3220
   28MOL   H31611710   2.570   1.396   0.558  0.7208 -1.4918  1.6548
   28MOL   C31711711   2.904   0.944   0.797 -0.2413 -0.2015  0.2537
   28MOL   C31811712   3.026   1.017   0.852 -0.3023  0.1233 -0.8934
   28MOL   C31911713   3.033   1.165   0.814  0.0852 -1.2254 -0.0602
   28MOL   O32011714   2.948   1.244   0.862 -0.1123 -0.1340  0.1069
   28MOL   O32111715   3.130   1.202   0.736 -0.5354 -0.8231 -0.2876
   28MOL   C32211716   3.160   1.335   0.714  0.2197  0.1696 -0.1426
   28MOL   C32311717   3.094   1.399   0.591  0.5699 -0.2029  0.0561
   28MOL   C32411718   3.146   1.357   0.453 -0.6302 -0.0433 -0.1348
   28MOL   C32511719   3.090   1.455   0.344 -0.5180  0.4028  0.2112
   28MOL   H32611720   2.863   0.881   0.875  0.3006 -0.2966  0.4623
   28MOL   H32711721   2.821   1.008   0.768 -0.9175 -0.9963  0.4236
   28MOL   H32811722   3.111   0.958   0.817  0.4841  0.7361 -0.0378
   28MOL   H32911723   3.267   1.333   0.733  0.4613 -0.6835 -1.5505
   28MOL   H33011724   3.117   1.401   0.789  0.0934  2.7326 -2.3679
   28MOL   H33111725   2.986   1.403   0.604  0.2774  1.7969 -2.5188
   28MOL   H33211726   3.115   1.506   0.603 -4.0310  0.5979  1.8443
   28MOL   H33311727   3.108   1.260   0.420  0.1627 -0.7057  0.8662
   28MOL   H33411728   3.255   1.362   0.453 -0.6034 -0.2460 -1.6884
   28MOL   H33511729   3.098   1.559   0.376 -0.9201  0.5520 -0.1732
   28MOL   H33611730   2.984   1.440   0.324  0.0390 -2.9414 -0.5789
   28MOL   H33711731   3.149   1.451   0.253  0.1876  0.9495  0.6391
   28MOL   C33811732   3.022   1.000   1.004 -0.4330 -0.1740 -0.0145
   28MOL   C33911733   3.158   1.043   1.069 -0.3670  0.1486  0.2155
   28MOL   C34011734   3.137   1.055   1.223  0.8608 -0.0271 -0.1676
   28MOL   O34111735   3.040   1.002   1.286  0.3299 -0.0050  0.3308
   28MOL   O34211736   3.232   1.115   1.283  0.3183 -0.1044 -0.9055
   28MOL   C34311737   3.241   1.121   1.421 -0.3900 -0.3779  0.1846
   28MOL   C34411738   3.370   1.191   1.455  0.1667 -0.4157 -0.1477
   28MOL   C34511739   3.490   1.122   1.400  0.0050 -0.1903 -0.1454
   28MOL   C34611740   3.516   0.975   1.435 -0.2139 -0.8353  0.2439
   28MOL   H34711741   2.987   0.900   1.030  1.0938 -0.3037  1.5932
   28MOL   H34811742   2.942   1.068   1.035  1.6712  2.1400  0.4857
   28MOL   H34911743   3.181   1.146   1.041  2.2996 -0.7807 -1.1247
   28MOL   H35011744   3.235   1.021   1.464 -1.0295 -0.1431  0.6469
   28MOL   H35111745   3.164   1.185   1.465 -0.0387  0.7884 -0.8677
   28MOL   H35211746   3.364   1.296   1.427 -0.3638  0.2357  2.3295
   28MOL   H35311747   3.397   1.192   1.561 -2.4984 -0.7633  0.5666
   28MOL   H35411748   3.572   1.177   1.448  0.1760 -0.4056 -0.1908
   28MOL   H35511749   3.493   1.138   1.293  1.4355  3.2184  0.3511
   28MOL   H35611750   3.607   0.945   1.382  1.9260  1.3877  2.5250
   28MOL   H35711751   3.434   0.904   1.420  0.6060 -1.7993  0.2254
   28MOL   H35811752   3.544   0.971   1.540 -4.0198  0.5973  1.3718
   28MOL   C35911753   3.275   0.942   1.040  0.6793  0.2123  0.2640
   28MOL   C36011754   3.376   0.986   0.933  0.9025  0.4241 -0.2847
   28MOL   C36111755   3.471   1.094   0.993 -0.1185 -0.1464 -0.4064
   28MOL   O36211756   3.581   1.066   1.043 -0.2152 -0.3421 -0.4376
   28MOL   O36311757   3.424   1.219   0.984  0.8139 -0.7670  1.2562
   28MOL   C36411758   3.492   1.336   1.040  0.4371  0.2024 -0.0697
   28MOL   C36511759   3.434   1.470   0.989 -0.1563  0.5509  0.1299
   28MOL   C36611760   3.283   1.481   1.029 -0.1595 -0.2181  0.5434
   28MOL   C36711761   3.198   1.601   0.986 -0.2333 -0.2001 -0.1609
   28MOL   H36811762   3.240   0.842   1.015  0.4419  0.5799 -0.9271
   28MOL   H36911763   3.330   0.927   1.132 -1.4586 -1.7407  1.2592
   28MOL   H37011764   3.328   1.044   0.854  0.7937 -1.0729 -1.3336
   28MOL   H37111765   3.599   1.341   1.019  0.4688 -1.1035 -0.2823
   28MOL   H37211766   3.487   1.326   1.148  1.0281 -0.5735 -0.1079
   28MOL   H37311767   3.491   1.548   1.041  1.7716 -0.4677 -0.3976
   28MOL   H37411768   3.454   1.496   0.885 -0.2611 -0.4126 -0.1377
   28MOL   H37511769   3.273   1.479   1.137  1.3317  1.5891  0.7383
   28MOL   H37611770   3.229   1.395   0.990  2.0378 -0.7634 -1.4788
   28MOL   H37711771   3.216   1.618   0.880  1.3537  0.3440  0.1955
   28MOL   H37811772   3.213   1.690   1.047  1.8004 -1.5898  1.4523
   28MOL   H37911773   3.093   1.574   0.994 -0.3556  0.7441  1.6973
   28MOL   C38011774   3.460   0.871   0.877  0.0938 -0.4782  0.0145
   28MOL   C38111775   3.378   0.777   0.787 -0.3652 -0.5828 -0.3972
   28MOL   C38211776   3.391   0.812   0.634  0.1652  0.2018 -0.4880
   28MOL   O38311777   3.479   0.886   0.590  0.2021  0.4868 -0.0372
   28MOL   O38411778   3.304   0.744   0.566  0.3140 -0.4703  0.0429
   28MOL   C38511779   3.310   0.744   0.429  0.4422 -0.3013  0.5252
   28MOL   C38611780   3.400   0.624   0.398  0.5343 -0.0089  0.6465
   28MOL   C38711781   3.400   0.595   0.250 -0.6408  0.4281  0.2546
   28MOL   C38811782   3.441   0.454   0.212  0.1310  0.4177 -0.4479
   28MOL   H38911783   3.497   0.815   0.963 -1.1942 -1.3542 -0.0035
   28MOL   H39011784   3.555   0.902   0.832 -0.6873  0.6656 -0.8622
   28MOL   H39111785   3.272   0.792   0.808 -0.5185  0.4683 -1.8253
   28MOL   H39211786   3.344   0.834   0.376 -1.6729 -0.8387 -1.8528
   28MOL   H39311787   3.211   0.726   0.387 -0.4627 -0.6036  2.7426
   28MOL   H39411788   3.502   0.648   0.430 -0.0777  2.9561  0.5109
   28MOL   H39511789   3.354   0.537   0.445  2.5195 -0.3514  2.0362
   28MOL   H39611790   3.470   0.661   0.199 -1.2679 -0.9559 -2.4882
   28MOL   H39711791   3.307   0.621   0.200 -0.0327 -2.5712 -2.5392
   28MOL   H39811792   3.533   0.421   0.259 -0.9883  1.5064  2.5951
   28MOL   H39911793   3.442   0.441   0.103  1.3281  0.9587 -0.5031
   28MOL   H40011794   3.375   0.372   0.238  1.2664 -0.2244  0.4532
   28MOL   C40111795   3.407   0.629   0.811 -0.2631 -0.0057 -0.2711
   28MOL   C40211796   3.362   0.567   0.938 -0.0122 -0.3946 -0.1718
   28MOL   C40311797   3.208   0.533   0.939 -0.4946 -0.6009  0.2886
   28MOL   O40411798   3.123   0.616   0.961  0.0854  0.2276  0.0559
   28MOL   O40511799   3.182   0.407   0.904 -0.1240  0.5139  0.1663
   28MOL   C40611800   3.055   0.357   0.931 -0.2089  0.0263 -0.3719
   28MOL   C40711801   3.043   0.299   1.068 -0.0037 -0.5070 -0.2394
   28MOL   C40811802   2.913   0.230   1.097 -0.8739  0.2178 -0.6970
   28MOL   C40911803   2.910   0.184   1.243 -0.1667  0.1109 -0.0785
   28MOL   H41011804   3.515   0.614   0.812 -0.1097  1.1339  0.2355
   28MOL   H41111805   3.363   0.570   0.731 -1.1427  1.4789 -0.9106
   28MOL   H41211806   3.395   0.623   1.026  1.4822 -1.2156 -0.1970
   28MOL   H41311807   3.032   0.282   0.855 -0.5226 -2.0733  1.7397
   28MOL   H41411808   2.984   0.439   0.924  0.6169  0.8058  0.2405
   28MOL   H41511809   3.125   0.230   1.086  0.6992  0.7604  1.5387
   28MOL   H41611810   3.055   0.377   1.142 -1.6945  1.3387 -1.8521
   28MOL   H41711811   2.910   0.149   1.024  0.1526 -0.9267  0.5220
   28MOL   H41811812   2.829   0.295   1.070  0.3081  1.9244 -0.3441
   28MOL   H41911813   2.976   0.099   1.255 -1.0715 -0.3899  1.5430
   28MOL   H42011814   2.808   0.154   1.267 -0.6053  0.8289 -0.9931
   28MOL   H42111815   2.949   0.260   1.311 -0.3403 -0.0201  0.1701
   28MOL   H42211816   3.416   0.473   0.950 -0.7163 -0.8126 -0.2744
   29MOL     C111817   3.321   4.045   5.991 -0.1392  0.3671  0.3618
   29MOL     C211818   3.424   4.144   5.945 -0.0633  0.1653 -0.0116
   29MOL     C311819   3.520   4.081   5.851 -0.5212  0.7763 -0.4658
   29MOL     O411820   3.638   4.090   5.860  0.0571 -0.7150 -0.1618
   29MOL     O511821   3.454   4.013   5.752 -0.1412  0.0908 -0.2530
   29MOL     C611822   3.531   3.968   5.639  0.1407  0.2128  0.4649
   29MOL     C711823   3.596   3.831   5.661  0.1300  0.0026  0.5993
   29MOL     C811824   3.623   3.766   5.528  0.4716  0.1264  0.0350
   29MOL     C911825   3.657   3.616   5.545 -0.2294  0.4645 -0.6187
   29MOL    H1011826   3.361   3.944   5.990 -1.2326 -0.0710  0.6069
   29MOL    H1111827   3.280   4.070   6.089  1.1898  1.4036  0.6712
   29MOL    H1211828   3.481   4.168   6.035  1.3456  0.2637 -0.9240
   29MOL    H1311829   3.615   4.037   5.623  0.8062 -0.3633  1.4399
   29MOL    H1411830   3.480   3.976   5.543 -0.2572 -1.0051  0.5707
   29MOL    H1511831   3.693   3.840   5.710  1.5471  1.3442 -2.3021
   29MOL    H1611832   3.529   3.772   5.723 -0.0222  0.0102  0.4418
   29MOL    H1711833   3.699   3.810   5.463  0.3820 -0.2344 -0.3181
   29MOL    H1811834   3.532   3.771   5.467  1.2671 -1.3967 -1.3126
   29MOL    H1911835   3.586   3.577   5.618  0.3679  1.2354  0.3852
   29MOL    H2011836   3.757   3.617   5.588 -0.5611  1.1551  0.1519
   29MOL    H2111837   3.676   3.552   5.459 -0.9060 -0.2738 -0.2213
   29MOL    H2211838   3.236   4.055   5.923  0.2871  0.4925 -0.1594
   29MOL    C2311839   3.382   4.277   5.872  0.0361  0.3129  0.1521
   29MOL    C2411840   3.262   4.358   5.927 -0.4368  0.2133  0.0264
   29MOL    C2511841   3.279   4.402   6.070  0.2056  0.3749  0.4311
   29MOL    O2611842   3.187   4.388   6.154  0.2063  0.6932 -0.4784
   29MOL    O2711843   3.396   4.462   6.097  0.2503 -0.2800 -0.9819
   29MOL    C2811844   3.431   4.512   6.232  0.3295 -0.4658  0.3117
   29MOL    C2911845   3.569   4.575   6.230 -0.1286 -0.5941  0.1064
   29MOL    C3011846   3.597   4.688   6.133  0.1347  0.4000 -0.7295
   29MOL    C3111847   3.743   4.729   6.139 -0.0889  0.7653 -0.8331
   29MOL    H3211848   3.363   4.250   5.768  0.5958 -1.9163  0.5934
   29MOL    H3311849   3.467   4.344   5.862  1.0056 -0.3807  3.2809
   29MOL    H3411850   3.190   4.276   5.926  0.5904 -0.7032 -0.9167
   29MOL    H3511851   3.428   4.421   6.291 -2.0996 -2.2907 -2.5069
   29MOL    H3611852   3.354   4.577   6.275  0.9162  0.1214  0.4829
   29MOL    H3711853   3.593   4.603   6.332  0.7911 -1.4840  0.1374
   29MOL    H3811854   3.638   4.494   6.208  1.2925  1.0196 -1.4785
   29MOL    H3911855   3.531   4.772   6.155  1.7770  1.4684  0.2511
   29MOL    H4011856   3.575   4.654   6.032 -0.4552  2.6752 -1.3967
   29MOL    H4111857   3.773   4.809   6.070  3.7252 -0.6358 -0.9550
   29MOL    H4211858   3.809   4.644   6.122  0.5539  0.9896  0.4197
   29MOL    H4311859   3.768   4.758   6.241 -2.2359 -0.8359  0.1853
   29MOL    C4411860   3.227   4.479   5.837 -0.8651 -0.3848 -0.2337
   29MOL    C4511861   3.082   4.488   5.771 -0.1516 -0.4458  0.1682
   29MOL    C4611862   3.065   4.364   5.672  0.7789  0.1916  0.1955
   29MOL    O4711863   3.149   4.280   5.647  0.2345  0.0220  0.5897
   29MOL    O4811864   2.952   4.376   5.599  0.1001  0.1005 -0.2137
   29MOL    C4911865   2.899   4.264   5.528 -0.9211  0.0344 -0.7464
   29MOL    C5011866   2.903   4.287   5.376  0.0629 -1.0094 -0.0164
   29MOL    C5111867   2.850   4.426   5.328  0.2096 -0.1957  0.2621
   29MOL    C5211868   2.854   4.447   5.173  0.3985  0.0254  0.4895
   29MOL    H5311869   3.293   4.484   5.750  0.8480  3.5122  1.1659
   29MOL    H5411870   3.251   4.570   5.893  0.0346 -1.3303  0.9464
   29MOL    H5511871   3.073   4.583   5.717 -0.4287  0.4422  1.7630
   29MOL    H5611872   2.793   4.250   5.546 -1.6262  0.3319 -4.3708
   29MOL    H5711873   2.948   4.172   5.561  1.5971  1.2020 -1.0752
   29MOL    H5811874   3.003   4.268   5.335  0.3016  0.0759  0.0581
   29MOL    H5911875   2.832   4.215   5.336  0.6862 -1.3004 -0.6109
   29MOL    H6011876   2.920   4.498   5.371 -1.7218 -0.3045  3.7265
   29MOL    H6111877   2.756   4.452   5.375  0.2011  0.8778 -0.3413
   29MOL    H6211878   2.786   4.375   5.128 -0.2648  0.6929  0.4222
   29MOL    H6311879   2.951   4.427   5.127 -1.1122 -0.5865 -2.5802
   29MOL    H6411880   2.823   4.550   5.154 -0.6459 -0.4687 -0.5360
   29MOL    C6511881   2.970   4.491   5.884 -0.7970 -0.2227  0.4146
   29MOL    C6611882   2.822   4.511   5.841  0.0091 -0.6097 -0.0053
   29MOL    C6711883   2.743   4.404   5.915 -0.1914 -0.4261  0.0513
   29MOL    O6811884   2.691   4.315   5.845 -0.2320 -0.6091  0.2674
   29MOL    O6911885   2.760   4.407   6.053  0.2046 -0.4199 -0.2771
   29MOL    C7011886   2.725   4.290   6.132  0.4369  0.5772  0.5783
   29MOL    C7111887   2.851   4.201   6.150  0.2851  0.2138 -0.7080
   29MOL    C7211888   2.851   4.101   6.267 -1.0876 -0.3565  0.4130
   29MOL    C7311889   2.977   4.018   6.274 -0.1254  0.0818 -0.3324
   29MOL    H7411890   3.000   4.574   5.947 -0.8709  0.6046 -0.6299
   29MOL    H7511891   2.986   4.402   5.946 -0.0370  0.0362  0.5939
   29MOL    H7611892   2.803   4.489   5.736 -4.1914 -0.6161  0.6897
   29MOL    H7711893   2.643   4.233   6.088  1.0572  0.7503 -0.8243
   29MOL    H7811894   2.683   4.325   6.226 -0.8090  3.9858 -1.1629
   29MOL    H7911895   2.877   4.138   6.066 -2.1638 -1.5403 -0.2201
   29MOL    H8011896   2.933   4.272   6.156 -0.2163  0.8605 -1.4707
   29MOL    H8111897   2.758   4.044   6.261 -1.4785  0.4544 -1.8129
   29MOL    H8211898   2.836   4.157   6.358  2.5421 -2.0145  2.1188
   29MOL    H8311899   2.983   3.980   6.376 -3.1421 -0.1197 -0.1593
   29MOL    H8411900   3.063   4.078   6.246 -0.1377 -0.6296 -1.9413
   29MOL    H8511901   2.976   3.931   6.208  0.7693  1.6138 -2.4051
   29MOL    C8611902   2.764   4.655   5.870  0.0463 -0.3549  0.0747
   29MOL    C8711903   2.820   4.770   5.788 -0.0357 -0.1857  0.0275
   29MOL    C8811904   2.773   4.752   5.639  0.0126 -0.7294 -0.4116
   29MOL    O8911905   2.861   4.732   5.558  0.6442 -0.7630 -0.3274
   29MOL    O9011906   2.642   4.769   5.613 -0.3774  0.2151 -0.4763
   29MOL    C9111907   2.586   4.715   5.496 -0.2949 -0.5032  0.6076
   29MOL    C9211908   2.477   4.628   5.555 -0.3994  0.0772 -0.0419
   29MOL    C9311909   2.357   4.710   5.607 -0.1344 -0.7985  0.1959
   29MOL    C9411910   2.261   4.621   5.685  0.1923  0.2294  0.3745
   29MOL    H9511911   2.768   4.681   5.976 -0.9744  0.2606 -0.0257
   29MOL    H9611912   2.658   4.640   5.849 -0.4273  0.1303  2.0481
   29MOL    H9711913   2.928   4.760   5.786 -0.1775 -1.8309 -0.4217
   29MOL    H9811914   2.663   4.660   5.441  0.9951  1.4131  0.4359
   29MOL    H9911915   2.545   4.796   5.435  0.7459 -0.3376  0.1029
   29MOL   H10011916   2.428   4.565   5.481  0.4333 -0.2354 -0.3285
   29MOL   H10111917   2.515   4.546   5.616  0.1566 -0.0590 -0.5639
   29MOL   H10211918   2.307   4.754   5.521  0.9380 -0.2043 -0.1425
   29MOL   H10311919   2.399   4.786   5.673  0.5121  1.6472 -2.8559
   29MOL   H10411920   2.220   4.548   5.615  0.1444 -1.8446  2.5022
   29MOL   H10511921   2.181   4.679   5.730 -1.3841 -0.8705 -0.9425
   29MOL   H10611922   2.320   4.571   5.762  0.0753 -0.9428 -0.2717
   29MOL   C10711923   2.796   4.913   5.838  0.0484 -0.0356  0.5634
   29MOL   C10811924   2.872   5.020   5.766  0.5467 -0.4334  0.1976
   29MOL   C10911925   2.855   5.157   5.839 -0.3896  0.2123 -0.1128
   29MOL   O11011926   2.889   5.169   5.953  0.3592 -0.1289 -0.3106
   29MOL   O11111927   2.804   5.251   5.761  0.0722  0.3679 -0.2558
   29MOL   C11211928   2.814   5.385   5.798 -0.1460 -0.9938  0.6565
   29MOL   C11311929   2.677   5.450   5.770 -0.2237 -1.3468 -0.0353
   29MOL   C11411930   2.703   5.589   5.699  0.3634 -0.1127  0.0171
   29MOL   C11511931   2.557   5.642   5.665  0.0514  0.1890  0.7566
   29MOL   H11611932   2.824   4.920   5.943  0.4523  0.4236  0.4275
   29MOL   H11711933   2.688   4.928   5.832  0.0830 -0.7855 -3.0878
   29MOL   H11811934   2.812   5.027   5.676  1.6411 -0.2440 -0.5295
   29MOL   H11911935   2.893   5.438   5.744 -0.3318 -0.4738  0.8920
   29MOL   H12011936   2.851   5.412   5.897  0.6155  0.4013  0.0189
   29MOL   H12111937   2.618   5.386   5.706 -1.5494 -1.1651  0.9943
   29MOL   H12211938   2.618   5.463   5.860  0.7830 -2.3389  0.7859
   29MOL   H12311939   2.755   5.576   5.605 -0.0572 -0.2273 -0.1997
   29MOL   H12411940   2.747   5.662   5.767 -3.0037  0.8156  1.3091
   29MOL   H12511941   2.498   5.670   5.752  1.4225  0.3120  1.6726
   29MOL   H12611942   2.492   5.574   5.610 -0.7944 -0.9239  3.0639
   29MOL   H12711943   2.573   5.730   5.603  0.4996  0.3412  1.0871
   29MOL   C12811944   3.025   4.996   5.739  0.1181 -0.0478 -0.1479
   29MOL   C12911945   3.119   5.007   5.863 -0.1467 -0.1834 -0.5872
   29MOL   C13011946   3.105   4.896   5.966 -0.4340  0.1576 -0.3237
   29MOL   O13111947   3.132   4.775   5.942  0.0429  0.5434 -0.0854
   29MOL   O13211948   3.053   4.935   6.093  0.6077 -0.0428 -0.2982
   29MOL   C13311949   3.026   4.833   6.186  0.3819 -0.2018 -0.0294
   29MOL   C13411950   2.975   4.899   6.324  0.1073 -0.1931 -0.0770
   29MOL   C13511951   2.840   4.968   6.298 -0.1607 -0.8412  0.1854
   29MOL   C13611952   2.801   5.081   6.399 -0.3378  0.2609 -0.0882
   29MOL   H13711953   3.058   5.069   5.665  2.7338 -0.9200  0.0935
   29MOL   H13811954   3.043   4.904   5.682  2.8196  0.7710 -0.7023
   29MOL   H13911955   3.107   5.101   5.917  0.2613 -0.7251  0.4611
   29MOL   H14011956   3.115   4.776   6.213  0.0078 -0.7781  0.0000
   29MOL   H14111957   2.959   4.755   6.149 -1.2412  1.6863 -1.1513
   29MOL   H14211958   2.973   4.827   6.405  0.2397 -2.8031 -2.2962
   29MOL   H14311959   3.056   4.969   6.343 -1.5771  1.7489  0.0510
   29MOL   H14411960   2.762   4.893   6.312  0.3584 -1.1470  1.5322
   29MOL   H14511961   2.821   5.007   6.198 -0.7391  1.3505  1.1134
   29MOL   H14611962   2.694   5.095   6.388 -0.5129 -1.1338 -0.3070
   29MOL   H14711963   2.853   5.174   6.377 -0.6990  0.2868 -0.8508
   29MOL   H14811964   2.828   5.042   6.498 -1.6665  0.8066  0.4988
   29MOL   C14911965   3.266   5.013   5.819  0.9423 -0.2255 -0.0134
   29MOL   C15011966   3.305   5.089   5.689 -0.0090 -0.5218 -0.5657
   29MOL   C15111967   3.266   5.238   5.700 -0.7239  0.3741 -0.4381
   29MOL   O15211968   3.223   5.290   5.800 -0.3021  0.2437  0.9244
   29MOL   O15311969   3.287   5.297   5.586 -0.0568  0.2989  0.1966
   29MOL   C15411970   3.289   5.440   5.579  0.1114 -0.8078  0.1583
   29MOL   C15511971   3.370   5.485   5.453  0.5803 -0.2653 -0.2220
   29MOL   C15611972   3.364   5.638   5.434 -0.4964 -0.0508  0.0117
   29MOL   C15711973   3.436   5.684   5.309 -0.1128  0.7669  0.0329
   29MOL   H15811974   3.310   4.913   5.813 -1.2885 -1.1563 -1.7303
   29MOL   H15911975   3.316   5.065   5.900  0.9390  0.1965 -0.2824
   29MOL   H16011976   3.247   5.058   5.602 -1.4140  0.9023 -0.1730
   29MOL   H16111977   3.342   5.474   5.668  0.0801 -1.0828  0.2831
   29MOL   H16211978   3.184   5.467   5.579  0.1014 -0.8519  0.8355
   29MOL   H16311979   3.476   5.464   5.464  0.5681  0.0795  0.6129
   29MOL   H16411980   3.328   5.430   5.370  0.7011  1.6988 -1.6262
   29MOL   H16511981   3.420   5.689   5.512  0.0042  0.7781 -0.8862
   29MOL   H16611982   3.262   5.677   5.437  0.1804  1.7598  0.0618
   29MOL   H16711983   3.545   5.682   5.308 -0.0429  1.6118  2.4638
   29MOL   H16811984   3.409   5.790   5.307 -1.8526  0.4310  2.8106
   29MOL   H16911985   3.398   5.634   5.219 -3.6131 -0.7184  2.2253
   29MOL   C17011986   3.457   5.063   5.670 -0.2342 -0.1438  0.4212
   29MOL   C17111987   3.477   4.946   5.581 -0.2565 -0.5279  0.2120
   29MOL   C17211988   3.440   4.975   5.431  0.1992 -0.0389 -0.3952
   29MOL   O17311989   3.404   5.093   5.401 -0.0804 -0.2144 -0.0653
   29MOL   O17411990   3.474   4.881   5.344 -0.7459  0.0863 -0.1081
   29MOL   C17511991   3.471   4.916   5.203  0.0981 -0.3243 -0.7560
   29MOL   C17611992   3.547   4.809   5.119 -0.6368 -0.5668 -0.0570
   29MOL   C17711993   3.489   4.665   5.145  0.3685  0.7707 -0.3423
   29MOL   C17811994   3.572   4.566   5.063  0.0031  0.6472  0.2849
   29MOL   H17911995   3.500   5.042   5.768  0.1969 -1.5323 -0.0644
   29MOL   H18011996   3.507   5.155   5.638  1.6040 -0.5095  2.1729
   29MOL   H18111997   3.408   4.867   5.613 -0.8571  0.5258  1.5468
   29MOL   H18211998   3.520   5.012   5.189  0.8136 -0.2778  1.8266
   29MOL   H18311999   3.368   4.919   5.168 -0.2140  1.0777  0.2417
   29MOL   H18412000   3.543   4.831   5.013  0.8799  0.4628  0.0742
   29MOL   H18512001   3.653   4.814   5.147 -0.6734 -0.3617  0.0484
   29MOL   H18612002   3.385   4.658   5.112 -0.3514 -1.1158  2.1413
   29MOL   H18712003   3.497   4.629   5.248  0.2938 -0.2839 -0.7045
   29MOL   H18812004   3.564   4.591   4.958  1.4177 -1.0606 -0.2631
   29MOL   H18912005   3.533   4.464   5.069  1.2489  0.0720 -1.2064
   29MOL   H19012006   3.675   4.551   5.094 -0.0783  0.1909  0.3446
   29MOL   C19112007   3.633   4.909   5.592  0.1290 -0.0372  0.1728
   29MOL   C19212008   3.679   4.850   5.730 -0.2362 -0.7416 -0.2676
   29MOL   C19312009   3.630   4.704   5.748  0.3472  0.3220 -0.7941
   29MOL   O19412010   3.508   4.683   5.773  0.1934 -0.4545  0.1308
   29MOL   O19512011   3.721   4.609   5.718 -0.6575 -0.3930 -0.2306
   29MOL   C19612012   3.688   4.474   5.748  0.5730 -0.3809  0.5128
   29MOL   C19712013   3.787   4.366   5.703  0.0076 -0.8479  0.2311
   29MOL   C19812014   3.812   4.369   5.554 -0.5763 -0.4298  0.8863
   29MOL   C19912015   3.706   4.303   5.457  0.1435  0.0056  0.4416
   29MOL   H20012016   3.687   5.003   5.576  0.4354 -0.6142 -2.3621
   29MOL   H20112017   3.660   4.846   5.508 -0.8692 -0.6187  0.2847
   29MOL   H20212018   3.623   4.906   5.805  0.5440  1.6320 -1.4018
   29MOL   H20312019   3.593   4.456   5.697  1.0857  0.9865 -0.9767
   29MOL   H20412020   3.662   4.463   5.853  0.7062 -0.2885  0.5549
   29MOL   H20512021   3.880   4.397   5.752 -0.0463  2.3780 -1.5751
   29MOL   H20612022   3.748   4.273   5.744  1.4496 -0.6843  2.0837
   29MOL   H20712023   3.909   4.322   5.538 -0.4618 -0.0632  0.5092
   29MOL   H20812024   3.816   4.473   5.522  2.6779 -1.0635 -1.0471
   29MOL   H20912025   3.674   4.215   5.515  0.0385  0.8588  1.7059
   29MOL   H21012026   3.734   4.283   5.354  0.3974  0.8440  0.3490
   29MOL   H21112027   3.614   4.359   5.449 -0.3249 -1.1185 -2.3652
   29MOL   C21212028   3.830   4.871   5.756 -0.8254  0.4728  0.1794
   29MOL   C21312029   3.903   5.005   5.736  0.0020  0.0170  0.1873
   29MOL   C21412030   3.854   5.119   5.826  0.0878  0.3389 -0.2682
   29MOL   O21512031   3.886   5.135   5.941  0.6647  0.5418 -0.7096
   29MOL   O21612032   3.778   5.197   5.758 -0.3231  0.1604 -0.1617
   29MOL   C21712033   3.713   5.304   5.829 -0.2413 -0.2057  0.6354
   29MOL   C21812034   3.693   5.429   5.742 -0.0436  0.2628 -0.2887
   29MOL   C21912035   3.830   5.478   5.689  0.2855  0.6788  0.1514
   29MOL   C22012036   3.822   5.598   5.600  0.2042  0.3107  0.0983
   29MOL   H22112037   3.879   4.802   5.688  0.5199  0.6847  0.9284
   29MOL   H22212038   3.848   4.833   5.856 -0.4645  1.8657  0.6542
   29MOL   H22312039   3.895   5.035   5.631  1.0696 -4.5809 -1.3317
   29MOL   H22412040   3.766   5.327   5.922  0.7207  2.6951 -0.5735
   29MOL   H22512041   3.614   5.275   5.864 -0.3951 -1.3811 -0.7231
   29MOL   H22612042   3.631   5.406   5.655 -0.0217  0.1375 -0.2721
   29MOL   H22712043   3.660   5.522   5.787 -2.4167  0.0934 -1.6021
   29MOL   H22812044   3.864   5.396   5.626  1.1750 -0.1178  1.6308
   29MOL   H22912045   3.900   5.496   5.771  0.0926  1.3568  0.1653
   29MOL   H23012046   3.918   5.620   5.553  0.6477 -1.5664  0.0862
   29MOL   H23112047   3.803   5.687   5.659  0.3840 -0.4381  1.3187
   29MOL   H23212048   3.754   5.589   5.515 -0.4333  1.0233  0.5275
   29MOL   C23312049   4.057   4.985   5.764 -0.1909  0.3122 -1.2329
   29MOL   C23412050   4.150   5.109   5.753 -0.0016  0.6739  0.1324
   29MOL   C23512051   4.287   5.081   5.811 -0.2535  0.2262  0.1230
   29MOL   O23612052   4.313   5.127   5.919 -0.1337  0.2499  0.3066
   29MOL   O23712053   4.365   4.984   5.739 -0.2889 -0.6103  0.3712
   29MOL   C23812054   4.504   4.978   5.784  0.6847  1.2142 -0.7341
   29MOL   C23912055   4.596   5.029   5.674 -0.5750 -0.5138  0.3445
   29MOL   C24012056   4.741   4.985   5.688 -0.8500 -0.0402 -0.5305
   29MOL   C24112057   4.833   4.975   5.556  0.1022 -0.1672  0.0131
   29MOL   H24212058   4.099   4.910   5.698  2.0428 -0.2219  0.7197
   29MOL   H24312059   4.059   4.947   5.867  0.7057 -0.1126 -1.3984
   29MOL   H24412060   4.102   5.188   5.811  1.6585  1.0245  1.0654
   29MOL   H24512061   4.526   4.872   5.797 -0.6974  0.9692 -0.3543
   29MOL   H24612062   4.526   5.024   5.880 -2.7169 -0.3160  0.8562
   29MOL   H24712063   4.557   4.994   5.579  0.3830 -2.0683  0.4933
   29MOL   H24812064   4.589   5.137   5.666 -0.8253 -0.4924  0.8185
   29MOL   H24912065   4.740   4.888   5.738  0.7160 -0.7460 -1.8090
   29MOL   H25012066   4.788   5.057   5.755 -1.5321 -1.7878  1.9300
   29MOL   H25112067   4.841   5.073   5.509 -1.3152  1.6383  3.3026
   29MOL   H25212068   4.782   4.902   5.494  0.3526 -0.7821  0.5242
   29MOL   H25312069   4.934   4.940   5.578 -0.1549 -1.5041 -0.8876
   29MOL   C25412070   4.157   5.167   5.612  0.0750 -0.2099 -0.0937
   29MOL   C25512071   4.224   5.305   5.618  0.1894 -0.2849 -0.5887
   29MOL   C25612072   4.264   5.351   5.480 -0.4074  0.3038 -0.0412
   29MOL   O25712073   4.378   5.378   5.455 -0.5603  0.0541  0.3101
   29MOL   O25812074   4.167   5.347   5.397 -0.1880 -0.2876  0.0843
   29MOL   C25912075   4.181   5.403   5.265  0.2228 -0.1318  0.4192
   29MOL   C26012076   4.100   5.529   5.248  0.1855 -0.2150 -0.0192
   29MOL   C26112077   3.942   5.508   5.254 -0.1542 -0.4329  0.3848
   29MOL   C26212078   3.865   5.641   5.229 -0.1024  0.5309 -0.2686
   29MOL   H26312079   4.055   5.177   5.574  0.2053 -1.9032 -0.9035
   29MOL   H26412080   4.207   5.099   5.543  0.1629 -0.6249  0.3735
   29MOL   H26512081   4.324   5.288   5.657  0.6131  0.0126 -1.5225
   29MOL   H26612082   4.151   5.339   5.182  1.1420  0.0222 -0.0423
   29MOL   H26712083   4.286   5.425   5.247  0.0497  2.5918  2.3972
   29MOL   H26812084   4.129   5.604   5.322 -1.4059  0.8357 -0.4385
   29MOL   H26912085   4.126   5.584   5.158 -1.1267 -3.4682 -2.4754
   29MOL   H27012086   3.917   5.474   5.355 -2.2237  0.6015  0.2414
   29MOL   H27112087   3.900   5.444   5.177 -1.5832  1.7327 -0.6614
   29MOL   H27212088   3.758   5.625   5.226 -0.1423  0.9314 -1.1250
   29MOL   H27312089   3.888   5.694   5.137 -1.1803  0.6644 -0.4611
   29MOL   H27412090   3.901   5.708   5.307  2.2121  0.3124 -1.1072
   29MOL   C27512091   4.158   5.416   5.695  0.1709  0.0132  0.0619
   29MOL   C27612092   4.245   5.489   5.804  0.0713  1.6511 -0.3204
   29MOL   C27712093   4.378   5.543   5.744 -0.4545 -0.7555 -0.2162
   29MOL   O27812094   4.387   5.644   5.675  0.7303 -0.3557  0.0594
   29MOL   O27912095   4.482   5.473   5.797  0.1352  0.1803  0.2994
   29MOL   C28012096   4.619   5.522   5.772  0.2954 -0.6190  0.0611
   29MOL   C28112097   4.717   5.482   5.877  0.2378 -1.0508  0.4863
   29MOL   C28212098   4.714   5.326   5.883  0.3713 -0.7309 -0.1950
   29MOL   C28312099   4.841   5.269   5.955  0.1782  0.2917  0.3341
   29MOL   H28412100   4.069   5.383   5.748 -1.1424 -0.6519 -2.4502
   29MOL   H28512101   4.119   5.498   5.633  0.8405  1.7803  1.9077
   29MOL   H28612102   4.253   5.408   5.876 -1.6049  2.2855  0.6013
   29MOL   H28712103   4.617   5.631   5.765  0.8209 -0.5710  0.6894
   29MOL   H28812104   4.662   5.485   5.679  0.0167 -1.2139  0.1655
   29MOL   H28912105   4.812   5.534   5.858  0.3790 -2.2969 -2.4122
   29MOL   H29012106   4.692   5.526   5.974 -0.4930  1.5291 -0.8325
   29MOL   H29112107   4.701   5.276   5.787 -0.5621  0.0438 -0.4888
   29MOL   H29212108   4.625   5.307   5.944  1.7494  1.0840  2.4848
   29MOL   H29312109   4.845   5.160   5.959  0.5696  0.2840 -0.2667
   29MOL   H29412110   4.842   5.321   6.051  1.9116  3.5458 -1.3370
   29MOL   H29512111   4.935   5.298   5.908 -0.4908 -1.2981 -2.0410
   29MOL   C29612112   4.169   5.600   5.884  0.4745 -0.1565 -0.0815
   29MOL   C29712113   4.237   5.641   6.023  0.0177  0.2207 -0.3949
   29MOL   C29812114   4.249   5.516   6.108 -0.5951  1.1028  0.2019
   29MOL   O29912115   4.357   5.471   6.135 -0.0305 -0.0724 -0.0089
   29MOL   O30012116   4.136   5.477   6.168 -0.3341  0.1979  0.0691
   29MOL   C30112117   4.136   5.378   6.267  0.1889  0.5307 -0.4798
   29MOL   C30212118   4.094   5.246   6.195 -0.4608 -0.5836  0.9547
   29MOL   C30312119   4.077   5.129   6.295  0.8505 -0.8189 -0.1657
   29MOL   C30412120   4.052   4.995   6.227 -0.6936 -0.3754  0.4903
   29MOL   H30512121   4.068   5.567   5.908  1.1175 -0.7465  1.9508
   29MOL   H30612122   4.155   5.679   5.811 -3.4868  0.4301  1.2094
   29MOL   H30712123   4.162   5.701   6.075 -1.0958 -0.8826 -0.7051
   29MOL   H30812124   4.053   5.400   6.335 -0.2469 -2.5283  0.0576
   29MOL   H30912125   4.232   5.372   6.318  0.3569  0.9872 -0.7340
   29MOL   H31012126   4.006   5.272   6.136 -0.5682  0.7782  1.6825
   29MOL   H31112127   4.175   5.215   6.129 -0.8062  0.0828  0.2115
   29MOL   H31212128   4.006   5.150   6.376  1.4503 -0.9780  0.4067
   29MOL   H31312129   4.169   5.122   6.353  0.1843  0.3967  1.0787
   29MOL   H31412130   3.964   4.996   6.162  1.6829 -1.5997 -2.9237
   29MOL   H31512131   4.021   4.917   6.297  0.1401 -2.0431 -0.9356
   29MOL   H31612132   4.137   4.949   6.176 -0.7219 -0.6889  0.7196
   29MOL   C31712133   4.359   5.738   6.024  0.4316 -0.3627  0.4962
   29MOL   C31812134   4.426   5.778   6.162 -0.5832 -0.1853 -0.3973
   29MOL   C31912135   4.548   5.862   6.138 -0.1316 -0.5590 -0.2148
   29MOL   O32012136   4.546   5.951   6.053 -0.6088  0.1453 -0.0937
   29MOL   O32112137   4.649   5.834   6.217 -0.5920 -0.3365  0.2736
   29MOL   C32212138   4.778   5.890   6.197  0.6312 -0.7736  0.4032
   29MOL   C32312139   4.821   5.981   6.316  0.6538  0.3013 -0.1085
   29MOL   C32412140   4.806   5.921   6.457 -0.0599  0.1322  0.5726
   29MOL   C32512141   4.890   5.792   6.471  0.4356  0.7669 -0.1539
   29MOL   H32612142   4.323   5.826   5.972 -1.3595 -1.0551  0.5237
   29MOL   H32712143   4.435   5.696   5.959  0.4561 -0.1618  0.3955
   29MOL   H32812144   4.469   5.688   6.207  0.0765  1.0945  1.6128
   29MOL   H32912145   4.785   5.952   6.108 -2.0658  1.2065  1.5027
   29MOL   H33012146   4.851   5.813   6.174  0.6851 -0.1283 -1.6443
   29MOL   H33112147   4.921   6.022   6.301 -0.2508  2.5654 -0.2047
   29MOL   H33212148   4.756   6.068   6.308  2.4122  1.6103 -0.4851
   29MOL   H33312149   4.700   5.911   6.480 -1.0188 -0.9408 -3.8600
   29MOL   H33412150   4.840   5.983   6.539 -0.6788  0.5931  0.4876
   29MOL   H33512151   4.990   5.810   6.430  0.5491  2.1313  0.6854
   29MOL   H33612152   4.857   5.711   6.406  3.1468 -0.3737 -0.2049
   29MOL   H33712153   4.887   5.759   6.575 -3.4049 -1.1377 -0.7840
   29MOL   C33812154   4.322   5.848   6.257  0.6532  0.3600  0.0660
   29MOL   C33912155   4.357   5.830   6.410 -0.0350 -0.3348 -0.7100
   29MOL   C34012156   4.389   5.954   6.493  0.2407  0.4343  0.4831
   29MOL   O34112157   4.387   5.962   6.618  0.3051 -0.0743 -0.3155
   29MOL   O34212158   4.438   6.051   6.416  0.1627 -0.5187 -0.6304
   29MOL   C34312159   4.460   6.182   6.457  1.0690 -0.5485  0.0543
   29MOL   C34412160   4.462   6.274   6.334 -0.2472 -0.2100 -0.0025
   29MOL   C34512161   4.481   6.428   6.374 -0.3746 -0.0530  0.3582
   29MOL   C34612162   4.504   6.532   6.268  0.1404 -0.5982 -0.2115
   29MOL   H34712163   4.219   5.826   6.229  0.3198  1.0254  0.7457
   29MOL   H34812164   4.310   5.952   6.227  1.3958  0.4724  0.1509
   29MOL   H34912165   4.454   5.781   6.397  0.8787  1.4232 -0.6225
   29MOL   H35012166   4.556   6.199   6.505  1.4085  1.3152 -1.2174
   29MOL   H35112167   4.386   6.229   6.522 -0.5907 -4.1416  0.8928
   29MOL   H35212168   4.537   6.224   6.273 -0.5757 -0.6154 -0.0738
   29MOL   H35312169   4.372   6.260   6.273 -1.4588  0.2697  1.6458
   29MOL   H35412170   4.563   6.426   6.446 -0.3607 -1.9271  0.3206
   29MOL   H35512171   4.397   6.460   6.435 -1.1994  2.4377 -2.0054
   29MOL   H35612172   4.410   6.553   6.215  1.1315  1.5343 -1.1958
   29MOL   H35712173   4.572   6.506   6.187  0.7919 -1.6036  0.6577
   29MOL   H35812174   4.538   6.623   6.317  2.9172 -2.7384  2.0057
   29MOL   C35912175   4.251   5.740   6.472 -0.6305 -0.4424 -0.0585
   29MOL   C36012176   4.277   5.674   6.613 -0.3441  0.1932 -0.1331
   29MOL   C36112177   4.197   5.546   6.618 -0.0995 -0.0929 -0.0334
   29MOL   O36212178   4.245   5.441   6.580 -0.1506  0.0964 -0.0255
   29MOL   O36312179   4.072   5.568   6.656  0.2835  0.3179  0.2187
   29MOL   C36412180   3.979   5.462   6.639 -0.2799 -0.6742 -0.2162
   29MOL   C36512181   3.853   5.498   6.717 -0.8483  0.0878  0.0357
   29MOL   C36612182   3.874   5.453   6.856 -0.8684 -0.4130 -0.7413
   29MOL   C36712183   3.844   5.307   6.864  0.1638  0.1304 -0.3673
   29MOL   H36812184   4.234   5.661   6.399  1.7842 -0.1944 -0.9354
   29MOL   H36912185   4.159   5.798   6.471  0.5680  1.5532  1.0735
   29MOL   H37012186   4.244   5.739   6.693 -1.4192  0.7891 -1.0448
   29MOL   H37112187   4.031   5.370   6.664  0.0055 -0.3540  0.3721
   29MOL   H37212188   3.951   5.464   6.534  0.5917  2.4444 -0.4509
   29MOL   H37312189   3.845   5.606   6.709 -0.2730  0.1428  0.1886
   29MOL   H37412190   3.765   5.443   6.683  0.6802 -0.9158 -2.4141
   29MOL   H37512191   3.810   5.512   6.922 -0.2515 -1.4224  0.7894
   29MOL   H37612192   3.971   5.479   6.899 -0.6204 -0.4277 -1.2856
   29MOL   H37712193   3.817   5.266   6.962 -1.2459  0.4289 -0.6195
   29MOL   H37812194   3.921   5.239   6.828  0.6876  0.1863  0.6258
   29MOL   H37912195   3.751   5.287   6.810  1.3297 -0.2433 -2.2827
   29MOL   C38012196   4.430   5.645   6.620 -0.6718 -0.3236 -0.3606
   29MOL   C38112197   4.482   5.565   6.741  0.6734 -0.2671 -0.0431
   29MOL   C38212198   4.634   5.535   6.734  0.4822  0.1907 -0.0094
   29MOL   O38312199   4.703   5.582   6.647 -0.0982  0.1050  0.0844
   29MOL   O38412200   4.669   5.454   6.837 -0.2653 -0.4714 -0.0890
   29MOL   C38512201   4.805   5.413   6.852 -0.2204 -0.2456  0.2968
   29MOL   C38612202   4.855   5.456   6.991  0.0601  0.9162 -0.5097
   29MOL   C38712203   4.863   5.606   6.990 -0.2150  0.3706 -0.2401
   29MOL   C38812204   4.919   5.649   7.129  0.1788 -0.3687  0.1697
   29MOL   H38912205   4.486   5.738   6.628 -0.3164 -0.7670  2.7896
   29MOL   H39012206   4.465   5.589   6.533 -0.1151 -1.0998  0.3589
   29MOL   H39112207   4.430   5.469   6.735 -0.4363  0.4222 -1.8234
   29MOL   H39212208   4.864   5.461   6.774 -1.4876 -1.3185 -1.3741
   29MOL   H39312209   4.813   5.305   6.838  0.4388 -0.3207  1.2036
   29MOL   H39412210   4.790   5.419   7.070  0.8954 -0.7663 -0.5873
   29MOL   H39512211   4.955   5.422   7.019 -0.9311 -1.2299  0.5547
   29MOL   H39612212   4.763   5.651   6.992  0.1540  1.1414  2.6121
   29MOL   H39712213   4.914   5.648   6.903  1.1227  2.1160  1.3425
   29MOL   H39812214   4.851   5.631   7.212  3.1348 -0.5148  2.6235
   29MOL   H39912215   4.942   5.756   7.123 -3.3401  0.8106  4.7456
   29MOL   H40012216   5.013   5.601   7.155  0.1307 -0.0391  0.9787
   29MOL   C40112217   4.441   5.643   6.873  0.0291 -0.4226 -0.3262
   29MOL   C40212218   4.479   5.792   6.885 -0.2149 -0.0455 -0.1703
   29MOL   C40312219   4.438   5.832   7.022  0.5566 -0.4275  0.0142
   29MOL   O40412220   4.524   5.844   7.107  0.0304  0.6160 -0.3082
   29MOL   O40512221   4.308   5.855   7.037  0.2411  0.1276 -0.1282
   29MOL   C40612222   4.262   5.888   7.168  0.3857 -0.4165  0.4883
   29MOL   C40712223   4.111   5.864   7.194  0.9563 -0.0297 -1.2794
   29MOL   C40812224   4.068   5.718   7.166  0.3542  0.3046 -0.3660
   29MOL   C40912225   3.919   5.687   7.186 -0.2842 -0.0011  0.0802
   29MOL   H41012226   4.473   5.582   6.957 -2.6813 -1.6391 -0.1526
   29MOL   H41112227   4.333   5.630   6.882 -0.1049 -0.0298 -1.3077
   29MOL   H41212228   4.432   5.854   6.809 -0.8430 -1.8153 -1.2730
   29MOL   H41312229   4.298   5.986   7.200  1.6670 -0.6960 -0.0936
   29MOL   H41412230   4.321   5.828   7.237  0.2808  2.6677  3.4089
   29MOL   H41512231   4.092   5.887   7.299 -2.8779  1.0182 -2.1244
   29MOL   H41612232   4.050   5.935   7.138  1.4549  0.8850 -0.6770
   29MOL   H41712233   4.112   5.648   7.238 -0.7317 -1.3554 -1.2748
   29MOL   H41812234   4.101   5.685   7.068  0.0364  4.3549 -1.8996
   29MOL   H41912235   3.894   5.596   7.131 -4.3499 -0.3125  2.2347
   29MOL   H42012236   3.873   5.778   7.148 -0.8534 -0.7846 -1.1447
   29MOL   H42112237   3.895   5.670   7.290 -0.6585  0.1854  0.0228
   29MOL   H42212238   4.587   5.800   6.877 -0.3816  1.4478 -1.0414
   30MOL     C112239   3.740   0.665   1.133  0.1225 -0.2258 -0.2388
   30MOL     C212240   3.790   0.701   1.275  0.4540  1.1343 -0.5185
   30MOL     C312241   3.739   0.595   1.378  0.5113 -0.3528  0.2756
   30MOL     O412242   3.814   0.506   1.413  0.0991  0.0090 -0.1952
   30MOL     O512243   3.607   0.611   1.411  0.3272  0.2440  0.0591
   30MOL     C612244   3.537   0.517   1.489 -0.5290 -0.3439 -0.1966
   30MOL     C712245   3.389   0.567   1.507  0.2853 -1.0054 -0.1020
   30MOL     C812246   3.296   0.552   1.385 -0.1749 -0.3220  0.4942
   30MOL     C912247   3.280   0.686   1.310  0.1942  0.2789 -0.1211
   30MOL    H1012248   3.770   0.732   1.053  1.3761 -2.1972 -1.4555
   30MOL    H1112249   3.773   0.568   1.096  2.3506 -0.0673  1.2828
   30MOL    H1212250   3.750   0.801   1.296 -0.9568 -0.0129  2.5512
   30MOL    H1312251   3.580   0.518   1.590 -0.4967  2.0071 -0.1932
   30MOL    H1412252   3.519   0.420   1.443 -1.3827 -0.5419  0.5370
   30MOL    H1512253   3.344   0.500   1.581  0.5627 -0.8770  0.1798
   30MOL    H1612254   3.391   0.663   1.557  1.8549 -1.1259  0.0949
   30MOL    H1712255   3.201   0.518   1.424 -0.0149  0.4197  1.5685
   30MOL    H1812256   3.329   0.481   1.310  1.0531  1.6247 -0.8619
   30MOL    H1912257   3.214   0.699   1.223  0.2771 -1.4392 -0.4748
   30MOL    H2012258   3.378   0.718   1.276  0.9091 -3.1670 -1.5680
   30MOL    H2112259   3.249   0.760   1.383 -0.0191 -1.0516  1.1730
   30MOL    H2212260   3.633   0.650   1.119 -0.0154 -0.8301  1.3408
   30MOL    C2312261   3.943   0.722   1.279 -0.9012  0.9845 -0.2027
   30MOL    C2412262   3.981   0.844   1.363  0.0960  0.1729 -0.9847
   30MOL    C2512263   3.947   0.823   1.513 -0.0407 -0.2118 -0.6650
   30MOL    O2612264   3.839   0.861   1.549  0.6129  0.6380 -0.1171
   30MOL    O2712265   4.033   0.749   1.582 -0.2888  0.0496 -0.0384
   30MOL    C2812266   4.004   0.700   1.719  0.1492 -0.1325  0.7489
   30MOL    C2912267   3.919   0.566   1.734 -0.6822  0.2581  0.3574
   30MOL    C3012268   3.915   0.522   1.882  0.2301 -0.6124  1.0453
   30MOL    C3112269   3.830   0.398   1.905  0.3862  0.0338  0.6527
   30MOL    H3212270   3.993   0.736   1.183 -0.6184  1.3100 -0.0102
   30MOL    H3312271   3.986   0.632   1.323 -2.3821  0.1351 -0.4565
   30MOL    H3412272   3.934   0.936   1.330  0.3753  1.2729  1.5776
   30MOL    H3512273   3.951   0.780   1.771 -1.2413 -0.4499 -0.1724
   30MOL    H3612274   4.104   0.690   1.762  0.8876  1.7596 -0.4480
   30MOL    H3712275   3.827   0.583   1.678  0.5485 -0.1538 -1.8091
   30MOL    H3812276   3.966   0.482   1.683 -0.5119 -0.2563  1.3285
   30MOL    H3912277   3.877   0.604   1.942 -1.1594 -0.6947  0.2883
   30MOL    H4012278   4.020   0.510   1.910  0.7758 -1.9840 -1.3853
   30MOL    H4112279   3.726   0.428   1.893  0.0158 -1.4777  0.1019
   30MOL    H4212280   3.845   0.361   2.007 -0.6394 -1.3315  0.3053
   30MOL    H4312281   3.863   0.320   1.838  2.5203  1.4816 -0.0439
   30MOL    C4412282   4.134   0.865   1.359  0.3737 -0.5940 -0.1083
   30MOL    C4512283   4.196   0.930   1.232  0.0588  0.1256  0.3352
   30MOL    C4612284   4.101   1.021   1.149  0.3752 -0.0582  0.3316
   30MOL    O4712285   4.098   1.143   1.155 -0.1925  0.0109  0.2170
   30MOL    O4812286   4.034   0.947   1.066 -0.8546 -0.5566  0.0142
   30MOL    C4912287   3.935   0.994   0.981  0.0919  0.1249  0.5465
   30MOL    C5012288   3.984   1.078   0.859  0.6239 -0.1960  0.1576
   30MOL    C5112289   3.866   1.113   0.763  0.8301 -0.3479 -0.4796
   30MOL    C5212290   3.918   1.119   0.620  0.1680  1.2900  0.1164
   30MOL    H5312291   4.183   0.769   1.374 -1.2436 -1.3721  0.3644
   30MOL    H5412292   4.165   0.923   1.446 -1.3038 -0.8122  0.6591
   30MOL    H5512293   4.224   0.849   1.165  0.8171  1.8875 -1.5449
   30MOL    H5612294   3.879   1.068   1.038  0.9373 -0.3397  2.0014
   30MOL    H5712295   3.869   0.921   0.936 -0.8327  1.2712 -0.0030
   30MOL    H5812296   4.030   1.172   0.887 -1.4889  1.1371 -0.6978
   30MOL    H5912297   4.062   1.019   0.811  1.1855 -1.8080  2.9103
   30MOL    H6012298   3.819   1.209   0.788  0.2783 -0.6127 -0.4831
   30MOL    H6112299   3.782   1.043   0.759 -0.5529  1.2680 -0.6349
   30MOL    H6212300   3.983   1.206   0.605  0.4279  1.0558 -0.1194
   30MOL    H6312301   3.830   1.129   0.556 -0.4069  1.5788  0.9456
   30MOL    H6412302   3.973   1.031   0.586 -0.9619 -0.2750  2.2330
   30MOL    C6512303   4.333   1.001   1.262 -0.0256  0.7815  0.0820
   30MOL    C6612304   4.465   0.910   1.261  0.2167  0.1041  0.5747
   30MOL    C6712305   4.540   0.923   1.129  0.0939  0.5443 -0.4619
   30MOL    O6812306   4.652   0.983   1.119  0.1345  0.4761 -0.2306
   30MOL    O6912307   4.477   0.859   1.021  0.1336 -0.0746 -0.2977
   30MOL    C7012308   4.541   0.832   0.896 -0.1428  0.6671  0.1740
   30MOL    C7112309   4.440   0.775   0.790 -0.4846 -0.2578  0.4242
   30MOL    C7212310   4.357   0.883   0.720 -0.6588 -0.3890  0.1790
   30MOL    C7312311   4.275   0.833   0.603  0.0477  0.2718  0.1405
   30MOL    H7412312   4.333   1.060   1.354 -2.2420 -0.5788  1.0038
   30MOL    H7512313   4.351   1.075   1.183 -1.5947  1.1538  0.0539
   30MOL    H7612314   4.446   0.803   1.267  0.1007 -0.0127 -1.5596
   30MOL    H7712315   4.616   0.756   0.919 -1.7276 -0.2901  2.2361
   30MOL    H7812316   4.585   0.927   0.864 -0.4531  0.4353 -0.9530
   30MOL    H7912317   4.495   0.714   0.719 -0.4412  0.5260 -0.2232
   30MOL    H8012318   4.371   0.710   0.842 -1.8213  1.8838  1.4062
   30MOL    H8112319   4.416   0.966   0.681 -1.4379 -0.4358 -1.1081
   30MOL    H8212320   4.287   0.923   0.793 -0.4188  0.8706 -0.2715
   30MOL    H8312321   4.333   0.826   0.511 -1.6481  2.4698 -1.1631
   30MOL    H8412322   4.199   0.909   0.583  1.6896  1.4710 -1.7459
   30MOL    H8512323   4.230   0.737   0.625  0.6748 -0.4652 -1.7062
   30MOL    C8612324   4.547   0.947   1.394 -0.1962  0.7473  0.3960
   30MOL    C8712325   4.477   0.874   1.516  0.6730  0.5687  0.4819
   30MOL    C8812326   4.491   0.723   1.506 -0.2859  0.7364 -0.2243
   30MOL    O8912327   4.391   0.657   1.487 -0.5702 -0.4603  0.2452
   30MOL    O9012328   4.615   0.684   1.532  0.1567  0.0688  0.4763
   30MOL    C9112329   4.639   0.540   1.540 -0.3534  0.1814  0.7706
   30MOL    C9212330   4.779   0.517   1.598  0.2434  0.2913  0.4272
   30MOL    C9312331   4.828   0.373   1.575 -0.4334 -0.0990 -0.0693
   30MOL    C9412332   4.982   0.361   1.612 -0.1458  0.3728  0.0325
   30MOL    H9512333   4.547   1.056   1.389  0.0835  0.7293 -0.0475
   30MOL    H9612334   4.647   0.909   1.371 -1.4876 -1.2044 -2.2623
   30MOL    H9712335   4.370   0.895   1.509  0.6698  0.4237  0.0947
   30MOL    H9812336   4.629   0.502   1.439 -0.6114 -1.3497  1.3645
   30MOL    H9912337   4.559   0.495   1.597 -1.2689  2.4548  1.3583
   30MOL   H10012338   4.843   0.583   1.539  1.4960 -0.6254  0.7325
   30MOL   H10112339   4.794   0.544   1.703  1.3347 -1.8142  0.8374
   30MOL   H10212340   4.809   0.342   1.472 -2.0796  1.0460 -0.1320
   30MOL   H10312341   4.782   0.293   1.633 -0.0282 -0.3172 -0.0446
   30MOL   H10412342   5.037   0.411   1.532  0.6909  2.0173  1.6016
   30MOL   H10512343   5.016   0.258   1.596 -0.2425  0.3734 -0.1818
   30MOL   H10612344   5.020   0.397   1.707  1.2131  1.6013 -0.9463
   30MOL   C10712345   4.526   0.925   1.644  0.3489 -0.2004  0.1802
   30MOL   C10812346   4.429   0.896   1.767  0.5285  0.6619  0.2793
   30MOL   C10912347   4.484   0.780   1.846  0.2241 -0.0774  0.5175
   30MOL   O11012348   4.605   0.763   1.846  0.2748  0.1643  0.7836
   30MOL   O11112349   4.392   0.719   1.920 -0.2417 -0.3765  0.0227
   30MOL   C11212350   4.432   0.628   2.019  0.2515  0.0520  0.3505
   30MOL   C11312351   4.443   0.485   1.949  0.3593 -0.8408 -0.0794
   30MOL   C11412352   4.309   0.426   1.899 -0.7970  0.3973 -0.6030
   30MOL   C11512353   4.223   0.371   2.012 -0.8635 -0.3847 -0.4676
   30MOL   H11612354   4.520   1.032   1.625  3.7220 -0.2439 -1.6547
   30MOL   H11712355   4.633   0.911   1.660  0.1636 -1.9238 -0.0384
   30MOL   H11812356   4.331   0.858   1.738  0.0906  1.6519  0.4187
   30MOL   H11912357   4.354   0.627   2.095 -0.5274  0.5831 -0.4301
   30MOL   H12012358   4.528   0.662   2.058  0.6665  0.6766 -1.2085
   30MOL   H12112359   4.510   0.484   1.863 -0.3331  0.7225 -0.6647
   30MOL   H12212360   4.488   0.412   2.015  0.8384  0.8700  1.5213
   30MOL   H12312361   4.328   0.347   1.826 -2.9568 -1.0883  0.3516
   30MOL   H12412362   4.257   0.505   1.845 -1.5730  1.4955  1.6633
   30MOL   H12512363   4.192   0.446   2.085  0.5436  0.4370 -0.7046
   30MOL   H12612364   4.282   0.306   2.077  2.7578  1.4080 -1.8578
   30MOL   H12712365   4.127   0.332   1.977 -1.5945  1.9743 -1.1888
   30MOL   C12812366   4.402   1.014   1.861 -0.2247  0.0973  0.3151
   30MOL   C12912367   4.329   1.133   1.802 -0.1069  0.4218 -0.6535
   30MOL   C13012368   4.186   1.100   1.758  0.0619  0.8113 -0.3808
   30MOL   O13112369   4.166   1.078   1.636  0.4114 -0.1934 -0.2794
   30MOL   O13212370   4.094   1.087   1.857  0.3458 -0.3091 -0.5086
   30MOL   C13312371   3.955   1.091   1.821  0.2647 -0.2662  0.5271
   30MOL   C13412372   3.855   1.116   1.933  0.3127  0.0418  0.8091
   30MOL   C13512373   3.709   1.113   1.886 -0.3063  0.3545 -0.0167
   30MOL   C13612374   3.618   1.139   2.006 -0.0297  0.0509  0.4126
   30MOL   H13712375   4.493   1.045   1.912  0.4042 -0.7406 -0.2933
   30MOL   H13812376   4.337   0.981   1.943 -0.6174 -0.3381 -0.1699
   30MOL   H13912377   4.370   1.163   1.705 -0.8543  1.7706 -0.5670
   30MOL   H14012378   3.928   1.000   1.767  0.4076  0.3424 -0.5929
   30MOL   H14112379   3.947   1.169   1.746 -0.0702  1.1726  2.0311
   30MOL   H14212380   3.873   1.045   2.014  0.1931  0.5759  1.3063
   30MOL   H14312381   3.878   1.218   1.962 -1.4800  1.6085 -2.9683
   30MOL   H14412382   3.699   1.013   1.845 -0.1047  0.3938 -0.1637
   30MOL   H14512383   3.686   1.190   1.813  2.1710  0.3057 -0.9182
   30MOL   H14612384   3.612   1.060   2.081 -1.1658  1.8804  2.3101
   30MOL   H14712385   3.518   1.150   1.963 -0.3428 -0.3126  1.0208
   30MOL   H14812386   3.642   1.234   2.052  0.2146  0.1494  0.0816
   30MOL   C14912387   4.341   1.248   1.901  0.1146  0.4662 -0.4518
   30MOL   C15012388   4.361   1.388   1.827  0.4302 -1.1276 -0.3126
   30MOL   C15112389   4.347   1.503   1.930  0.1119  0.4612  0.3867
   30MOL   O15212390   4.375   1.489   2.050  0.1079  0.3272  0.2864
   30MOL   O15312391   4.311   1.616   1.875  0.0782  0.2378  0.2349
   30MOL   C15412392   4.299   1.735   1.947 -0.3481  0.4806 -0.5433
   30MOL   C15512393   4.192   1.820   1.887  0.5990 -0.0307  0.8526
   30MOL   C15612394   4.176   1.936   1.983 -0.4227 -0.6124 -0.5129
   30MOL   C15712395   4.068   2.036   1.933  0.0405  0.3104 -0.3101
   30MOL   H15812396   4.430   1.229   1.961  0.0536  0.7803 -0.2633
   30MOL   H15912397   4.262   1.258   1.975  1.8681 -0.7158  1.6563
   30MOL   H16012398   4.274   1.399   1.761  0.2185 -0.0255  0.1249
   30MOL   H16112399   4.398   1.778   1.960 -0.6685  0.6233  1.7131
   30MOL   H16212400   4.272   1.702   2.048 -0.8638 -0.8137 -1.0842
   30MOL   H16312401   4.229   1.845   1.788 -2.9908 -0.8754 -0.7946
   30MOL   H16412402   4.092   1.778   1.871 -0.3789  1.4406  2.8059
   30MOL   H16512403   4.270   1.989   2.000 -0.7334  0.2149 -1.3257
   30MOL   H16612404   4.155   1.891   2.080  0.8171  2.6609  1.3805
   30MOL   H16712405   4.067   2.111   2.012  0.8068 -0.6946  0.6593
   30MOL   H16812406   3.963   2.008   1.922 -0.1674  1.0195 -0.1764
   30MOL   H16912407   4.096   2.079   1.837 -1.8052  0.0134 -1.0163
   30MOL   C17012408   4.488   1.399   1.739  0.2667 -0.1257 -0.2628
   30MOL   C17112409   4.623   1.359   1.806  0.1449  0.0495  0.1032
   30MOL   C17212410   4.726   1.308   1.708 -0.0734  0.0276  0.0494
   30MOL   O17312411   4.760   1.196   1.714  0.1628  0.5455  0.3394
   30MOL   O17412412   4.765   1.401   1.619  0.0154  0.1276 -0.1307
   30MOL   C17512413   4.873   1.377   1.535  0.1200  0.9089  0.5694
   30MOL   C17612414   4.832   1.422   1.389  0.4422  0.4833  0.0894
   30MOL   C17712415   4.714   1.346   1.333 -0.8687 -0.6034 -0.1751
   30MOL   C17812416   4.671   1.401   1.194 -0.1777  0.5778  0.2894
   30MOL   H17912417   4.488   1.505   1.712  1.9688  0.6985  2.6650
   30MOL   H18012418   4.475   1.347   1.644  1.5490 -0.1673 -0.4307
   30MOL   H18112419   4.599   1.273   1.868 -0.2073  1.2404  1.6425
   30MOL   H18212420   4.890   1.269   1.531 -0.7379  0.7859 -0.0466
   30MOL   H18312421   4.970   1.425   1.544  0.6188  0.1123 -0.3998
   30MOL   H18412422   4.816   1.530   1.389 -0.6944  0.3177 -0.2796
   30MOL   H18512423   4.910   1.393   1.320 -0.1571  1.8940 -1.2068
   30MOL   H18612424   4.627   1.332   1.398  0.9981 -1.6918  2.1924
   30MOL   H18712425   4.733   1.240   1.317  0.3954 -0.1292 -1.9202
   30MOL   H18812426   4.621   1.498   1.196 -2.2187 -0.4093 -0.7000
   30MOL   H18912427   4.589   1.336   1.162 -0.3472  0.2855  1.2955
   30MOL   H19012428   4.743   1.407   1.112 -0.0974 -3.4085 -0.0303
   30MOL   C19112429   4.680   1.481   1.891  0.2569 -0.1410 -0.1051
   30MOL   C19212430   4.715   1.450   2.036  0.1164  0.1139 -0.1282
   30MOL   C19312431   4.830   1.347   2.044 -0.3641 -0.0219 -0.2057
   30MOL   O19412432   4.822   1.236   2.095 -0.3213  0.1785 -0.0578
   30MOL   O19512433   4.940   1.400   1.994 -0.2554 -0.0660  0.1193
   30MOL   C19612434   5.063   1.326   1.987 -0.1623 -1.0414  0.4097
   30MOL   C19712435   5.128   1.337   1.849  0.3323  0.3825 -0.1347
   30MOL   C19812436   5.162   1.489   1.821 -0.3199 -0.8391  0.0150
   30MOL   C19912437   5.229   1.522   1.690  0.3808  0.4039  0.6304
   30MOL   H20012438   4.615   1.569   1.891  0.1875 -0.1546 -2.2909
   30MOL   H20112439   4.767   1.518   1.836 -0.3344  1.8624  0.2514
   30MOL   H20212440   4.635   1.392   2.080 -0.2548 -0.0148 -0.9573
   30MOL   H20312441   5.049   1.220   2.010  0.0663 -1.0303  0.6063
   30MOL   H20412442   5.140   1.368   2.053  0.5219  1.7286 -2.0748
   30MOL   H20512443   5.216   1.274   1.848  0.4611  0.5718 -2.1333
   30MOL   H20612444   5.065   1.297   1.770 -0.1136 -1.0128  0.9048
   30MOL   H20712445   5.229   1.526   1.899  1.4718 -0.3955 -1.7009
   30MOL   H20812446   5.077   1.556   1.830  1.4551  1.3723  0.8227
   30MOL   H20912447   5.331   1.484   1.685  1.1353  2.5783 -2.1057
   30MOL   H21012448   5.233   1.630   1.678  0.4447  0.1688 -1.7686
   30MOL   H21112449   5.170   1.476   1.610  0.4537 -2.0132  1.9188
   30MOL   C21212450   4.738   1.575   2.119  0.2223  0.1343 -1.5563
   30MOL   C21312451   4.687   1.558   2.267  0.0344  0.3775  0.8404
   30MOL   C21412452   4.764   1.450   2.343  0.0345 -0.4000 -0.0962
   30MOL   O21512453   4.878   1.468   2.385 -0.2278 -0.3684  1.1458
   30MOL   O21612454   4.708   1.333   2.350  0.0189 -0.4296 -0.4903
   30MOL   C21712455   4.765   1.216   2.416 -0.1123  0.1823 -0.1829
   30MOL   C21812456   4.788   1.241   2.566  1.4034  0.2699  0.1750
   30MOL   C21912457   4.847   1.119   2.640 -0.4387 -0.1760  0.0175
   30MOL   C22012458   4.805   1.119   2.779  0.1583  0.4174 -0.6461
   30MOL   H22112459   4.689   1.659   2.069 -1.0744  1.1946  1.4170
   30MOL   H22212460   4.843   1.602   2.123  0.1753  0.0496  0.4767
   30MOL   H22312461   4.591   1.508   2.263  0.0602  0.3911 -0.1302
   30MOL   H22412462   4.856   1.187   2.364  0.3996 -0.4768  1.0567
   30MOL   H22512463   4.683   1.145   2.419 -1.0123  1.2041 -0.0119
   30MOL   H22612464   4.855   1.326   2.583 -0.0695  0.8191  3.6612
   30MOL   H22712465   4.689   1.264   2.605  2.4144  0.4692  2.7188
   30MOL   H22812466   4.956   1.126   2.639 -0.3845 -1.1006 -0.7506
   30MOL   H22912467   4.810   1.030   2.590  0.9289  0.2211 -1.7579
   30MOL   H23012468   4.851   1.191   2.847 -0.5333  1.7824 -1.5838
   30MOL   H23112469   4.816   1.019   2.820 -0.0499  0.8126  0.4021
   30MOL   H23212470   4.697   1.128   2.791  0.2748  1.8538 -0.6064
   30MOL   C23312471   4.689   1.682   2.358  0.6361  0.6921  0.0408
   30MOL   C23412472   4.592   1.796   2.323  0.2211  0.2970 -0.1215
   30MOL   C23512473   4.650   1.900   2.225 -0.6594  0.5408 -0.0410
   30MOL   O23612474   4.609   1.911   2.103  0.3328 -1.0136 -0.3617
   30MOL   O23712475   4.753   1.961   2.286  0.5757 -0.1973  0.1740
   30MOL   C23812476   4.814   2.071   2.218 -0.5010  0.2308  0.1872
   30MOL   C23912477   4.936   2.110   2.307  0.2517 -0.2425  0.1642
   30MOL   C24012478   5.022   2.223   2.242  0.2177 -0.0123 -0.8403
   30MOL   C24112479   5.131   2.270   2.336  0.9067  0.2225  0.8388
   30MOL   H24212480   4.793   1.715   2.359  0.5193  1.0151  1.4139
   30MOL   H24312481   4.678   1.649   2.461  3.1242  1.0995  0.4795
   30MOL   H24412482   4.598   1.842   2.422  0.0153 -2.0770  1.0465
   30MOL   H24512483   4.745   2.153   2.200 -1.1092  0.2789  2.6021
   30MOL   H24612484   4.847   2.042   2.118 -0.2636  0.5465  0.1714
   30MOL   H24712485   4.908   2.143   2.407  2.1684  0.3640  0.5283
   30MOL   H24812486   5.008   2.029   2.324  1.5267  0.8491  0.0641
   30MOL   H24912487   4.962   2.312   2.225  0.5453  0.2615 -0.5760
   30MOL   H25012488   5.067   2.176   2.154  3.1432 -0.0250  0.5951
   30MOL   H25112489   5.210   2.322   2.281  0.8379 -0.2681  0.2736
   30MOL   H25212490   5.162   2.177   2.382 -0.8668 -0.6027  0.4014
   30MOL   H25312491   5.092   2.341   2.409 -0.3966 -0.6891  1.0277
   30MOL   C25412492   4.437   1.770   2.306 -0.1013  0.1424 -0.3881
   30MOL   C25512493   4.365   1.728   2.432 -0.0785 -0.6948 -0.8709
   30MOL   C25612494   4.335   1.851   2.530 -0.4167 -0.2942  0.4498
   30MOL   O25712495   4.302   1.956   2.475  0.2404 -0.0731  0.0376
   30MOL   O25812496   4.357   1.828   2.663 -0.1517  0.1154  0.1841
   30MOL   C25912497   4.344   1.930   2.759  0.4063 -0.0670  0.2028
   30MOL   C26012498   4.252   1.879   2.870  0.3483  0.5654 -0.5151
   30MOL   C26112499   4.101   1.858   2.835 -0.0344 -1.0830 -0.1000
   30MOL   C26212500   4.021   1.763   2.930 -0.8562  0.4159 -0.0293
   30MOL   H26312501   4.423   1.704   2.220  2.2940  0.1965 -0.8608
   30MOL   H26412502   4.396   1.867   2.279 -1.9544 -0.0372  1.6921
   30MOL   H26512503   4.440   1.666   2.480  1.4597  0.2313 -2.0283
   30MOL   H26612504   4.311   2.021   2.709 -0.3929  0.1947  1.1874
   30MOL   H26712505   4.436   1.964   2.806 -0.2172  0.0365  1.3737
   30MOL   H26812506   4.289   1.782   2.903  1.1375  1.1862  0.4501
   30MOL   H26912507   4.262   1.953   2.950  1.4462  0.2940 -0.3863
   30MOL   H27012508   4.084   1.830   2.732 -1.0656  2.0264 -0.8474
   30MOL   H27112509   4.045   1.952   2.843 -3.0446 -2.8857  1.2763
   30MOL   H27212510   3.915   1.776   2.908 -0.4971  1.6066 -1.0867
   30MOL   H27312511   4.033   1.792   3.034  1.7348  1.9578 -0.7358
   30MOL   H27412512   4.057   1.661   2.914  1.7579  1.7422 -3.1697
   30MOL   C27512513   4.243   1.638   2.407  0.7330 -0.6475 -0.0193
   30MOL   C27612514   4.258   1.488   2.433 -0.7619  0.3689 -0.3615
   30MOL   C27712515   4.262   1.454   2.584  0.6418 -0.2234  0.0683
   30MOL   O27812516   4.170   1.476   2.664  0.3433  0.0160 -0.2179
   30MOL   O27912517   4.382   1.399   2.620  0.0026  0.0419  0.4976
   30MOL   C28012518   4.404   1.354   2.749  0.1024  0.2443  0.1599
   30MOL   C28112519   4.512   1.433   2.826  0.2203 -0.3758  0.2481
   30MOL   C28212520   4.465   1.578   2.858  0.0361 -0.0723 -0.5212
   30MOL   C28312521   4.553   1.649   2.954 -0.8613 -0.4388 -0.9596
   30MOL   H28412522   4.219   1.644   2.301  0.2768 -3.2173 -0.1013
   30MOL   H28512523   4.155   1.668   2.465 -0.8226  0.2913 -2.7404
   30MOL   H28612524   4.354   1.463   2.388 -0.4507  1.2577 -0.1937
   30MOL   H28712525   4.441   1.252   2.749  2.1693  0.9511  2.2098
   30MOL   H28812526   4.312   1.360   2.806  0.7358  2.0554  1.0157
   30MOL   H28912527   4.542   1.389   2.921  2.2827  1.5080  0.5226
   30MOL   H29012528   4.606   1.438   2.771  0.7834 -1.5713  1.0834
   30MOL   H29112529   4.360   1.569   2.887 -0.3945 -0.6359 -2.1694
   30MOL   H29212530   4.468   1.634   2.764  2.1168 -0.4606 -0.7043
   30MOL   H29312531   4.657   1.616   2.951 -0.9073 -0.8758  1.3488
   30MOL   H29412532   4.517   1.631   3.055  1.4442 -0.6537 -0.1463
   30MOL   H29512533   4.548   1.757   2.938  1.1589 -0.1470  0.1862
   30MOL   C29612534   4.143   1.414   2.353 -0.2354  0.0187  0.4388
   30MOL   C29712535   4.150   1.256   2.363  0.6213 -0.8552 -0.5964
   30MOL   C29812536   4.027   1.202   2.289  0.0620 -1.1929  0.4207
   30MOL   O29912537   4.023   1.195   2.164 -1.1891  0.1321 -0.2546
   30MOL   O30012538   3.918   1.181   2.375 -0.4620  0.1188  0.4096
   30MOL   C30112539   3.791   1.142   2.321 -0.0533  0.0150 -0.0025
   30MOL   C30212540   3.682   1.144   2.431  0.3134  0.0078 -0.1885
   30MOL   C30312541   3.652   1.259   2.515 -0.2313  0.3004 -0.0695
   30MOL   C30412542   3.547   1.235   2.621 -0.3716  0.7110  0.3270
   30MOL   H30512543   4.156   1.447   2.250 -0.9508 -0.2625  0.2587
   30MOL   H30612544   4.042   1.443   2.379 -1.1148  0.1676 -2.9444
   30MOL   H30712545   4.150   1.230   2.469  0.8255  3.4921  0.5628
   30MOL   H30812546   3.801   1.037   2.298  0.9294 -0.0411  0.6304
   30MOL   H30912547   3.754   1.191   2.231  1.1865  2.0036  0.5255
   30MOL   H31012548   3.588   1.125   2.378  0.2137  0.3977 -0.1539
   30MOL   H31112549   3.700   1.062   2.500 -3.9265 -1.3405 -0.5561
   30MOL   H31212550   3.615   1.344   2.457  0.6821 -0.9890 -2.5836
   30MOL   H31312551   3.740   1.307   2.557  1.8638 -2.2848 -1.3998
   30MOL   H31412552   3.583   1.173   2.702 -0.1316  0.2310 -0.1419
   30MOL   H31512553   3.451   1.198   2.583  0.6970 -1.1561 -0.6749
   30MOL   H31612554   3.513   1.327   2.668  0.4588  1.2929 -0.2026
   30MOL   C31712555   4.279   1.197   2.309  0.4628  0.0930 -0.1612
   30MOL   C31812556   4.293   1.048   2.343  0.3727 -0.1104 -0.0967
   30MOL   C31912557   4.395   0.975   2.242 -0.7913  0.4145 -0.3766
   30MOL   O32012558   4.358   0.874   2.181  0.4446 -0.2034 -0.2477
   30MOL   O32112559   4.521   1.027   2.252 -0.0845 -0.0306 -0.8376
   30MOL   C32212560   4.627   0.966   2.174  0.6155  0.6213  0.3549
   30MOL   C32312561   4.668   0.826   2.221  0.0087 -0.2257 -0.4742
   30MOL   C32412562   4.739   0.837   2.356 -0.0613  0.5852  0.2968
   30MOL   C32512563   4.785   0.688   2.392  1.0911  0.2311 -0.0480
   30MOL   H32612564   4.367   1.255   2.336  0.0665  1.0690 -0.9440
   30MOL   H32712565   4.271   1.217   2.202 -0.5222  0.5133 -0.0154
   30MOL   H32812566   4.195   1.001   2.327  0.6276 -0.9666  0.8061
   30MOL   H32912567   4.705   1.041   2.187  0.8349  0.1555  1.9167
   30MOL   H33012568   4.599   0.965   2.069 -0.3550 -0.2384  0.6097
   30MOL   H33112569   4.586   0.756   2.236  0.4670 -0.9639 -1.3350
   30MOL   H33212570   4.741   0.777   2.155 -2.1698 -2.2202 -1.5041
   30MOL   H33312571   4.673   0.874   2.434 -1.8947 -0.5869 -0.6843
   30MOL   H33412572   4.822   0.907   2.349  0.1903  0.1253 -1.5734
   30MOL   H33512573   4.856   0.690   2.475 -0.0239 -2.5528  1.0334
   30MOL   H33612574   4.832   0.631   2.313 -1.2657 -0.8468 -0.6920
   30MOL   H33712575   4.697   0.631   2.420  0.6334  0.3395 -1.2625
   30MOL   C33812576   4.346   1.029   2.489 -0.2147  0.2464 -0.0907
   30MOL   C33912577   4.363   0.884   2.538 -0.6683  0.0894  0.3381
   30MOL   C34012578   4.459   0.872   2.651  0.0015 -0.0704 -0.3672
   30MOL   O34112579   4.495   0.970   2.713  0.7065  0.5210  0.3293
   30MOL   O34212580   4.491   0.745   2.673  0.8129 -0.4724  0.7135
   30MOL   C34312581   4.611   0.724   2.752 -0.0507  0.4586  0.4753
   30MOL   C34412582   4.621   0.567   2.757  0.3172 -0.0152  0.2036
   30MOL   C34512583   4.731   0.521   2.850  0.2663  0.0491  0.3577
   30MOL   C34612584   4.731   0.372   2.866 -0.3549 -1.0430 -0.4164
   30MOL   H34712585   4.272   1.072   2.555 -0.4143  0.1260 -0.2339
   30MOL   H34812586   4.439   1.084   2.502 -0.3369 -0.1634  2.6788
   30MOL   H34912587   4.422   0.834   2.462 -0.9068 -0.3860  0.4627
   30MOL   H35012588   4.599   0.770   2.851  0.2521  0.4786  0.5047
   30MOL   H35112589   4.693   0.763   2.692 -1.2849 -1.2065 -2.3670
   30MOL   H35212590   4.522   0.540   2.795 -0.1229  3.4622  1.7218
   30MOL   H35312591   4.620   0.537   2.653 -1.0826  1.3337 -0.1981
   30MOL   H35412592   4.721   0.573   2.945 -1.5252 -0.3028  0.3745
   30MOL   H35512593   4.824   0.556   2.804  0.3979  0.6918  1.0983
   30MOL   H35612594   4.764   0.327   2.773 -1.6047 -0.0370 -1.3597
   30MOL   H35712595   4.631   0.330   2.878 -0.1031 -1.7280 -0.6517
   30MOL   H35812596   4.792   0.350   2.954 -0.9847  0.3649  0.3745
   30MOL   C35912597   4.229   0.801   2.556  0.2297  0.1764  0.1569
   30MOL   C36012598   4.156   0.830   2.690 -0.1873  0.1366 -0.5763
   30MOL   C36112599   4.054   0.949   2.675  0.0720  0.1102 -0.0765
   30MOL   O36212600   3.974   0.950   2.578 -0.7133  0.3062 -0.1945
   30MOL   O36312601   4.077   1.048   2.760 -0.2915  0.3647 -0.4914
   30MOL   C36412602   4.006   1.172   2.748 -0.0359 -0.0745  0.6371
   30MOL   C36512603   3.997   1.221   2.894  0.4990 -0.4958 -0.5400
   30MOL   C36612604   3.874   1.180   2.970  0.4585  0.3009  0.5061
   30MOL   C36712605   3.830   1.275   3.082  0.9138 -0.7736  0.2743
   30MOL   H36812606   4.238   0.695   2.532 -1.4327 -0.1266  0.8090
   30MOL   H36912607   4.156   0.831   2.480 -2.2478 -0.5515  2.1658
   30MOL   H37012608   4.229   0.862   2.764  0.8638  0.9718 -1.9574
   30MOL   H37112609   3.902   1.171   2.714  0.5783 -0.4883 -1.3166
   30MOL   H37212610   4.070   1.237   2.688  0.0519 -1.0883 -0.3852
   30MOL   H37312611   4.089   1.206   2.951 -0.3223  0.4342  1.0595
   30MOL   H37412612   3.981   1.328   2.890 -1.2522 -0.6483  1.8957
   30MOL   H37512613   3.891   1.079   3.006  2.2287 -0.0098 -1.1697
   30MOL   H37612614   3.791   1.182   2.900  0.8609  0.2614  0.0306
   30MOL   H37712615   3.748   1.224   3.133 -1.3891  1.3639 -1.1895
   30MOL   H37812616   3.788   1.373   3.061  2.5357  0.0674  0.8722
   30MOL   H37912617   3.916   1.287   3.149  0.3148 -3.3393  1.5701
   30MOL   C38012618   4.070   0.703   2.727 -1.2077  0.0027 -0.7089
   30MOL   C38112619   4.149   0.585   2.801  0.1506 -0.0673 -0.0926
   30MOL   C38212620   4.186   0.630   2.946 -0.0870 -0.3513  0.4541
   30MOL   O38312621   4.303   0.643   2.990 -0.0754 -0.1426 -0.7498
   30MOL   O38412622   4.070   0.643   3.014  0.8989  0.1894  0.3938
   30MOL   C38512623   4.073   0.689   3.149 -0.4227 -0.1703 -0.3572
   30MOL   C38612624   4.078   0.843   3.153 -0.8689 -0.1304  0.9030
   30MOL   C38712625   4.017   0.887   3.286 -0.2787  0.1043  0.2690
   30MOL   C38812626   4.009   1.036   3.304 -0.6429  0.9164  0.0528
   30MOL   H38912627   4.022   0.662   2.638 -2.0793 -0.3305 -0.0937
   30MOL   H39012628   3.983   0.727   2.788  0.0409  1.4763  0.5233
   30MOL   H39112629   4.234   0.555   2.738  1.9565  0.2643  2.1204
   30MOL   H39212630   4.150   0.634   3.203  1.5225  2.5051 -0.3569
   30MOL   H39312631   3.973   0.667   3.188 -0.3855 -0.7464 -0.5850
   30MOL   H39412632   4.180   0.875   3.131 -0.3132 -0.4880  2.8605
   30MOL   H39512633   4.019   0.880   3.069 -0.5035 -0.1324  0.6420
   30MOL   H39612634   4.076   0.838   3.363  1.3538 -0.6444 -1.4440
   30MOL   H39712635   3.914   0.853   3.293 -0.5890  0.3695 -2.3978
   30MOL   H39812636   3.969   1.084   3.215 -0.3623  2.1144  0.5741
   30MOL   H39912637   4.103   1.085   3.329 -0.7823  0.4698  1.4992
   30MOL   H40012638   3.940   1.062   3.384  1.0079  1.9640  1.1487
   30MOL   C40112639   4.069   0.456   2.795  0.2832  0.4526 -0.7082
   30MOL   C40212640   4.132   0.329   2.861 -0.4494 -0.2357 -0.2465
   30MOL   C40312641   4.273   0.288   2.809  0.4419 -0.0003 -0.1354
   30MOL   O40412642   4.364   0.368   2.799  0.1175 -0.8011 -0.9528
   30MOL   O40512643   4.278   0.163   2.785 -0.0708  0.2590 -0.8554
   30MOL   C40612644   4.395   0.090   2.740 -0.9424  0.8563  0.3032
   30MOL   C40712645   4.388   0.035   2.598 -0.7384  0.0666 -0.5817
   30MOL   C40812646   4.509   7.797   2.562  0.1620 -0.5053 -0.0074
   30MOL   C40912647   4.485   7.744   2.420 -0.0641 -0.0608 -0.1346
   30MOL   H41012648   4.060   0.423   2.692  0.5736 -0.9918 -0.2873
   30MOL   H41112649   3.962   0.469   2.815  0.1622 -2.5470  0.9905
   30MOL   H41212650   4.063   0.247   2.842 -0.4759 -0.0804 -0.8230
   30MOL   H41312651   4.403   0.012   2.815  0.4315  1.0718  0.3824
   30MOL   H41412652   4.487   0.148   2.743 -1.1140  1.1232  0.4731
   30MOL   H41512653   4.293   7.834   2.593 -0.4726 -0.4257 -0.3662
   30MOL   H41612654   4.386   0.122   2.533  0.6636  2.0018  1.8647
   30MOL   H41712655   4.529   7.716   2.632  0.0899 -0.0412  0.5520
   30MOL   H41812656   4.597   0.008   2.566  0.9328 -1.5927  0.8269
   30MOL   H41912657   4.576   7.709   2.371 -0.5210  0.7944 -1.6264
   30MOL   H42012658   4.446   7.819   2.352  0.8797  0.5208 -0.0377
   30MOL   H42112659   4.416   7.659   2.421 -0.6487  0.3972 -0.7933
   30MOL   H42212660   4.146   0.345   2.968  2.8403 -2.9474 -0.2084
   31MOL     C112661   3.720   7.531   7.704 -0.1929 -0.2560 -0.0989
   31MOL     C212662   3.851   7.607   7.659  0.0114  0.2607  0.3800
   31MOL     C312663   3.855   7.750   7.710  0.3430  0.3095 -0.2542
   31MOL     O412664   3.851   7.847   7.636  0.0149 -0.2045 -0.1791
   31MOL     O512665   3.850   7.754   7.851  0.6528  0.2390  0.0561
   31MOL     C612666   3.869   0.021   0.061  0.6078 -0.5014  0.1359
   31MOL     C712667   3.890   7.846   0.212 -0.3955  0.7498 -0.7284
   31MOL     C812668   3.766   7.803   0.294  0.6479  0.0036  0.0315
   31MOL     C912669   3.780   7.805   0.443  0.4016 -0.1777  0.3725
   31MOL    H1012670   3.712   7.502   7.809  0.0394  0.4739  0.1173
   31MOL    H1112671   3.629   7.586   7.680  0.1964  0.7041  0.6272
   31MOL    H1212672   3.842   7.614   7.551 -0.2569 -2.9461  0.1365
   31MOL    H1312673   3.775   0.076   0.054  1.5275  0.9009 -1.7870
   31MOL    H1412674   3.956   0.076   0.025 -0.0472  0.7229  0.3726
   31MOL    H1512675   3.965   7.768   0.224 -1.5492 -0.3089 -0.1508
   31MOL    H1612676   3.926   0.084   0.259 -0.1897 -0.6782  1.9807
   31MOL    H1712677   3.712   7.715   0.260  0.8086  0.0690 -0.3966
   31MOL    H1812678   3.688   0.024   0.275 -0.1046 -0.4240  1.4102
   31MOL    H1912679   3.848   7.728   0.478  2.9521  2.5728  1.7385
   31MOL    H2012680   3.688   7.794   0.499 -0.4494  0.3255 -0.8965
   31MOL    H2112681   3.830   0.047   0.462 -0.9383  0.6599 -0.1980
   31MOL    H2212682   3.719   7.434   7.652 -0.7534 -0.4238  0.2205
   31MOL    C2312683   3.984   7.537   7.698  0.4235  0.4031  0.1493
   31MOL    C2412684   4.003   7.401   7.638  0.0793  0.2073 -0.9050
   31MOL    C2512685   4.004   7.392   7.485 -0.2370 -0.5727  0.2376
   31MOL    O2612686   3.926   7.326   7.416 -0.1690 -0.5631 -0.3780
   31MOL    O2712687   4.102   7.473   7.443  0.4230  0.2441 -0.4915
   31MOL    C2812688   4.127   7.484   7.303 -0.8706 -0.4890  0.0979
   31MOL    C2912689   4.272   7.535   7.278 -0.2767 -0.2816 -0.1708
   31MOL    C3012690   4.377   7.455   7.358 -0.4268  0.7368  0.2443
   31MOL    C3112691   4.526   7.488   7.310  0.0043 -0.3811  0.3836
   31MOL    H3212692   3.999   7.540   7.806  1.2540 -0.2847  0.0581
   31MOL    H3312693   4.065   7.600   7.662 -0.9898  2.6357  0.7616
   31MOL    H3412694   3.914   7.341   7.658 -0.3526  0.2506 -2.6244
   31MOL    H3512695   4.046   7.542   7.260  1.1041  1.2246 -1.4344
   31MOL    H3612696   4.116   7.384   7.261  0.0269 -0.8731  0.7555
   31MOL    H3712697   4.303   7.541   7.173  0.1538 -1.0959 -0.0932
   31MOL    H3812698   4.280   7.632   7.328  0.9553 -0.6882  0.4376
   31MOL    H3912699   4.355   7.349   7.350  0.2162  0.7748 -2.5639
   31MOL    H4012700   4.366   7.474   7.464  0.2977  0.2807  0.4019
   31MOL    H4112701   4.520   7.595   7.292 -0.7370 -0.7359 -1.5903
   31MOL    H4212702   4.545   7.437   7.215 -0.1892 -0.8018  0.5677
   31MOL    H4312703   4.606   7.455   7.377  2.0336  0.8184 -1.3816
   31MOL    C4412704   4.123   7.332   7.712  0.2753  0.2350  0.0408
   31MOL    C4512705   4.151   7.180   7.676 -0.2465  0.6259  0.0518
   31MOL    C4612706   4.299   7.130   7.697  0.3221  0.0439 -0.1373
   31MOL    O4712707   4.359   7.141   7.804 -0.2880  0.1386 -0.1516
   31MOL    O4812708   4.359   7.087   7.584  0.1990  0.0391  0.3405
   31MOL    C4912709   4.486   7.031   7.586  0.7007  0.6158  0.2040
   31MOL    C5012710   4.590   7.144   7.573 -0.3898  0.4818  0.5003
   31MOL    C5112711   4.730   7.095   7.552  0.6183 -0.0572  0.1648
   31MOL    C5212712   4.841   7.196   7.570 -0.5884 -0.4160  0.1730
   31MOL    H5312713   4.109   7.349   7.818  2.2515  1.7448  0.0908
   31MOL    H5412714   4.202   7.390   7.664  0.2493 -1.2250 -1.8770
   31MOL    H5512715   4.123   7.160   7.572  4.1890 -1.7795 -0.7888
   31MOL    H5612716   4.497   6.958   7.506  1.2822  2.2494 -1.2575
   31MOL    H5712717   4.504   6.975   7.678 -1.2993  0.7273  0.6859
   31MOL    H5812718   4.567   7.213   7.492 -0.2156  0.7625  0.6886
   31MOL    H5912719   4.592   7.209   7.661  2.8301 -1.3699  1.8858
   31MOL    H6012720   4.752   7.042   7.459  2.7478 -0.6596  0.9841
   31MOL    H6112721   4.758   7.012   7.617  0.5070 -1.0509 -1.0349
   31MOL    H6212722   4.826   7.270   7.491 -2.2617  1.6538  2.3798
   31MOL    H6312723   4.939   7.154   7.549  0.8257  2.2976  1.0960
   31MOL    H6412724   4.835   7.244   7.668  0.1019  0.5169 -0.2316
   31MOL    C6512725   4.061   7.085   7.756 -0.2616 -0.6577 -0.2046
   31MOL    C6612726   4.009   6.950   7.694 -0.2114 -0.0121 -0.1981
   31MOL    C6712727   3.945   6.983   7.561 -0.2683  0.4800  0.3277
   31MOL    O6812728   4.012   6.973   7.456  0.2855 -0.6510  1.0685
   31MOL    O6912729   3.814   7.023   7.567 -0.3713 -0.2176 -0.1673
   31MOL    C7012730   3.747   7.055   7.446  0.4036 -0.0355  0.0721
   31MOL    C7112731   3.600   7.070   7.495 -0.3466 -0.1980  0.1521
   31MOL    C7212732   3.567   7.180   7.600 -0.0577 -0.3583  0.7296
   31MOL    C7312733   3.415   7.174   7.637  0.0411 -0.5653 -0.3923
   31MOL    H7412734   3.966   7.136   7.774 -0.3460 -0.6382 -0.7133
   31MOL    H7512735   4.101   7.069   0.003  2.5972  0.2254 -1.1728
   31MOL    H7612736   3.937   6.923   7.770  0.7164  0.1785  0.7612
   31MOL    H7712737   3.762   6.971   7.378  3.5296 -0.2546  0.9431
   31MOL    H7812738   3.778   7.143   7.389 -0.4814  0.2478  0.0250
   31MOL    H7912739   3.538   7.080   7.406 -0.7126 -1.8889  0.1969
   31MOL    H8012740   3.570   6.972   7.531  0.2205 -1.1418 -1.8338
   31MOL    H8112741   3.589   7.271   7.545 -1.3346 -1.3716 -1.5653
   31MOL    H8212742   3.643   7.174   7.677  0.5165 -3.7175  0.0095
   31MOL    H8312743   3.387   7.079   7.682 -2.3403  0.3869  0.2074
   31MOL    H8412744   3.354   7.193   7.549 -1.1695  1.6697  0.8873
   31MOL    H8512745   3.397   7.246   7.716 -0.5682 -2.0942  0.8905
   31MOL    C8612746   4.119   6.840   7.696 -0.1688 -0.1944 -0.0271
   31MOL    C8712747   4.081   6.694   7.721 -0.0718 -0.4763  0.1992
   31MOL    C8812748   4.006   6.670   0.002 -0.5164  0.0564  0.8242
   31MOL    O8912749   3.885   6.629   0.001 -0.8520  0.0547 -0.5455
   31MOL    O9012750   4.082   6.696   0.105 -0.1219  0.0718  0.6777
   31MOL    C9112751   4.015   6.714   0.227 -0.8946 -1.1728  0.3241
   31MOL    C9212752   4.046   6.851   0.297  0.1410  0.6012 -0.9883
   31MOL    C9312753   4.198   6.876   0.335  0.0905 -0.2765 -0.4640
   31MOL    C9412754   4.239   7.019   0.347  0.8657 -0.5205 -0.7108
   31MOL    H9512755   4.202   6.849   7.766  1.5131 -1.6026 -1.7709
   31MOL    H9612756   4.177   6.845   7.604  0.5280 -1.4147  0.3339
   31MOL    H9712757   4.178   6.645   7.730  1.0240  1.4296 -0.8802
   31MOL    H9812758   4.042   6.633   0.295 -0.8352 -2.0152 -0.6838
   31MOL    H9912759   3.907   6.711   0.212 -0.7635 -1.0279 -0.6891
   31MOL   H10012760   4.012   6.924   0.224 -0.6174  1.1450 -0.1152
   31MOL   H10112761   3.979   6.854   0.383 -0.6963 -1.0026 -1.5741
   31MOL   H10212762   4.267   6.821   0.271  0.1123  0.4957 -1.1168
   31MOL   H10312763   4.211   6.828   0.431 -3.0293  3.3319  1.9475
   31MOL   H10412764   4.229   7.069   0.251 -2.1965  1.4746  0.5492
   31MOL   H10512765   4.336   7.021   0.397  0.7577 -2.7053 -0.3648
   31MOL   H10612766   4.176   7.073   0.417  1.8903 -0.0022 -0.1653
   31MOL   C10712767   4.011   6.637   7.597  0.1177 -0.4570  0.0071
   31MOL   C10812768   4.086   6.633   7.462 -0.6054  0.9196  0.0760
   31MOL   C10912769   4.238   6.590   7.473  0.1221 -0.0261  0.0573
   31MOL   O11012770   4.323   6.675   7.434  0.3021  0.4310 -0.6684
   31MOL   O11112771   4.252   6.471   7.527  1.0619 -0.0237 -0.3148
   31MOL   C11212772   4.381   6.409   7.530 -0.2141 -0.1253  0.0570
   31MOL   C11312773   4.404   6.331   7.404  0.0937 -0.6360 -0.1786
   31MOL   C11412774   4.536   6.260   7.406  0.1583 -0.2935 -0.6655
   31MOL   C11512775   4.587   6.218   7.270 -0.0188 -0.4583  0.4219
   31MOL   H11612776   3.916   6.687   7.578  1.0893  1.0118 -1.0591
   31MOL   H11712777   3.973   6.535   7.609  1.1184 -0.6884  1.3598
   31MOL   H11812778   4.098   6.734   7.423 -2.0323  1.0821  0.0398
   31MOL   H11912779   4.388   6.345   7.618  1.3572 -0.4217 -0.2592
   31MOL   H12012780   4.460   6.484   7.540 -1.8266  1.3652  2.1196
   31MOL   H12112781   4.309   6.280   7.385 -0.4853  0.0002  0.9513
   31MOL   H12212782   4.417   6.407   7.328  0.4127 -0.1877  0.3164
   31MOL   H12312783   4.515   6.173   7.468  1.8604 -2.3884 -2.9502
   31MOL   H12412784   4.611   6.318   7.460 -1.6401 -0.0158  1.6306
   31MOL   H12512785   4.602   6.293   7.193 -1.1657  0.7999  1.3799
   31MOL   H12612786   4.529   6.133   7.234 -0.0739  0.7435 -2.4095
   31MOL   H12712787   4.689   6.181   7.284  0.1173  0.1502  1.0685
   31MOL   C12812788   4.024   6.542   7.355 -0.6551 -0.0849  0.1439
   31MOL   C12912789   4.104   6.539   7.215  0.4365  0.4115 -0.4568
   31MOL   C13012790   4.068   6.413   7.129 -0.5784  0.3877  0.2501
   31MOL   O13112791   3.966   6.349   7.144 -0.1783 -0.0015  0.5147
   31MOL   O13212792   4.163   6.394   7.034 -0.0211  0.7392  0.1965
   31MOL   C13312793   4.178   6.272   6.968 -0.0577 -0.0619 -0.5790
   31MOL   C13412794   4.323   6.242   6.932  0.2494 -0.2055  0.4485
   31MOL   C13512795   4.369   6.347   6.834  0.3359 -0.3804 -0.4753
   31MOL   C13612796   4.526   6.335   6.814 -0.1747 -0.2577 -0.2791
   31MOL   H13712797   3.924   6.579   7.331 -0.4267  1.2118  1.1553
   31MOL   H13812798   4.030   6.440   7.394 -1.1227  0.2358  1.0438
   31MOL   H13912799   4.208   6.512   7.232  0.6755  1.1994 -0.6264
   31MOL   H14012800   4.118   6.281   6.877  1.0135 -3.2406 -1.6690
   31MOL   H14112801   4.140   6.194   7.035  2.0084 -0.5597  0.0396
   31MOL   H14212802   4.386   6.244   7.021  0.6189  0.2606  0.1711
   31MOL   H14312803   4.337   6.142   6.891  0.4478 -0.1877  0.4744
   31MOL   H14412804   4.349   6.451   6.862  1.9876 -0.2350  0.2798
   31MOL   H14512805   4.331   6.325   6.735 -0.1026  1.4523 -0.7387
   31MOL   H14612806   4.559   6.428   6.767  0.8418 -0.9260 -0.8909
   31MOL   H14712807   4.537   6.253   6.744 -1.9379  0.4766 -1.4566
   31MOL   H14812808   4.591   6.324   6.901  1.2023 -0.1280 -1.2826
   31MOL   C14912809   4.089   6.667   7.133 -0.3460  0.4969 -0.3511
   31MOL   C15012810   3.965   6.699   7.049  0.0806 -0.3837 -0.4161
   31MOL   C15112811   3.853   6.774   7.135 -0.3810 -0.1036  0.0847
   31MOL   O15212812   3.861   6.894   7.172 -0.1119 -0.1721 -0.3879
   31MOL   O15312813   3.752   6.692   7.155  1.0804 -0.0768  0.3993
   31MOL   C15412814   3.644   6.720   7.238 -0.0976 -0.2483  0.2976
   31MOL   C15512815   3.662   6.656   7.375  0.6919 -0.3297  0.5305
   31MOL   C15612816   3.549   6.679   7.471 -0.0171 -0.4024 -0.3255
   31MOL   C15712817   3.600   6.673   7.623  0.4154  0.2268 -0.4341
   31MOL   H15812818   4.162   6.655   7.053 -0.7037  0.1402 -0.6288
   31MOL   H15912819   4.131   6.757   7.177 -0.6968 -0.5514  2.1756
   31MOL   H16012820   3.923   6.606   7.011  0.9029 -1.1133  0.4337
   31MOL   H16112821   3.550   6.685   7.195  0.3611 -1.3055  0.1503
   31MOL   H16212822   3.643   6.829   7.240  1.6102 -0.2372  0.8606
   31MOL   H16312823   3.672   6.549   7.356  0.2881  0.2074 -3.0133
   31MOL   H16412824   3.755   6.693   7.419  0.0550  0.1136  1.5156
   31MOL   H16512825   3.466   6.611   7.449 -0.5771  1.0304 -2.6931
   31MOL   H16612826   3.512   6.780   7.458 -2.6250 -0.9203  2.3442
   31MOL   H16712827   3.622   6.573   7.660  1.0675  0.7210  0.5577
   31MOL   H16812828   3.518   6.710   7.684  0.6783 -0.2864  0.2439
   31MOL   H16912829   3.676   6.751   7.632 -0.6696  1.1720  0.9252
   31MOL   C17012830   4.006   6.789   6.935 -0.0502 -0.0566  0.3743
   31MOL   C17112831   4.080   6.724   6.814  0.0429  0.2219  0.8409
   31MOL   C17212832   4.009   6.608   6.744  0.1026 -0.0266  0.7776
   31MOL   O17312833   3.890   6.607   6.728  0.6415 -0.1839 -0.0786
   31MOL   O17412834   4.093   6.504   6.708 -0.0687 -0.0787  0.1740
   31MOL   C17512835   4.037   6.396   6.630  0.1531 -0.7382 -0.3857
   31MOL   C17612836   4.060   6.424   6.473 -0.3427  0.1359  0.5779
   31MOL   C17712837   4.024   6.294   6.392 -0.8837  0.1821  0.5992
   31MOL   C17812838   4.033   6.328   6.245  0.4056 -0.0491 -0.2767
   31MOL   H17912839   4.073   6.870   6.962 -0.7836  0.4747  0.6113
   31MOL   H18012840   3.916   6.836   6.894 -1.5532 -3.6484 -0.7107
   31MOL   H18112841   4.172   6.671   6.840  0.2431  0.0086 -0.2709
   31MOL   H18212842   3.931   6.378   6.653 -0.3587  1.7335 -0.7362
   31MOL   H18312843   4.093   6.306   6.656 -1.0058 -1.5649 -0.7080
   31MOL   H18412844   3.983   6.496   6.446 -1.3547 -0.3823  1.9892
   31MOL   H18512845   4.160   6.461   6.450  0.8643 -2.6909  0.9894
   31MOL   H18612846   3.920   6.282   6.422 -0.7988 -1.7230  0.1819
   31MOL   H18712847   4.081   6.203   6.408  0.3534  0.4834 -1.8992
   31MOL   H18812848   3.999   6.243   6.185 -0.9069  0.8338 -0.8145
   31MOL   H18912849   4.138   6.338   6.218  0.9998  0.1366  1.9918
   31MOL   H19012850   3.978   6.415   6.209 -1.0905  0.1217  2.3035
   31MOL   C19112851   4.129   6.826   6.715  0.4363  0.2651 -0.2558
   31MOL   C19212852   4.247   6.924   6.758  0.3518  0.0704  0.3860
   31MOL   C19312853   4.382   6.853   6.754  0.3656  0.3060 -0.2473
   31MOL   O19412854   4.428   6.803   6.856 -0.0880 -0.1603  0.4700
   31MOL   O19512855   4.443   6.864   6.636 -0.2369 -0.6118 -0.6828
   31MOL   C19612856   4.577   6.825   6.617 -0.3400  0.0821  0.1619
   31MOL   C19712857   4.679   6.936   6.566  0.0601  0.7152  0.7090
   31MOL   C19812858   4.794   6.946   6.670  0.7299  0.3140  0.1542
   31MOL   C19912859   4.893   6.827   6.644  0.0310 -0.9557  0.6292
   31MOL   H20012860   4.040   6.882   6.687 -0.0894 -0.4738 -0.0709
   31MOL   H20112861   4.166   6.772   6.627  0.1442 -0.8287  0.2778
   31MOL   H20212862   4.221   6.954   6.860 -1.1168  2.3143 -0.6230
   31MOL   H20312863   4.571   6.751   6.537  1.0650  0.2939 -0.1617
   31MOL   H20412864   4.620   6.778   6.706 -1.2345  0.7827  0.9680
   31MOL   H20512865   4.721   6.913   6.468 -0.2662 -0.0705  0.7527
   31MOL   H20612866   4.638   7.037   6.561 -1.3719  0.0171 -3.1844
   31MOL   H20712867   4.749   6.943   6.769  0.7297  0.3083  0.1529
   31MOL   H20812868   4.845   7.037   6.639  0.9620 -0.0962 -0.6758
   31MOL   H20912869   4.972   6.815   6.718  0.0776  2.2369  1.1722
   31MOL   H21012870   4.938   6.826   6.545 -1.7648  0.2179 -0.2193
   31MOL   H21112871   4.828   6.739   6.652 -0.2284 -0.7439  0.8660
   31MOL   C21212872   4.251   7.051   6.675 -0.1509  0.4865  0.0415
   31MOL   C21312873   4.156   7.166   6.723 -0.0657 -0.2065  0.1260
   31MOL   C21412874   4.203   7.224   6.851 -0.2644  0.8450  0.3483
   31MOL   O21512875   4.294   7.306   6.853 -0.4357 -0.2761  0.4515
   31MOL   O21612876   4.145   7.164   6.954 -0.0259  0.1618 -0.0341
   31MOL   C21712877   4.180   7.211   7.091 -0.2227 -0.7263  0.4392
   31MOL   C21812878   4.269   7.116   7.166 -0.1445 -0.5928  0.2602
   31MOL   C21912879   4.415   7.074   7.109  0.1776 -0.2364 -0.1497
   31MOL   C22012880   4.511   7.006   7.206  0.6361  0.5176 -0.2814
   31MOL   H22112881   4.234   7.027   6.570 -1.3477  0.1617  0.3046
   31MOL   H22212882   4.351   7.091   6.687  1.3509 -3.9234  3.3141
   31MOL   H22312883   4.055   7.124   6.723  1.2248 -3.4568  0.6821
   31MOL   H22412884   4.082   7.210   7.137 -0.4201 -1.1629  0.0062
   31MOL   H22512885   4.224   7.311   7.095 -1.6537 -0.1108  0.8015
   31MOL   H22612886   4.285   7.161   7.264 -1.9270 -1.4515  0.9662
   31MOL   H22712887   4.215   7.021   7.165 -1.3756  0.0992  0.2067
   31MOL   H22812888   4.471   7.154   7.060 -2.1727  0.7870 -1.2445
   31MOL   H22912889   4.410   7.005   7.025 -0.0163 -0.7801  0.3044
   31MOL   H23012890   4.520   7.067   7.295  0.2814 -2.1056  1.6052
   31MOL   H23112891   4.607   6.992   7.156 -0.0182  1.6845 -1.9033
   31MOL   H23212892   4.469   6.909   7.234 -1.5043  0.6552 -2.8373
   31MOL   C23312893   4.151   7.280   6.616 -0.2348  0.2049 -0.1567
   31MOL   C23412894   4.046   7.263   6.504  0.0582 -0.6107  1.4462
   31MOL   C23512895   3.902   7.235   6.551  0.6450 -0.6469 -0.0583
   31MOL   O23612896   3.861   7.283   6.655 -0.6769  0.6954  0.2870
   31MOL   O23712897   3.830   7.144   6.468 -0.2974 -0.3219 -0.5439
   31MOL   C23812898   3.685   7.138   6.483  0.3850 -0.2568 -0.2965
   31MOL   C23912899   3.641   7.056   6.600  1.1634  0.0560  0.0060
   31MOL   C24012900   3.676   6.905   6.586 -0.2780 -1.1629  0.5252
   31MOL   C24112901   3.612   6.817   6.693  0.3271  0.0096  0.0107
   31MOL   H24212902   4.248   7.299   6.569 -0.7641 -0.2297 -1.4160
   31MOL   H24312903   4.127   7.375   6.664  0.5819  1.0978 -1.4834
   31MOL   H24412904   4.076   7.181   6.438  2.5963  1.3531  0.0274
   31MOL   H24512905   3.638   7.115   6.388 -0.3504  1.3017 -0.3246
   31MOL   H24612906   3.657   7.240   6.510 -2.1676 -1.2771  1.0779
   31MOL   H24712907   3.690   7.088   6.692  0.4242 -1.3162  0.8968
   31MOL   H24812908   3.532   7.058   6.610  1.0192 -0.4769 -1.3166
   31MOL   H24912909   3.784   6.890   6.588 -0.2902 -1.9463 -2.4849
   31MOL   H25012910   3.639   6.866   6.491  1.7468 -3.2083  0.5269
   31MOL   H25112911   3.643   6.845   6.794 -0.5957  0.8212  0.0776
   31MOL   H25212912   3.644   6.716   6.666 -2.7332 -0.2942 -2.7027
   31MOL   H25312913   3.504   6.831   6.692  0.3299  0.0076 -2.8529
   31MOL   C25412914   4.052   7.399   6.415  0.5164  0.5832 -0.0010
   31MOL   C25512915   4.009   7.379   6.270  1.1506 -0.4281 -0.4898
   31MOL   C25612916   3.888   7.468   6.223 -0.8304  0.3931 -0.2626
   31MOL   O25712917   3.901   7.549   6.133  0.3743  0.0133  0.1134
   31MOL   O25812918   3.772   7.452   6.286  0.4612  0.4785 -0.6310
   31MOL   C25912919   3.653   7.521   6.236  0.0518  0.0053  0.3056
   31MOL   C26012920   3.561   7.410   6.196 -0.9607 -0.1267 -0.0554
   31MOL   C26112921   3.597   7.349   6.056  0.3019  0.7042  0.0346
   31MOL   C26212922   3.545   7.203   6.039 -0.2860 -0.8291 -0.4433
   31MOL   H26312923   4.152   7.442   6.412  1.4945 -1.5606  1.3037
   31MOL   H26412924   3.978   7.464   6.462 -0.5954 -0.1107 -0.7719
   31MOL   H26512925   3.963   7.281   6.263  2.6993 -1.1642 -0.4043
   31MOL   H26612926   3.678   7.596   6.162  0.8810  2.6312  3.1452
   31MOL   H26712927   3.598   7.565   6.320  1.7274 -2.4627  2.8165
   31MOL   H26812928   3.568   7.327   6.266  3.1346  1.2480  1.2917
   31MOL   H26912929   3.457   7.438   6.209 -0.9732 -0.7127  1.1261
   31MOL   H27012930   3.705   7.344   6.043  0.1110  0.4261 -1.5348
   31MOL   H27112931   3.555   7.416   5.981 -0.9350  0.0228  0.1109
   31MOL   H27212932   3.585   7.133   6.112 -0.9520 -1.0240 -0.2633
   31MOL   H27312933   3.575   7.169   5.940  1.5849  0.3447 -0.3126
   31MOL   H27412934   3.436   7.197   6.043 -0.4912  1.7528 -0.9149
   31MOL   C27512935   4.133   7.384   6.180 -0.1137  0.4038 -0.0551
   31MOL   C27612936   4.250   7.286   6.214 -0.5295 -0.0492 -0.0513
   31MOL   C27712937   4.221   7.143   6.174 -0.3959  0.3715 -0.6481
   31MOL   O27812938   4.210   7.101   6.060 -0.4915  0.6250 -0.2549
   31MOL   O27912939   4.201   7.066   6.281 -0.1889  0.3507  0.7078
   31MOL   C28012940   4.176   6.925   6.288 -0.3862 -0.1196  0.0677
   31MOL   C28112941   4.031   6.895   6.333  0.0172  0.5115 -0.2679
   31MOL   C28212942   3.993   6.755   6.296 -0.3117  0.2471 -0.1107
   31MOL   C28312943   3.863   6.705   6.350  0.1135 -0.1818  0.8097
   31MOL   H28412944   4.169   7.487   6.185  1.7254 -0.2293  0.2608
   31MOL   H28512945   4.110   7.376   6.074 -2.1915 -4.0172  0.6430
   31MOL   H28612946   4.270   7.288   6.322  1.3952  1.0907 -0.4042
   31MOL   H28712947   4.255   6.874   6.343  1.2993 -0.0185 -2.1897
   31MOL   H28812948   4.197   6.898   6.185  1.9836 -1.6789  0.9268
   31MOL   H28912949   4.019   6.911   6.440  0.9130 -0.0870 -0.0657
   31MOL   H29012950   3.959   6.964   6.289 -0.1254  1.0253  0.7642
   31MOL   H29112951   4.082   6.695   6.308 -0.2151  0.2338 -0.8543
   31MOL   H29212952   3.959   6.745   6.192 -0.7052 -0.7307  0.1072
   31MOL   H29312953   3.787   6.770   6.307 -1.1577 -0.4110  2.6588
   31MOL   H29412954   3.850   6.703   6.458  1.3569  0.1118  0.9702
   31MOL   H29512955   3.833   6.609   6.307 -0.7786  0.6383 -0.4022
   31MOL   C29612956   4.392   7.339   6.161 -0.9585  0.1089 -1.0809
   31MOL   C29712957   4.458   7.444   6.257  0.4023  0.6297 -0.1248
   31MOL   C29812958   4.509   7.379   6.384 -0.8218 -0.3876 -0.4057
   31MOL   O29912959   4.550   7.267   6.385  0.1885 -0.1672 -0.1036
   31MOL   O30012960   4.491   7.457   6.493  0.4916 -0.6460  0.5190
   31MOL   C30112961   4.506   7.399   6.622 -0.3638  0.0368 -0.2192
   31MOL   C30212962   4.654   7.426   6.664  0.1778  0.2523  0.4643
   31MOL   C30312963   4.700   7.364   6.795  0.5867  0.2024 -0.0915
   31MOL   C30412964   4.848   7.394   6.826 -0.5258  0.2575  0.0357
   31MOL   H30512965   4.372   7.390   6.067  3.4195  1.1914 -1.5223
   31MOL   H30612966   4.463   7.257   6.146  1.3882  1.8319  0.2640
   31MOL   H30712967   4.378   7.510   6.288  0.1050  0.0043  0.4675
   31MOL   H30812968   4.477   7.295   6.635 -0.7838  0.4034  1.9946
   31MOL   H30912969   4.434   7.452   6.684  0.1457  0.2663  0.1800
   31MOL   H31012970   4.708   7.400   6.573 -1.4414 -0.2257 -0.3870
   31MOL   H31112971   4.655   7.534   6.676 -1.8333  0.2535  0.8680
   31MOL   H31212972   4.702   7.255   6.787 -1.5636 -0.1822  3.2987
   31MOL   H31312973   4.631   7.386   6.877  0.2586 -0.7596 -0.1085
   31MOL   H31412974   4.857   7.489   6.878  0.1631  0.0300  0.3361
   31MOL   H31512975   4.892   7.400   6.727 -2.6674 -2.0633 -1.1199
   31MOL   H31612976   4.906   7.315   6.872 -0.1075 -0.7912 -2.2194
   31MOL   C31712977   4.564   7.536   6.190 -0.1736 -0.6351 -0.2678
   31MOL   C31812978   4.542   7.607   6.053  0.2257  0.2210  0.0039
   31MOL   C31912979   4.399   7.659   6.039 -0.2919  0.7383 -0.3102
   31MOL   O32012980   4.327   7.701   6.136 -1.0910 -0.3684 -0.1117
   31MOL   O32112981   4.367   7.678   5.912  0.5616  0.2463 -0.4893
   31MOL   C32212982   4.233   7.718   5.876 -0.7778 -0.4447  0.2495
   31MOL   C32312983   4.241   7.758   5.731  0.1132  0.2400  0.0861
   31MOL   C32412984   4.321   0.032   5.707 -0.5183 -0.2911  0.2491
   31MOL   C32512985   4.242   0.157   5.759  0.0468 -0.4809 -0.1770
   31MOL   H32612986   4.661   7.488   6.179  1.0403  1.8476 -0.6626
   31MOL   H32712987   4.582   7.621   6.256  0.7095 -0.2315 -1.0231
   31MOL   H32812988   4.548   7.520   5.987 -2.0467 -1.3937  1.8606
   31MOL   H32912989   4.190   7.793   5.942 -1.2936 -0.3991 -0.1398
   31MOL   H33012990   4.179   7.624   5.888 -2.4470  0.3931 -0.5806
   31MOL   H33112991   4.301   7.687   5.673  0.1203  0.1122  0.2513
   31MOL   H33212992   4.142   7.753   5.686  0.4533  0.0392 -0.6436
   31MOL   H33312993   4.334   0.048   5.600  2.1067  0.1438  0.6081
   31MOL   H33412994   4.426   0.028   5.736 -0.0835  0.0689 -1.2443
   31MOL   H33512995   4.140   0.154   5.722 -0.6288  0.3232  1.5364
   31MOL   H33612996   4.297   0.241   5.716  1.6813 -0.9978  0.8409
   31MOL   H33712997   4.238   0.162   5.868 -0.0177  0.5847 -0.2241
   31MOL   C33812998   4.651   7.709   6.015 -0.0198  0.6337  0.0725
   31MOL   C33912999   4.761   7.653   5.915  0.3571 -0.3721 -0.1882
   31MOL   C34013000   4.859   7.560   5.977  0.0951 -0.2234 -0.0364
   31MOL   O34113001   4.961   7.591   6.034  0.6318 -0.2151  0.2471
   31MOL   O34213002   4.826   7.423   5.967 -0.1438 -0.1695 -0.5158
   31MOL   C34313003   4.913   7.324   6.025  1.3948 -0.6255  0.2165
   31MOL   C34413004   4.871   7.296   6.167 -0.9708 -0.0637 -0.6440
   31MOL   C34513005   4.945   7.192   6.240 -0.2851  0.0848  0.2770
   31MOL   C34613006   4.908   7.161   6.381 -0.8329 -0.6179  0.2504
   31MOL   H34713007   4.710   7.747   6.098 -0.4839  1.0580  0.2151
   31MOL   H34813008   4.605   7.802   5.981 -1.6732 -0.4480 -0.7416
   31MOL   H34913009   4.819   7.743   5.896 -1.2172  0.6097 -0.3782
   31MOL   H35013010   5.019   7.347   6.014  1.0114  0.8564 -0.6192
   31MOL   H35113011   4.900   7.233   5.968  2.4090 -0.2566 -0.6009
   31MOL   H35213012   4.884   7.393   6.215  0.6296 -0.2653 -0.6307
   31MOL   H35313013   4.765   7.271   6.168 -0.0183 -4.3744 -0.7954
   31MOL   H35413014   5.051   7.218   6.246 -0.3336  0.6448 -0.9980
   31MOL   H35513015   4.950   7.103   6.178  1.5947 -0.7320  1.5430
   31MOL   H35613016   4.931   7.252   6.435 -0.4025 -0.2247 -0.5823
   31MOL   H35713017   4.967   7.079   6.422  0.3004 -1.1474 -2.3461
   31MOL   H35813018   4.801   7.141   6.378 -0.8028 -0.5871 -1.8799
   31MOL   C35913019   4.700   7.601   5.774  0.1772  0.4521  0.1746
   31MOL   C36013020   4.803   7.581   5.661  0.1978  0.1936  0.1320
   31MOL   C36113021   4.750   7.467   5.570 -0.3707  0.1833  0.8600
   31MOL   O36213022   4.643   7.483   5.509 -0.0962  0.6251  0.0162
   31MOL   O36313023   4.821   7.349   5.569 -0.3245 -0.7051 -0.1981
   31MOL   C36413024   4.792   7.243   5.467  0.0988  0.4748  0.2788
   31MOL   C36513025   4.902   7.132   5.459 -0.4933 -0.3612 -0.4908
   31MOL   C36613026   5.037   7.185   5.403  0.4934 -0.9266  0.3783
   31MOL   C36713027   5.153   7.084   5.386 -0.2965  0.2214  0.3564
   31MOL   H36813028   4.626   7.670   5.735 -2.1368 -1.7771  0.4894
   31MOL   H36913029   4.640   7.511   5.783 -0.8407  0.9494 -1.4309
   31MOL   H37013030   4.900   7.549   5.699 -0.9003 -0.9231  2.0834
   31MOL   H37113031   4.790   7.284   5.366  1.5327 -0.0303  0.0381
   31MOL   H37213032   4.695   7.197   5.486  0.1942  0.4290  0.6633
   31MOL   H37313033   4.933   7.095   5.557  1.3363 -0.2022 -1.0011
   31MOL   H37413034   4.861   7.053   5.396  1.1789  0.3714 -2.5609
   31MOL   H37513035   5.073   7.259   5.474  0.5091  1.1343 -1.7267
   31MOL   H37613036   5.023   7.235   5.308 -0.7484  1.7776  1.9213
   31MOL   H37713037   5.195   7.052   5.481  0.4846  0.9858  0.2734
   31MOL   H37813038   5.238   7.107   5.321 -0.3773 -2.7916 -0.9278
   31MOL   H37913039   5.102   6.992   5.356  1.1102 -0.9023  1.3137
   31MOL   C38013040   4.814   7.715   5.591  0.2073  0.4858  0.3716
   31MOL   C38113041   4.909   7.720   5.467 -0.4412 -0.4877 -0.2851
   31MOL   C38213042   4.900   0.006   5.400  0.1840 -0.0667  0.1729
   31MOL   O38313043   4.952   0.104   5.454  0.1588  0.0395  0.2282
   31MOL   O38413044   4.839   0.003   5.279  0.2250 -0.1087  0.6496
   31MOL   C38513045   4.834   0.126   5.211 -0.5534 -0.0357 -0.1657
   31MOL   C38613046   4.683   0.163   5.209  0.2339  0.0185 -0.2036
   31MOL   C38713047   4.629   0.209   5.345 -0.1601  0.4975  0.1792
   31MOL   C38813048   4.482   0.236   5.375  0.7600 -0.6271  0.7256
   31MOL   H38913049   4.848   7.788   5.664  0.2262  0.3979  0.4515
   31MOL   H39013050   4.716   7.752   5.563  0.9980  1.5104 -1.0572
   31MOL   H39113051   4.870   7.649   5.394  0.9042  0.2739 -1.7991
   31MOL   H39213052   4.862   0.122   5.106  0.1056  0.1273 -0.0010
   31MOL   H39313053   4.895   0.207   5.251 -0.3199 -0.2331 -0.1220
   31MOL   H39413054   4.684   0.249   5.143  1.7972 -0.1165 -0.3748
   31MOL   H39513055   4.626   0.083   5.161  0.2502 -0.2615  0.2401
   31MOL   H39613056   4.686   0.298   5.371 -0.1253  0.5362 -0.0295
   31MOL   H39713057   4.664   0.126   5.406  0.7655 -0.9299 -2.1908
   31MOL   H39813058   4.454   0.326   5.321 -0.2396 -1.3266  0.0628
   31MOL   H39913059   4.467   0.264   5.479 -0.0850  1.1684  0.1352
   31MOL   H40013060   4.409   0.163   5.340 -0.7980 -0.5409  3.6682
   31MOL   C40113061   5.062   7.678   5.489 -0.6688 -0.2368 -0.0590
   31MOL   C40213062   5.158   7.690   5.367 -0.6532 -0.6220  0.6058
   31MOL   C40313063   5.162   7.559   5.291  0.4307 -0.2145  0.2089
   31MOL   O40413064   5.060   7.486   5.287 -0.6855 -0.3850 -0.5884
   31MOL   O40513065   5.286   7.523   5.251 -0.4222 -0.4908  0.2202
   31MOL   C40613066   5.310   7.387   5.213 -0.0457  0.1805 -0.8325
   31MOL   C40713067   5.277   7.364   5.066  0.1081 -0.5215 -0.0302
   31MOL   C40813068   5.316   7.228   5.010 -0.2258  0.0811 -0.4191
   31MOL   C40913069   5.230   7.202   4.882 -0.0258 -0.7549 -0.4578
   31MOL   H41013070   5.068   7.575   5.522 -0.9772 -0.7254 -1.4748
   31MOL   H41113071   5.114   7.739   5.563 -0.5967  0.3622 -0.5940
   31MOL   H41213072   5.259   7.720   5.394 -0.1527 -2.1310  0.4631
   31MOL   H41313073   5.264   7.322   5.287  0.6201 -1.1973 -1.6079
   31MOL   H41413074   5.418   7.384   5.226 -0.2566  1.8278  1.4355
   31MOL   H41513075   5.172   7.390   5.053  0.8418  0.5999 -4.3572
   31MOL   H41613076   5.328   7.433   4.999  0.1097 -3.2265 -2.9633
   31MOL   H41713077   5.295   7.149   5.082 -1.6183 -0.0500 -0.9535
   31MOL   H41813078   5.422   7.226   4.985 -0.6968  0.0602 -2.4876
   31MOL   H41913079   5.123   7.207   4.900  0.0678  0.1307 -0.0752
   31MOL   H42013080   5.266   7.104   4.850 -0.5691 -1.1327  0.0858
   31MOL   H42113081   5.247   7.261   4.792 -0.2427  1.1935  0.7398
   31MOL   H42213082   5.120   7.766   5.298  0.2157 -1.2378 -0.5861
   32MOL     C113083   0.965   3.120   6.440  0.1050  0.6806 -0.1006
   32MOL     C213084   0.962   3.274   6.446 -0.4070  0.1470 -0.3361
   32MOL     C313085   1.034   3.330   6.323 -0.0659 -0.7573 -0.0361
   32MOL     O413086   1.157   3.355   6.332  0.4238  0.0419 -0.2137
   32MOL     O513087   0.961   3.345   6.212 -0.8354  0.3128 -0.1364
   32MOL     C613088   1.025   3.392   6.093 -0.3851  0.1581 -1.2486
   32MOL     C713089   1.096   3.289   6.008 -0.9235 -0.0218  0.1737
   32MOL     C813090   1.154   3.357   5.882  0.8015 -0.1664  0.4599
   32MOL     C913091   1.217   3.261   5.788  0.1049  0.1760 -0.3225
   32MOL    H1013092   1.057   3.080   6.397 -0.3967 -0.9830  0.3433
   32MOL    H1113093   0.966   3.076   6.540  1.3688 -4.4888 -2.2615
   32MOL    H1213094   1.011   3.296   6.541 -1.3905 -2.6614  0.8807
   32MOL    H1313095   1.089   3.475   6.124  0.2176 -0.3387 -1.1537
   32MOL    H1413096   0.950   3.439   6.030  0.0340  2.3636 -0.1515
   32MOL    H1513097   1.185   3.258   6.062  1.0169  1.4038 -2.1044
   32MOL    H1613098   1.031   3.205   5.984  0.1154 -0.6403 -0.5251
   32MOL    H1713099   1.223   3.439   5.903  1.3803 -0.6862  0.6024
   32MOL    H1813100   1.063   3.401   5.842  1.2839 -1.1869 -1.8171
   32MOL    H1913101   1.303   3.209   5.830  0.4276  0.5359 -0.5318
   32MOL    H2013102   1.249   3.323   5.704  1.3589 -1.5103 -1.1072
   32MOL    H2113103   1.142   3.190   5.754  1.3100 -1.5716  0.6230
   32MOL    H2213104   0.883   3.076   6.384 -1.5016 -0.1371  2.7511
   32MOL    C2313105   0.815   3.329   6.455 -0.3253 -1.0225 -0.5651
   32MOL    C2413106   0.734   3.291   6.584  0.3320  0.1032 -0.4195
   32MOL    C2513107   0.814   3.316   6.706 -0.5669 -0.1051  0.2430
   32MOL    O2613108   0.867   3.424   6.725  0.0174 -0.1990 -0.2194
   32MOL    O2713109   0.819   3.218   6.796 -0.2236 -0.2457 -0.2494
   32MOL    C2813110   0.864   3.246   6.927  0.0916 -0.5050  0.0621
   32MOL    C2913111   0.809   3.142   7.027  0.5069  0.2929 -0.4753
   32MOL    C3013112   0.895   3.127   7.150  0.5909  0.7721  0.9918
   32MOL    C3113113   0.861   2.998   7.228  0.1765 -0.7139 -0.0822
   32MOL    H3213114   0.749   3.299   6.374 -0.8058 -0.4936 -0.3727
   32MOL    H3313115   0.809   3.437   6.443  0.4748 -0.8882  0.1508
   32MOL    H3413116   0.718   3.184   6.570  2.7065 -0.2390 -0.7156
   32MOL    H3513117   0.830   3.344   6.961  1.4343  1.6289 -4.3941
   32MOL    H3613118   0.973   3.250   6.930  0.0558 -0.9590  2.1973
   32MOL    H3713119   0.707   3.163   7.060  0.4927 -1.1329  0.3884
   32MOL    H3813120   0.792   3.050   6.971  1.0944  0.1459 -0.4113
   32MOL    H3913121   0.870   3.216   7.208  0.4684  1.7840 -0.5794
   32MOL    H4013122   0.998   3.126   7.114 -0.0627 -0.6920 -0.9233
   32MOL    H4113123   0.902   2.910   7.177  2.0455 -1.5101  2.6638
   32MOL    H4213124   0.758   2.986   7.262  0.0309  2.2993  0.7046
   32MOL    H4313125   0.918   3.002   7.321  0.5636  1.4700 -0.3843
   32MOL    C4413126   0.594   3.370   6.593 -0.2722 -0.3694  0.3202
   32MOL    C4513127   0.488   3.318   6.694  0.1888 -0.2651 -0.6960
   32MOL    C4613128   0.516   3.365   6.834 -0.4350  0.0982 -0.1421
   32MOL    O4713129   0.534   3.288   6.923 -0.0110 -0.3140  0.2544
   32MOL    O4813130   0.522   3.503   6.841 -0.1801  0.3015 -0.2456
   32MOL    C4913131   0.590   3.566   6.953 -0.2798 -0.2215  0.4059
   32MOL    C5013132   0.712   3.659   6.912 -0.8427  0.9557 -0.0061
   32MOL    C5113133   0.824   3.648   7.013  0.5809  0.3732  0.3330
   32MOL    C5213134   0.930   3.744   6.983 -0.6487 -0.2942  0.2807
   32MOL    H5313135   0.543   3.365   6.497  1.0865  1.3227 -0.5067
   32MOL    H5413136   0.606   3.478   6.591 -2.7109 -0.0368  1.8262
   32MOL    H5513137   0.498   3.209   6.699 -1.0685 -0.3002  2.6014
   32MOL    H5613138   0.621   3.486   7.020 -2.5300  0.7865  2.7373
   32MOL    H5713139   0.523   3.624   7.017  0.2833  1.2167 -0.2876
   32MOL    H5813140   0.745   3.622   6.815  0.9597 -0.2509  1.0352
   32MOL    H5913141   0.680   3.762   6.894 -0.0119  1.4704  1.4387
   32MOL    H6013142   0.856   3.544   7.012  0.8614  0.4645 -0.4691
   32MOL    H6113143   0.787   3.673   7.112  0.1387 -3.6989  1.3041
   32MOL    H6213144   0.976   3.718   6.888  2.1789  0.8344  1.3008
   32MOL    H6313145   1.006   3.748   7.061 -1.1735  2.0794  0.6931
   32MOL    H6413146   0.884   3.843   6.977  2.1985  0.9899 -0.9696
   32MOL    C6513147   0.342   3.342   6.647 -0.1175 -0.3533 -0.1576
   32MOL    C6613148   0.235   3.269   6.731  0.4082 -0.3730 -0.0876
   32MOL    C6713149   0.103   3.342   6.720  0.2322 -0.0295 -0.9983
   32MOL    O6813150   0.034   3.331   6.616 -0.3807 -0.4785  0.1374
   32MOL    O6913151   0.070   3.408   6.827  0.0187  0.1538 -0.5462
   32MOL    C7013152   7.787   3.446   6.848 -0.0775 -0.9275 -0.0054
   32MOL    C7113153   7.791   3.600   6.825  0.5523  0.1588 -1.1679
   32MOL    C7213154   7.655   3.654   6.854  0.0476  0.1472  0.1642
   32MOL    C7313155   7.637   3.812   6.848  0.7120 -0.4603 -0.0932
   32MOL    H7413156   0.333   3.314   6.542  0.3789  0.1163 -0.3262
   32MOL    H7513157   0.323   3.447   6.667 -2.2814 -1.2033  2.6541
   32MOL    H7613158   0.273   3.279   6.832  1.3369 -1.0305 -0.3641
   32MOL    H7713159   7.767   3.411   6.950  2.9059 -0.5038  0.7920
   32MOL    H7813160   7.712   3.400   6.784 -1.3490  0.6932  0.3027
   32MOL    H7913161   0.007   3.651   6.893 -0.8500  1.0541 -0.3711
   32MOL    H8013162   7.825   3.621   6.724  0.9864  0.3924 -0.9765
   32MOL    H8113163   7.620   3.609   6.947 -3.8561 -0.7743 -1.6407
   32MOL    H8213164   7.590   3.617   6.774 -1.0154  0.1669  1.0066
   32MOL    H8313165   7.533   3.841   6.837  0.7327 -1.0660 -1.9622
   32MOL    H8413166   7.677   3.841   6.751  0.4828 -1.7817 -0.5979
   32MOL    H8513167   7.665   3.877   6.931 -0.8396  1.1929 -0.8350
   32MOL    C8613168   0.220   3.116   6.699 -0.1771 -0.1197  0.5113
   32MOL    C8713169   0.134   3.029   6.792  0.3966  0.4314 -0.3860
   32MOL    C8813170   0.151   3.058   6.942 -0.1908  0.2366  0.0664
   32MOL    O8913171   0.058   3.098   7.000 -0.0525 -0.3504 -0.1122
   32MOL    O9013172   0.281   3.035   6.996  0.6111  0.3280 -0.8455
   32MOL    C9113173   0.300   3.073   7.129 -0.6589  0.2617 -1.1217
   32MOL    C9213174   0.346   2.964   7.231 -0.0287  0.0513 -0.0451
   32MOL    C9313175   0.366   3.025   7.372 -0.5408 -0.2971  0.6488
   32MOL    C9413176   0.424   2.924   7.472 -0.1498  0.2033 -0.2278
   32MOL    H9513177   0.320   3.072   6.702 -0.2457 -0.2281  1.2760
   32MOL    H9613178   0.181   3.118   6.597  1.9993 -0.1072 -0.3441
   32MOL    H9713179   0.186   2.935   6.778 -0.8778  0.1697 -3.6921
   32MOL    H9813180   0.219   3.133   7.170 -0.8893  0.5815 -2.0303
   32MOL    H9913181   0.386   3.141   7.127  2.1989 -2.9772  2.3568
   32MOL   H10013182   0.265   2.894   7.249 -0.8220  1.5404  2.4179
   32MOL   H10113183   0.430   2.911   7.184  0.6734  0.0297  1.2098
   32MOL   H10213184   0.276   3.070   7.414 -0.8553  1.0729 -1.4396
   32MOL   H10313185   0.450   3.094   7.361 -0.1975  0.1379  4.9279
   32MOL   H10413186   0.461   2.979   7.558  1.5636 -1.0004 -0.1717
   32MOL   H10513187   0.500   2.865   7.420 -0.2118 -0.7782  0.7812
   32MOL   H10613188   0.346   2.857   7.508 -0.5235  1.0943  0.6427
   32MOL   C10713189   7.836   3.014   6.746  0.3495  0.2487 -0.1859
   32MOL   C10813190   7.830   2.925   6.614  0.5117 -1.3286  0.3276
   32MOL   C10913191   0.014   2.783   6.644 -0.3911 -0.0520 -0.3858
   32MOL   O11013192   0.088   2.714   6.578 -0.4400 -0.0823  0.5347
   32MOL   O11113193   7.817   2.736   6.758 -0.0938 -0.2853  0.2606
   32MOL   C11213194   7.843   2.613   6.810 -0.5210 -0.7099  0.8022
   32MOL   C11313195   7.727   2.584   6.908 -0.4389  0.2764  0.5387
   32MOL   C11413196   7.611   2.524   6.831  0.1067 -0.3278  0.8398
   32MOL   C11513197   7.512   2.456   6.921 -0.1975  0.2805  0.5073
   32MOL   H11613198   7.788   3.109   6.722 -2.8560 -1.4872 -0.9658
   32MOL   H11713199   7.766   2.967   6.814  1.0135  1.7833  1.5911
   32MOL   H11813200   0.046   2.966   6.541 -0.7229  0.4301  0.0960
   32MOL   H11913201   0.085   2.610   6.864 -0.6653 -0.6788  1.0573
   32MOL   H12013202   7.844   2.536   6.733 -0.6649  0.3192 -0.2486
   32MOL   H12113203   7.769   2.508   6.974  2.2539  0.5547 -0.7445
   32MOL   H12213204   7.702   2.658   6.984  1.3172  1.9421 -0.4506
   32MOL   H12313205   7.652   2.440   6.775 -2.0351 -0.7236 -0.2091
   32MOL   H12413206   7.558   2.594   6.766 -1.1344 -0.1470  2.0255
   32MOL   H12513207   7.575   2.409   6.996 -0.4556 -0.1971  0.4242
   32MOL   H12613208   7.448   2.383   6.871 -0.3708  0.8842 -0.1843
   32MOL   H12713209   7.446   2.532   6.963 -0.6849 -0.2222  0.6426
   32MOL   C12813210   7.691   2.923   6.545 -0.1763  0.3101 -0.0554
   32MOL   C12913211   7.690   2.943   6.393  0.4498 -0.1270 -0.5022
   32MOL   C13013212   7.781   2.834   6.325 -1.7897 -0.0490  0.0873
   32MOL   O13113213   7.741   2.719   6.311 -0.3025  0.4391  0.0068
   32MOL   O13213214   0.045   2.875   6.301 -0.5760  0.0848  0.0931
   32MOL   C13313215   0.138   2.771   6.267 -0.2073  0.7719 -0.1668
   32MOL   C13413216   0.281   2.823   6.244 -1.1019 -0.3449 -0.3711
   32MOL   C13513217   0.342   2.869   6.374 -0.0650  0.9582  0.1984
   32MOL   C13613218   0.487   2.925   6.355 -0.0782 -0.6275  0.3676
   32MOL   H13713219   7.634   3.004   6.591  1.2516  0.6741  1.1426
   32MOL   H13813220   7.644   2.828   6.572 -2.5210  1.3091 -0.5097
   32MOL   H13913221   7.734   3.036   6.360 -0.0109  0.5736  0.8062
   32MOL   H14013222   0.101   2.726   6.175  0.1542  1.1691 -0.5060
   32MOL   H14113223   0.140   2.688   6.337  1.6348 -0.7608 -1.9719
   32MOL   H14213224   0.355   2.749   6.213 -1.8940 -1.1571 -0.3377
   32MOL   H14313225   0.274   2.899   6.166 -0.2191  0.6548  0.4971
   32MOL   H14413226   0.329   2.782   6.439 -0.5238  1.9355  1.4405
   32MOL   H14513227   0.282   2.945   6.423  2.7859  2.8357  0.9310
   32MOL   H14613228   0.550   2.944   6.442 -0.6447  1.6624  0.3143
   32MOL   H14713229   0.505   3.021   6.307  1.5783  0.8721  3.8355
   32MOL   H14813230   0.548   2.858   6.295  2.1400  0.9940  0.7439
   32MOL   C14913231   7.538   2.952   6.343 -0.1556  0.0684 -0.0038
   32MOL   C15013232   7.540   2.959   6.191 -0.1614 -0.0846  0.1995
   32MOL   C15113233   7.406   2.906   6.124 -0.2924 -0.2608  0.4329
   32MOL   O15213234   7.298   2.970   6.124  0.1318 -0.6984  0.3624
   32MOL   O15313235   7.417   2.786   6.083  0.0700 -0.3081  0.0833
   32MOL   C15413236   7.315   2.722   6.012 -0.0227  0.0417 -0.0728
   32MOL   C15513237   7.340   2.734   5.858  0.4920  0.6553  0.0748
   32MOL   C15613238   7.239   2.649   5.789 -0.3283  0.7329  0.6937
   32MOL   C15713239   7.240   2.670   5.639 -0.4261  0.2090 -0.0321
   32MOL   H15813240   7.477   3.026   6.394 -1.5243 -0.4629 -0.8658
   32MOL   H15913241   7.490   2.856   6.364  1.7230 -1.1603 -1.1960
   32MOL   H16013242   7.618   2.893   6.154  0.4380  1.6058 -1.6459
   32MOL   H16113243   7.219   2.769   6.036 -0.9443 -1.6304 -0.4092
   32MOL   H16213244   7.298   2.622   6.052 -0.4371  0.1368 -0.0035
   32MOL   H16313245   7.323   2.838   5.828  1.5844  1.0895  0.9440
   32MOL   H16413246   7.443   2.710   5.831  0.1197 -2.1677  1.0557
   32MOL   H16513247   7.137   2.679   5.816 -0.3946  0.0668  1.2118
   32MOL   H16613248   7.269   2.548   5.816  1.1961  0.5700 -1.5333
   32MOL   H16713249   7.248   2.776   5.615 -0.9458  0.3855  0.5799
   32MOL   H16813250   7.153   2.626   5.589  1.5271 -2.1499 -1.4947
   32MOL   H16913251   7.329   2.622   5.599  0.8556  1.5230  1.2286
   32MOL   C17013252   7.584   3.092   6.134 -0.2232 -0.0376  0.0728
   32MOL   C17113253   7.600   3.119   5.987  0.0996 -0.6680  0.3276
   32MOL   C17213254   7.585   3.266   5.947 -1.1386 -0.0700  0.4204
   32MOL   O17313255   7.583   3.355   6.039 -0.6326  0.3735  0.0092
   32MOL   O17413256   7.553   3.279   5.817  0.5460  0.1700 -0.1217
   32MOL   C17513257   7.515   3.407   5.769 -0.0118 -0.6295  1.0035
   32MOL   C17613258   7.638   3.471   5.729 -0.0629  0.0060 -0.2258
   32MOL   C17713259   7.601   3.600   5.658 -0.4749 -0.4523 -0.0071
   32MOL   C17813260   7.719   3.672   5.584  0.0916 -0.2014  0.9702
   32MOL   H17913261   7.681   3.110   6.181 -0.4793  1.0575  0.1923
   32MOL   H18013262   7.507   3.159   6.172 -0.0360  0.3391 -0.2106
   32MOL   H18113263   7.522   3.065   5.934  1.7234 -0.2221 -2.6266
   32MOL   H18213264   7.464   3.474   5.837  2.0550  1.7718  0.2586
   32MOL   H18313265   7.453   3.396   5.680  2.6667 -1.4323 -0.8602
   32MOL   H18413266   7.705   3.493   5.812  1.4469  1.0776 -1.6932
   32MOL   H18513267   7.705   3.413   5.666  1.7990  1.9878 -0.1440
   32MOL   H18613268   7.572   3.663   5.741 -1.3916  1.3593 -1.6607
   32MOL   H18713269   7.519   3.596   5.585 -0.8568  1.0740  0.3367
   32MOL   H18813270   7.692   3.741   5.504  1.9928  0.5348  0.9336
   32MOL   H18913271   7.772   3.598   5.525 -1.7044  1.3696 -2.7405
   32MOL   H19013272   7.797   3.710   5.651  0.0359 -0.2058  1.0362
   32MOL   C19113273   7.731   3.067   5.930  0.0398  0.4770  0.1533
   32MOL   C19213274   7.724   3.030   5.781  0.2385  0.4216  0.3179
   32MOL   C19313275   0.008   3.051   5.721 -0.1345  0.3897  0.4178
   32MOL   O19413276   0.080   2.955   5.683  0.5759  0.1430  0.6506
   32MOL   O19513277   0.049   3.175   5.724 -0.4157 -0.5840 -0.3840
   32MOL   C19613278   0.174   3.210   5.673 -0.6724 -0.4010 -0.3128
   32MOL   C19713279   0.204   3.359   5.702  0.8404  0.2965  0.3327
   32MOL   C19813280   0.233   3.387   5.843 -0.3156  0.2375 -1.2131
   32MOL   C19913281   0.294   3.529   5.851 -0.0966 -0.3819 -0.0867
   32MOL   H20013282   7.762   2.985   5.994  1.3289 -0.4696 -1.6357
   32MOL   H20113283   7.806   3.144   5.947  1.3634 -1.1575  1.9041
   32MOL   H20213284   7.668   3.105   5.725  0.3940  0.8908  0.7769
   32MOL   H20313285   0.165   3.185   5.568  1.3406 -0.6777 -0.4366
   32MOL   H20413286   0.255   3.147   5.709 -2.2510 -1.1162  2.1464
   32MOL   H20513287   0.288   3.385   5.638 -0.1784 -0.0361 -1.1942
   32MOL   H20613288   0.126   3.427   5.667  0.9906 -0.1265 -0.8690
   32MOL   H20713289   0.293   3.308   5.888  0.3203  0.3621 -1.8433
   32MOL   H20813290   0.138   3.391   5.897  1.2415  0.7370  1.5937
   32MOL   H20913291   0.396   3.538   5.814  0.0234 -0.2718  0.2660
   32MOL   H21013292   0.279   3.581   5.946  2.8309 -1.0127  0.7698
   32MOL   H21113293   0.241   3.587   5.775 -1.7766  1.7606  2.6251
   32MOL   C21213294   7.652   2.892   5.760  0.0401  0.5807 -0.1111
   32MOL   C21313295   7.608   2.845   5.616 -0.4793 -0.0178 -0.1429
   32MOL   C21413296   7.536   2.959   5.541  0.3638  0.1702 -0.3879
   32MOL   O21513297   7.568   3.006   5.431  0.6646 -0.4701 -0.3860
   32MOL   O21613298   7.423   2.994   5.606 -0.2298  0.0682  0.0107
   32MOL   C21713299   7.337   3.098   5.562 -0.0236 -0.1157 -0.6852
   32MOL   C21813300   7.201   3.098   5.635  0.5205  0.2037 -0.1719
   32MOL   C21913301   7.214   3.141   5.789 -0.2169  0.5163  1.2058
   32MOL   C22013302   7.085   3.097   5.863 -0.8369 -0.3014 -0.1167
   32MOL   H22113303   7.569   2.881   5.831  1.2946 -0.9980  1.1569
   32MOL   H22213304   7.720   2.818   5.802  1.4558  1.3850 -0.9301
   32MOL   H22313305   7.539   2.762   5.632 -1.7201  1.1665  0.7410
   32MOL   H22413306   7.316   3.080   5.456  2.1675  0.6142 -1.2679
   32MOL   H22513307   7.388   3.192   5.582  0.0142 -0.2810 -0.0234
   32MOL   H22613308   7.122   3.161   5.597 -1.2692 -1.1191  1.2660
   32MOL   H22713309   7.154   3.000   5.623  1.3195  0.0075 -1.8616
   32MOL   H22813310   7.234   3.248   5.786 -0.2845  0.4983 -1.7509
   32MOL   H22913311   7.308   3.101   5.826  0.8173  2.6951  0.9910
   32MOL   H23013312   7.063   2.990   5.863 -1.0062 -0.2684 -0.5312
   32MOL   H23113313   6.994   3.144   5.826 -1.5053 -0.4270  1.3443
   32MOL   H23213314   7.093   3.128   5.967 -0.9352 -0.2145 -0.1338
   32MOL   C23313315   7.724   2.775   5.540  0.6142 -0.1423 -0.0175
   32MOL   C23413316   7.677   2.677   5.427  0.3266  0.9305 -0.0833
   32MOL   C23513317   7.592   2.736   5.314 -0.2817 -0.1220  0.6412
   32MOL   O23613318   7.474   2.706   5.313  0.2862  0.3199  0.6916
   32MOL   O23713319   7.658   2.821   5.232  0.2115 -0.1823 -0.1640
   32MOL   C23813320   7.573   2.872   5.127  0.6118 -1.3315 -0.0067
   32MOL   C23913321   7.640   2.990   5.061  0.9629  0.0622  0.1258
   32MOL   C24013322   7.584   3.030   4.921  0.3292  0.0032  0.5959
   32MOL   C24113323   7.643   3.152   4.849 -0.2714  0.1289  0.0400
   32MOL   H24213324   7.775   2.706   5.606  1.8032  1.5367  0.8503
   32MOL   H24313325   7.802   2.837   5.495 -0.7342  1.8852  0.3745
   32MOL   H24413326   7.613   2.613   5.487 -0.5768  2.1317  0.2492
   32MOL   H24513327   7.475   2.904   5.162  0.2572 -0.9083 -1.3696
   32MOL   H24613328   7.556   2.793   5.054 -0.6957 -0.0546 -1.1105
   32MOL   H24713329   7.618   3.077   5.123 -0.3385 -0.4200  0.3519
   32MOL   H24813330   7.748   2.980   5.059  0.8832 -1.2309  1.1658
   32MOL   H24913331   7.475   3.039   4.931  0.2698  0.7070 -0.5640
   32MOL   H25013332   7.618   2.949   4.856 -0.7255 -0.6496  0.8308
   32MOL   H25113333   7.750   3.145   4.867 -0.1384 -2.1360 -1.4578
   32MOL   H25213334   7.611   3.238   4.909  3.2562  1.3816  0.2113
   32MOL   H25313335   7.609   3.167   4.747 -1.5521  3.1228  0.8230
   32MOL   C25413336   7.795   2.592   5.372 -0.2152 -0.2549  0.6722
   32MOL   C25513337   7.852   2.479   5.470  0.5866  0.1447  0.7566
   32MOL   C25613338   7.743   2.382   5.520 -0.5309 -0.4855 -0.9039
   32MOL   O25713339   7.715   2.383   5.638 -0.2694  0.2822 -0.4723
   32MOL   O25813340   7.672   2.319   5.416  0.5721  0.2429  0.2298
   32MOL   C25913341   7.560   2.241   5.446 -0.3781  0.5581  0.1828
   32MOL   C26013342   7.438   2.327   5.428 -0.5295 -0.5449  0.1345
   32MOL   C26113343   7.308   2.246   5.468 -0.0367  0.2123 -0.8055
   32MOL   C26213344   7.183   2.328   5.415 -0.3608  0.3763 -0.7120
   32MOL   H26313345   0.023   2.652   5.330 -1.9002 -0.1849 -2.6334
   32MOL   H26413346   7.768   2.546   5.277  1.3681  0.9393 -0.3704
   32MOL   H26513347   0.041   2.544   5.546  0.2880  1.8832 -0.5485
   32MOL   H26613348   7.567   2.211   5.550  0.4174 -2.1320 -0.6115
   32MOL   H26713349   7.560   2.146   5.392  0.7546  0.3176  0.5971
   32MOL   H26813350   7.448   2.410   5.498 -0.3324  0.1246 -0.6858
   32MOL   H26913351   7.433   2.369   5.328  0.6374 -0.2193  0.2051
   32MOL   H27013352   7.305   2.218   5.574 -0.5402 -0.6758 -1.0527
   32MOL   H27113353   7.312   2.151   5.416  0.0056 -0.1006 -0.2298
   32MOL   H27213354   7.097   2.262   5.426 -0.0932 -0.2606 -2.2525
   32MOL   H27313355   7.168   2.329   5.307 -1.7110 -2.8389 -0.6190
   32MOL   H27413356   7.156   2.419   5.468 -0.3749 -0.7152  1.1924
   32MOL   C27513357   0.116   2.396   5.422 -0.0111  0.3583 -0.1594
   32MOL   C27613358   0.256   2.458   5.454 -0.0604 -0.1687  0.4348
   32MOL   C27713359   0.299   2.425   5.597  0.1077 -0.4153  0.3143
   32MOL   O27813360   0.386   2.339   5.626 -0.3532 -0.0118 -0.1828
   32MOL   O27913361   0.227   2.504   5.682  0.3297  0.3951 -0.2178
   32MOL   C28013362   0.276   2.518   5.815 -0.1216  0.6387  0.1285
   32MOL   C28113363   0.256   2.654   5.881 -0.0439  0.0344  0.4100
   32MOL   C28213364   0.340   2.763   5.810  0.3509  0.3452 -0.6051
   32MOL   C28313365   0.330   2.903   5.876  0.3735  0.1297  0.3015
   32MOL   H28413366   0.103   2.383   5.314  1.2351  1.9470 -0.5196
   32MOL   H28513367   0.111   2.290   5.450  1.0145  0.4010  0.1912
   32MOL   H28613368   0.257   2.567   5.454  0.1543 -0.1648 -0.6782
   32MOL   H28713369   0.383   2.498   5.811 -0.3153 -0.1795 -1.2054
   32MOL   H28813370   0.236   2.444   5.884  2.0192  1.3690  2.2200
   32MOL   H28913371   0.151   2.682   5.879 -0.4669 -1.4888  1.0024
   32MOL   H29013372   0.296   2.643   5.982  2.6069 -1.4229 -0.7404
   32MOL   H29113373   0.317   2.762   5.704  0.9336 -1.0547 -0.7325
   32MOL   H29213374   0.444   2.737   5.828 -0.3603 -2.3262 -0.1260
   32MOL   H29313375   0.365   2.981   5.808  0.6581  0.1749  0.4997
   32MOL   H29413376   0.394   2.900   5.964  0.6579 -1.6531  0.0460
   32MOL   H29513377   0.228   2.931   5.903  0.0559 -1.1802  0.4977
   32MOL   C29613378   0.353   2.394   5.345 -0.2474  0.5656 -0.1160
   32MOL   C29713379   0.361   2.458   5.202 -0.3363  0.2607  0.2550
   32MOL   C29813380   0.364   2.608   5.198  0.2864 -0.9491 -0.1602
   32MOL   O29913381   0.419   2.667   5.288  0.4257 -0.4687  0.5626
   32MOL   O30013382   0.316   2.664   5.091  0.0072  0.4335 -0.1044
   32MOL   C30113383   0.330   2.803   5.065  0.0728 -0.0727 -0.4122
   32MOL   C30213384   0.205   2.885   5.103  0.4734 -0.1860  0.1800
   32MOL   C30313385   0.209   2.940   5.247 -0.1376  0.2857  0.6373
   32MOL   C30413386   0.090   3.031   5.277  0.6573  0.2597 -0.2922
   32MOL   H30513387   0.322   2.291   5.328  1.9609  0.0801 -1.3356
   32MOL   H30613388   0.452   2.387   5.390  0.0241  0.7313 -0.6895
   32MOL   H30713389   0.265   2.427   5.160  0.0748 -0.9227  0.1653
   32MOL   H30813390   0.343   2.812   4.957 -1.9822  1.2397 -0.5811
   32MOL   H30913391   0.425   2.844   5.097  0.3161 -1.8541  1.2686
   32MOL   H31013392   0.198   2.971   5.036 -1.0738 -0.9864 -0.7146
   32MOL   H31113393   0.110   2.832   5.093  1.4066 -1.6487 -1.2273
   32MOL   H31213394   0.299   3.002   5.251 -0.7588  1.1685  1.1594
   32MOL   H31313395   0.205   2.859   5.319  0.1537 -1.0434 -0.7975
   32MOL   H31413396   0.082   3.126   5.223 -1.4524  1.0679  1.4022
   32MOL   H31513397   0.110   3.080   5.372  0.6451  2.1486 -1.2425
   32MOL   H31613398   7.843   2.987   5.275  0.4735  0.7088 -1.8027
   32MOL   C31713399   0.475   2.395   5.120  0.7893  0.2773  0.3939
   32MOL   C31813400   0.489   2.432   4.970  0.2454  0.6980  0.2262
   32MOL   C31913401   0.632   2.384   4.914  0.1457  0.4003 -0.0242
   32MOL   O32013402   0.715   2.464   4.877 -0.3196  0.1255 -0.0507
   32MOL   O32113403   0.654   2.251   4.934  0.4831 -0.3711  0.1738
   32MOL   C32213404   0.783   2.200   4.922 -0.0289  0.5640  1.1254
   32MOL   C32313405   0.859   2.228   5.057  0.1545  0.1368  0.5507
   32MOL   C32413406   0.863   2.110   5.150 -0.6441 -0.3925 -0.0318
   32MOL   C32513407   0.947   2.138   5.278  0.2006  0.5361 -0.0939
   32MOL   H32613408   0.474   2.286   5.126 -0.7990  0.2004 -0.9510
   32MOL   H32713409   0.574   2.423   5.157  1.2349  0.7586 -1.1431
   32MOL   H32813410   0.487   2.541   4.975  0.0011  0.7354 -0.6939
   32MOL   H32913411   0.848   2.248   4.850  1.7624 -0.3602  2.0987
   32MOL   H33013412   0.769   2.095   4.894  1.2318  0.9400 -1.0387
   32MOL   H33113413   0.963   2.246   5.027  0.8579  0.3280  2.9962
   32MOL   H33213414   0.823   2.319   5.104  1.2024 -0.1675  1.9857
   32MOL   H33313415   0.904   2.026   5.093  0.2729  1.6280 -2.4509
   32MOL   H33413416   0.769   2.071   5.189  0.1756 -0.9764  1.4075
   32MOL   H33513417   0.927   2.065   5.356 -1.8635  0.5995 -0.5521
   32MOL   H33613418   0.928   2.237   5.319 -0.1929 -0.3620  1.9249
   32MOL   H33713419   1.050   2.109   5.254 -0.0206  1.3253 -2.1012
   32MOL   C33813420   0.373   2.372   4.881 -0.4899 -0.7217 -0.2004
   32MOL   C33913421   0.337   2.429   4.743  0.2631 -0.2030 -0.2184
   32MOL   C34013422   0.257   2.329   4.658 -0.3408 -0.8942 -0.6985
   32MOL   O34113423   0.312   2.246   4.587 -0.4601 -0.0363  0.0965
   32MOL   O34213424   0.117   2.347   4.669 -0.0624 -0.3157 -0.2692
   32MOL   C34313425   0.034   2.279   4.576 -0.4591 -0.7553 -0.9566
   32MOL   C34413426   7.748   2.345   4.578 -0.1846  0.0911 -0.3580
   32MOL   C34513427   7.670   2.339   4.448  1.1098 -0.2795 -0.3955
   32MOL   C34613428   7.654   2.184   4.402  0.4668  0.8464  0.0132
   32MOL   H34713429   0.278   2.371   4.935 -1.7411  1.0475 -2.2773
   32MOL   H34813430   0.396   2.267   4.868 -1.3523 -0.8177 -1.0762
   32MOL   H34913431   0.431   2.460   4.696 -0.1743  4.5544  1.7555
   32MOL   H35013432   0.016   2.175   4.605 -1.8588 -0.3466 -0.3042
   32MOL   H35113433   0.088   2.289   4.482  2.4245  0.2358  0.7498
   32MOL   H35213434   7.686   2.290   4.648 -2.6751  2.8436 -0.3229
   32MOL   H35313435   7.759   2.450   4.608 -0.1437 -0.8273  3.0082
   32MOL   H35413436   7.719   2.384   4.362  0.3329 -0.0787 -0.7407
   32MOL   H35513437   7.570   2.382   4.459  0.8965 -0.3983 -1.8410
   32MOL   H35613438   7.607   2.123   4.479 -1.2460 -0.2713 -1.8546
   32MOL   H35713439   7.749   2.131   4.401  1.5511  2.7745 -1.0120
   32MOL   H35813440   7.601   2.168   4.307 -0.9815  1.5445  0.6906
   32MOL   C35913441   0.259   2.557   4.764 -0.0499  0.4802 -0.4686
   32MOL   C36013442   0.219   2.640   4.637  0.3284 -0.8833  0.4261
   32MOL   C36113443   0.116   2.747   4.676  0.1990 -0.2086 -0.9393
   32MOL   O36213444   0.111   2.791   4.788 -1.0761 -0.0364 -0.1431
   32MOL   O36313445   0.017   2.761   4.591  0.4620  0.0672  0.2786
   32MOL   C36413446   7.748   2.825   4.642 -0.7973  0.8971  0.5440
   32MOL   C36513447   7.635   2.825   4.538  0.2184 -0.1630 -0.2806
   32MOL   C36613448   7.519   2.913   4.582  0.0712 -0.5514  0.5270
   32MOL   C36713449   7.403   2.904   4.486  0.1190  0.0952 -0.5462
   32MOL   H36813450   0.297   2.625   4.841  0.0076 -0.5182  0.3890
   32MOL   H36913451   0.171   2.522   4.819 -1.6451  1.2061 -2.4607
   32MOL   H37013452   0.167   2.577   4.565 -1.1845 -0.7967  1.4102
   32MOL   H37113453   7.766   2.927   4.677 -0.6725  0.8041  0.7543
   32MOL   H37213454   7.702   2.776   4.728 -2.0250 -0.5313 -0.8954
   32MOL   H37313455   7.670   2.858   4.440 -1.9677  2.6539 -0.1899
   32MOL   H37413456   7.609   2.722   4.514  1.0793 -0.6261  0.7619
   32MOL   H37513457   7.548   3.017   4.598  0.3666 -0.4120 -0.8467
   32MOL   H37613458   7.493   2.866   4.677  0.5820 -2.0114 -0.0429
   32MOL   H37713459   7.418   2.946   4.386 -1.5950 -0.8565 -1.2218
   32MOL   H37813460   7.312   2.942   4.530 -0.2337  0.3809 -1.5011
   32MOL   H37913461   7.394   2.798   4.463 -0.2783 -0.8960  3.8218
   32MOL   C38013462   0.346   2.709   4.569  0.4271  0.6413 -0.1182
   32MOL   C38113463   0.411   2.828   4.647  0.3232 -0.4349  0.1464
   32MOL   C38213464   0.536   2.785   4.716  0.2093 -0.4709  0.5053
   32MOL   O38313465   0.542   2.767   4.837 -0.1360 -0.0010  0.1839
   32MOL   O38413466   0.639   2.770   4.631 -0.3181 -0.3535  0.0514
   32MOL   C38513467   0.760   2.713   4.683 -0.5178 -0.5578  0.3424
   32MOL   C38613468   0.877   2.818   4.662 -0.0023 -0.0529  0.5580
   32MOL   C38713469   1.003   2.773   4.730  0.7466 -0.3917 -0.8209
   32MOL   C38813470   1.056   2.636   4.672 -0.1089  0.4194 -0.0036
   32MOL   H38913471   0.313   2.735   4.469  2.8773  1.4848 -0.7310
   32MOL   H39013472   0.407   2.622   4.545 -1.1316 -0.2992 -0.7517
   32MOL   H39113473   0.347   2.870   4.725  0.8003  0.4194  0.0841
   32MOL   H39213474   0.779   2.615   4.639  1.4690 -0.1282  0.1849
   32MOL   H39313475   0.750   2.706   4.792 -0.4244 -1.8465  0.2690
   32MOL   H39413476   0.902   2.826   4.557 -4.3246 -3.3585 -0.8802
   32MOL   H39513477   0.837   2.912   4.700 -2.8815 -1.4040  1.0290
   32MOL   H39613478   0.984   2.765   4.837  0.4972 -0.7835 -0.8963
   32MOL   H39713479   1.083   2.847   4.724  1.1070 -0.3436  3.0361
   32MOL   H39813480   1.163   2.639   4.691  0.5887  3.6649 -3.7460
   32MOL   H39913481   1.060   2.629   4.563 -2.8056  1.1081 -0.1915
   32MOL   H40013482   1.003   2.550   4.713  1.4111  1.2203  3.8195
   32MOL   C40113483   0.430   2.947   4.553 -0.1464  0.1235  0.0103
   32MOL   C40213484   0.463   3.078   4.627  0.5237 -0.4963 -0.3356
   32MOL   C40313485   0.472   3.202   4.538  0.4616  0.4478 -0.4155
   32MOL   O40413486   0.458   3.189   4.420  0.7200 -0.0803  0.3429
   32MOL   O40513487   0.500   3.309   4.607  0.1669 -0.0703  0.0640
   32MOL   C40613488   0.522   3.434   4.555 -0.1403  0.2060  0.4778
   32MOL   C40713489   0.609   3.508   4.646 -0.3230  0.5421  0.0362
   32MOL   C40813490   0.538   3.549   4.777 -0.1201  0.2616  0.6764
   32MOL   C40913491   0.625   3.608   4.893  0.0192 -0.4723  0.4325
   32MOL   H41013492   0.331   2.955   4.509  0.1807 -1.0296 -0.9663
   32MOL   H41113493   0.496   2.932   4.467  0.9204  3.2526  0.2390
   32MOL   H41213494   0.563   3.070   4.671  0.8630  1.2022 -0.7649
   32MOL   H41313495   0.424   3.482   4.546 -0.4329 -0.0649  2.1018
   32MOL   H41413496   0.567   3.422   4.456  2.0550  3.3365  1.0320
   32MOL   H41513497   0.684   3.431   4.668  0.3367  1.1764  0.0383
   32MOL   H41613498   0.667   3.586   4.596  0.7961 -0.7564 -0.7366
   32MOL   H41713499   0.491   3.460   4.818 -0.4430  0.0656 -0.0976
   32MOL   H41813500   0.458   3.620   4.754 -1.1335 -0.6817  1.2795
   32MOL   H41913501   0.691   3.531   4.931 -0.1564 -0.8254  0.0226
   32MOL   H42013502   0.569   3.642   4.980  1.5102  1.6065  0.6344
   32MOL   H42113503   0.687   3.688   4.851 -1.2430  0.2364 -0.1248
   32MOL   H42213504   0.397   3.084   4.714 -0.9400  0.1167 -1.4767
   33MOL     C113505   6.240   7.669   2.867 -0.2269 -0.1560 -0.1089
   33MOL     C213506   6.121   7.589   2.909 -0.4610  0.8422 -0.1039
   33MOL     C313507   6.091   7.606   3.059 -0.3297 -0.2819  0.5363
   33MOL     O413508   6.175   7.668   3.125 -0.3271 -0.1447 -0.7458
   33MOL     O513509   5.986   7.540   3.101  0.2755 -0.5636  0.3068
   33MOL     C613510   5.960   7.539   3.245  0.5351 -0.2296  0.6573
   33MOL     C713511   5.863   7.424   3.269  0.3125 -0.5899 -0.3065
   33MOL     C813512   5.857   7.387   3.422 -0.8348  0.0641  0.9370
   33MOL     C913513   5.758   7.470   3.502  0.0607 -0.1596  1.1309
   33MOL    H1013514   6.262   7.667   2.760 -1.7759 -1.3974 -0.4313
   33MOL    H1113515   6.240   7.772   2.902  0.9230  0.0329 -0.6655
   33MOL    H1213516   6.154   7.485   2.908  0.3521  1.0987 -1.1520
   33MOL    H1313517   5.918   7.633   3.283 -0.1686  0.5634 -1.9665
   33MOL    H1413518   6.053   7.516   3.298  1.4491 -0.0764 -0.8409
   33MOL    H1513519   5.764   7.463   3.248  0.4889 -0.9185 -1.8323
   33MOL    H1613520   5.890   7.339   3.207  0.9554  2.5492 -4.5960
   33MOL    H1713521   5.956   7.399   3.465  0.1644  1.6350 -1.6960
   33MOL    H1813522   5.816   7.286   3.419 -0.3529 -0.1016 -0.7189
   33MOL    H1913523   5.659   7.464   3.456  0.6390  2.3954 -0.5537
   33MOL    H2013524   5.799   7.571   3.493 -2.1509  0.6791  0.2087
   33MOL    H2113525   5.750   7.446   3.608  0.4356  0.9660  1.4233
   33MOL    H2213526   6.326   7.614   2.903  0.0726  0.6166  0.3582
   33MOL    C2313527   6.003   7.596   2.808  0.4197  0.4977 -0.2191
   33MOL    C2413528   5.941   7.739   2.787  0.0509  0.4739  0.1314
   33MOL    C2513529   5.982   7.797   2.652  0.1758  0.4099 -0.5118
   33MOL    O2613530   5.903   7.806   2.559 -0.6911  0.6410  0.2649
   33MOL    O2713531   6.114   7.837   2.648 -0.1169  0.7502 -0.2465
   33MOL    C2813532   6.174   0.038   2.531 -0.4216 -0.0291  0.2355
   33MOL    C2913533   6.301   0.101   2.582  0.4085 -0.6633 -0.0520
   33MOL    C3013534   6.351   0.207   2.485  0.2049  0.0824  0.0172
   33MOL    C3113535   6.479   0.276   2.537 -0.1467  0.5156 -0.4435
   33MOL    H3213536   5.938   7.513   2.832  2.0542 -0.0010  2.6995
   33MOL    H3313537   6.037   7.565   2.709  3.4750  0.9112  0.6293
   33MOL    H3413538   5.983   7.803   2.864  0.9294  0.8650 -0.6789
   33MOL    H3513539   6.094   0.101   2.492 -1.8563 -0.2285  2.7688
   33MOL    H3613540   6.207   7.820   2.455  0.4820  1.3538 -0.7040
   33MOL    H3713541   6.296   0.130   2.687  0.1699  1.8490 -0.7196
   33MOL    H3813542   6.374   0.020   2.584  0.9446 -0.1801  0.1414
   33MOL    H3913543   6.279   0.289   2.482  0.8002  0.6835  1.4000
   33MOL    H4013544   6.361   0.164   2.386  2.2152  0.4695  0.0220
   33MOL    H4113545   6.566   0.211   2.544  1.2164  2.3441 -0.1469
   33MOL    H4213546   6.464   0.293   2.644 -0.0154 -1.9450 -0.0015
   33MOL    H4313547   6.502   0.372   2.491  2.3663  1.0720  1.8589
   33MOL    C4413548   5.789   7.738   2.791  0.4075 -0.0451  0.7328
   33MOL    C4513549   5.724   7.697   2.929 -0.1578 -0.5853 -0.2907
   33MOL    C4613550   5.739   7.819   3.024  0.4382 -0.7202  0.7452
   33MOL    O4713551   5.765   7.811   3.143 -0.0605  0.2621  0.5377
   33MOL    O4813552   5.690   0.075   2.970 -0.9376 -0.1785  0.1080
   33MOL    C4913553   5.662   0.196   3.038 -0.3880  0.1711 -0.0970
   33MOL    C5013554   5.591   0.286   2.936 -0.2686 -0.0634 -0.4944
   33MOL    C5113555   5.569   0.431   2.991  0.2474  0.2473 -0.2383
   33MOL    C5213556   5.480   0.515   2.899 -0.4361 -0.4480  0.0510
   33MOL    H5313557   5.752   7.662   2.722 -2.2479  1.1381  0.7992
   33MOL    H5413558   5.754   7.834   2.751 -0.7829 -0.6790  0.2266
   33MOL    H5513559   5.782   7.620   2.980 -0.6374 -0.4473  0.4751
   33MOL    H5613560   5.747   0.256   3.071  0.4755 -1.8307  1.4703
   33MOL    H5713561   5.596   0.184   3.124 -0.1231  0.7036  0.1820
   33MOL    H5813562   5.642   0.280   2.840 -0.2834  0.8494 -0.5649
   33MOL    H5913563   5.495   0.246   2.905 -0.3660  1.1627 -1.8362
   33MOL    H6013564   5.668   0.475   2.995 -0.5495  2.3483 -2.3196
   33MOL    H6113565   5.524   0.435   3.090 -0.2519  3.4473 -0.5689
   33MOL    H6213566   5.385   0.467   2.876 -0.2583 -1.8235  2.1433
   33MOL    H6313567   5.531   0.534   2.804 -0.6533 -1.1756 -0.2137
   33MOL    H6413568   5.461   0.608   2.952 -0.5581  0.0832 -0.9025
   33MOL    C6513569   5.574   7.654   2.925 -0.8823 -0.2276 -0.4683
   33MOL    C6613570   5.556   7.511   2.978 -0.1912  0.2782  0.1955
   33MOL    C6713571   5.406   7.487   2.999  0.4652  0.3539 -0.0861
   33MOL    O6813572   5.365   7.425   3.098 -0.0140  0.2408 -0.5567
   33MOL    O6913573   5.329   7.537   2.899  0.1550  0.3131  0.1043
   33MOL    C7013574   5.181   7.537   2.903 -0.7577  0.3735 -0.3277
   33MOL    C7113575   5.140   7.681   2.899  0.0401 -0.2264 -0.8102
   33MOL    C7213576   5.191   7.779   2.791 -0.2226 -0.6763  0.2437
   33MOL    C7313577   5.102   0.053   2.783 -0.1486 -0.0383  0.5069
   33MOL    H7413578   5.522   7.655   2.829  1.7870 -1.7174 -1.9595
   33MOL    H7513579   5.511   7.727   2.978  0.4626  1.7667 -1.5579
   33MOL    H7613580   5.613   7.510   3.071  0.3862 -1.2018 -0.1491
   33MOL    H7713581   5.151   7.480   2.991 -0.9028 -2.1193 -1.9558
   33MOL    H7813582   5.143   7.478   2.820 -2.7486  2.6258 -1.0832
   33MOL    H7913583   5.032   7.691   2.906 -0.0753 -1.0946 -1.2904
   33MOL    H8013584   5.168   7.730   2.991  0.2423 -2.5024  0.3855
   33MOL    H8113585   5.202   7.728   2.695  0.4315  1.5891 -0.9313
   33MOL    H8213586   5.296   7.795   2.814  0.2763 -2.0903 -0.9660
   33MOL    H8313587   5.123   0.099   2.880 -2.5501 -3.4610  2.7859
   33MOL    H8413588   4.996   0.042   2.759 -0.0781 -0.7549  0.5063
   33MOL    H8513589   5.148   0.115   2.707 -0.5382 -1.2151 -0.6995
   33MOL    C8613590   5.611   7.413   2.884 -0.0055 -0.1624  0.1367
   33MOL    C8713591   5.674   7.288   2.952  0.5494 -0.2213 -0.1309
   33MOL    C8813592   5.579   7.193   3.020 -0.3567 -0.0391  0.3669
   33MOL    O8913593   5.472   7.156   2.972  0.2646  0.3328 -0.0493
   33MOL    O9013594   5.616   7.172   3.151 -0.0740  0.3452  0.2481
   33MOL    C9113595   5.528   7.098   3.236 -0.4304  0.1667 -0.2103
   33MOL    C9213596   5.498   7.183   3.363 -0.9020 -0.3503  0.3420
   33MOL    C9313597   5.400   7.111   3.454  0.0285  0.2041  0.6354
   33MOL    C9413598   5.410   7.167   3.596 -0.3999 -0.0008 -1.5380
   33MOL    H9513599   5.688   7.461   2.823 -0.0032  0.2075  0.4266
   33MOL    H9613600   5.533   7.390   2.813 -0.7591 -0.2906  1.0030
   33MOL    H9713601   5.745   7.319   3.029 -2.3277  2.7107  1.4917
   33MOL    H9813602   5.580   7.004   3.257 -0.5337 -0.4266 -2.4107
   33MOL    H9913603   5.439   7.056   3.190  1.0157 -0.6522 -2.3855
   33MOL   H10013604   5.596   7.193   3.410 -1.2346  0.2515  0.9047
   33MOL   H10113605   5.463   7.284   3.341 -0.1679 -0.2797 -0.5682
   33MOL   H10213606   5.416   7.003   3.445 -1.1781  0.0629  0.0188
   33MOL   H10313607   5.305   7.139   3.408 -0.2189  0.4197  1.2605
   33MOL   H10413608   5.505   7.128   3.632 -0.4231  0.2809 -1.1710
   33MOL   H10513609   5.338   7.129   3.668  0.4627  2.1614  0.5298
   33MOL   H10613610   5.411   7.276   3.602  0.5743 -0.0206 -1.2221
   33MOL   C10713611   5.750   7.207   2.844  0.4902 -0.2914  0.7420
   33MOL   C10813612   5.901   7.220   2.836  0.5129  0.6730 -0.2187
   33MOL   C10913613   5.961   7.178   2.971 -0.1576  0.1098 -0.1210
   33MOL   O11013614   6.058   7.243   3.016  0.0139  0.9577 -0.5214
   33MOL   O11113615   5.913   7.063   3.011  0.5656 -0.1901 -0.7602
   33MOL   C11213616   5.980   6.996   3.110  0.4260  0.3194  0.2085
   33MOL   C11313617   5.967   7.066   3.252 -0.1233  0.6553 -0.2197
   33MOL   C11413618   6.037   6.977   3.362 -0.1171 -0.4389  0.1978
   33MOL   C11513619   6.089   7.046   3.490 -0.3034 -0.1275 -0.3743
   33MOL   H11613620   5.707   7.228   2.746 -3.5005 -0.5268  2.3448
   33MOL   H11713621   5.727   7.101   2.855  0.2226 -0.7491 -3.2039
   33MOL   H11813622   5.915   7.324   2.808  1.0613  0.1676 -1.8412
   33MOL   H11913623   6.086   7.004   3.083  0.4194 -0.1463  0.0437
   33MOL   H12013624   5.950   6.891   3.108  0.1674  0.4019 -1.6934
   33MOL   H12113625   6.015   7.164   3.241 -0.2741  0.8688  0.9713
   33MOL   H12213626   5.866   7.090   3.284 -0.4204  0.5444 -1.0675
   33MOL   H12313627   6.126   6.946   3.308 -1.1554 -0.6233 -1.4498
   33MOL   H12413628   5.980   6.886   3.373  0.7381 -1.2616 -1.9525
   33MOL   H12513629   6.114   7.149   3.464 -1.9879  0.7203  1.2222
   33MOL   H12613630   6.169   6.985   3.531  0.9695  3.5764  3.0812
   33MOL   H12713631   6.015   7.047   3.570 -0.5361 -2.9816 -0.5075
   33MOL   C12813632   5.952   7.147   2.708  0.7383 -0.9310 -0.6692
   33MOL   C12913633   6.087   7.195   2.651  0.1717  0.3083  0.5377
   33MOL   C13013634   6.216   7.154   2.738 -0.1625 -0.4792 -0.0045
   33MOL   O13113635   6.223   7.050   2.805  0.1369 -0.8612 -0.4264
   33MOL   O13213636   6.317   7.240   2.718 -0.3469 -0.2631  0.3170
   33MOL   C13313637   6.438   7.217   2.779  0.1415  0.0430 -0.4901
   33MOL   C13413638   6.510   7.354   2.804 -0.1396 -0.1045 -0.0915
   33MOL   C13513639   6.538   7.427   2.679  0.1145  0.0117 -0.0128
   33MOL   C13613640   6.616   7.559   2.682 -0.0018  0.4235 -0.1719
   33MOL   H13713641   5.877   7.157   2.630 -0.5621  1.1327  0.8122
   33MOL   H13813642   5.971   7.043   2.735  2.5946 -0.9930 -2.1285
   33MOL   H13913643   6.087   7.304   2.640 -1.2728  0.1138 -1.5859
   33MOL   H14013644   6.490   7.147   2.714  3.8844  0.5232  1.8909
   33MOL   H14113645   6.418   7.168   2.873 -1.7031 -0.9403 -1.3679
   33MOL   H14213646   6.453   7.418   2.872  0.7110  0.5174  0.0393
   33MOL   H14313647   6.606   7.336   2.852 -1.1859 -0.7836  1.8335
   33MOL   H14413648   6.442   7.451   2.634  1.0644 -1.1930 -2.7606
   33MOL   H14513649   6.592   7.357   2.615 -0.4394  0.8452 -1.4043
   33MOL   H14613650   6.656   7.583   2.584  1.7639  3.1878  1.1457
   33MOL   H14713651   6.702   7.539   2.745 -1.4719  1.1461  2.1201
   33MOL   H14813652   6.565   7.651   2.714 -2.0979 -0.2916 -1.3119
   33MOL   C14913653   6.107   7.149   2.505 -0.3066 -0.0780 -0.5791
   33MOL   C15013654   6.055   7.218   2.379 -0.2121 -0.5611 -0.1556
   33MOL   C15113655   6.109   7.362   2.356 -0.5077 -0.7086 -0.1228
   33MOL   O15213656   6.032   7.461   2.361 -0.4139  0.1988 -0.2436
   33MOL   O15313657   6.231   7.366   2.314 -0.5322 -0.2249  0.3288
   33MOL   C15413658   6.282   7.489   2.269 -0.5274 -0.1606 -0.3818
   33MOL   C15513659   6.433   7.456   2.239 -0.3393  0.0769  0.0426
   33MOL   C15613660   6.454   7.426   2.092 -0.1336 -0.0476 -0.0420
   33MOL   C15713661   6.605   7.416   2.057  0.2717  0.4652 -0.2075
   33MOL   H15813662   6.057   7.052   2.495  2.7667 -1.6711 -1.0344
   33MOL   H15913663   6.213   7.128   2.491  0.3251  3.3254 -1.2808
   33MOL   H16013664   5.948   7.237   2.389  0.2574  1.5983  0.8728
   33MOL   H16113665   6.262   7.572   2.337  0.9912 -0.5310  0.5404
   33MOL   H16213666   6.222   7.516   2.183  0.6396 -3.0332 -2.1633
   33MOL   H16313667   6.491   7.546   2.256 -0.4348  0.1382  0.0431
   33MOL   H16413668   6.481   7.388   2.310 -0.1699 -1.5009 -1.5418
   33MOL   H16513669   6.405   7.496   2.025  1.1272  2.3461  1.4491
   33MOL   H16613670   6.405   7.330   2.076  2.0307 -0.9853 -1.2226
   33MOL   H16713671   6.659   7.347   2.121  1.1533  0.4359 -0.9798
   33MOL   H16813672   6.657   7.512   2.058 -0.0252  0.6285 -0.2166
   33MOL   H16913673   6.619   7.383   1.955 -0.2635  1.4343 -0.6056
   33MOL   C17013674   6.063   7.128   2.257 -0.0143 -0.3113 -0.1758
   33MOL   C17113675   6.014   7.193   2.122 -1.5114  0.8160  0.1060
   33MOL   C17213676   6.043   7.111   2.002 -0.1649  0.2177 -0.8140
   33MOL   O17313677   6.078   6.990   2.009  0.4678  0.1232 -0.1591
   33MOL   O17413678   6.032   7.177   1.880 -0.7184  0.3590  0.0283
   33MOL   C17513679   6.050   7.098   1.757  0.5783  0.3161  0.2815
   33MOL   C17613680   5.934   7.145   1.656  0.0432  0.3837  0.3772
   33MOL   C17713681   5.948   7.078   1.523  0.2964  0.2191  0.2401
   33MOL   C17813682   6.053   7.144   1.438  0.2484 -0.3034 -0.0597
   33MOL   H17913683   6.005   7.038   2.279  0.2564 -0.6881 -0.9430
   33MOL   H18013684   6.161   7.081   2.242  0.6293  1.1797 -0.7697
   33MOL   H18113685   6.062   7.290   2.107 -0.4204  0.3502  0.5544
   33MOL   H18213686   6.057   6.990   1.771 -0.8393  0.2927  0.8443
   33MOL   H18313687   6.154   7.116   1.729  1.7558 -1.4553  3.2619
   33MOL   H18413688   5.841   7.110   1.700  0.6465 -1.1366  0.5006
   33MOL   H18513689   5.931   7.253   1.643  1.7199  0.6023  1.5880
   33MOL   H18613690   5.857   7.077   1.464  1.2788 -0.8555 -1.2962
   33MOL   H18713691   5.961   6.971   1.534  3.1354  0.3445 -1.1878
   33MOL   H18813692   6.080   7.074   1.358 -0.5345  0.5043 -1.0433
   33MOL   H18913693   6.139   7.176   1.496  1.5207 -0.6068 -1.7375
   33MOL   H19013694   6.003   7.229   1.391  0.8906  0.5099  0.7226
   33MOL   C19113695   5.861   7.209   2.122 -0.6335 -0.2107  0.1837
   33MOL   C19213696   5.765   7.084   2.116  0.0499 -0.1486  0.2137
   33MOL   C19313697   5.640   7.129   2.198 -0.5607  0.3341  0.2302
   33MOL   O19413698   5.609   7.080   2.313  0.0364 -0.2678  0.1040
   33MOL   O19513699   5.577   7.239   2.142  0.2300  0.0337 -0.0996
   33MOL   C19613700   5.481   7.316   2.216  0.2253 -0.4177 -0.1617
   33MOL   C19713701   5.548   7.430   2.291  0.3037  0.2739  0.8373
   33MOL   C19813702   5.621   7.383   2.413 -0.2772  0.0823  0.0340
   33MOL   C19913703   5.690   7.502   2.496  0.4758 -0.5405  0.3347
   33MOL   H20013704   5.829   7.271   2.039 -0.3771 -1.9739 -1.2639
   33MOL   H20113705   5.834   7.269   2.209 -2.1346 -3.3205  1.9467
   33MOL   H20213706   5.819   7.009   2.172  1.7364  1.8751  1.3833
   33MOL   H20313707   5.428   7.262   2.294 -1.8373  1.7828  0.0155
   33MOL   H20413708   5.405   7.355   2.148 -0.2956 -0.3745  0.4417
   33MOL   H20513709   5.620   7.476   2.224  0.5518  1.8530  2.1716
   33MOL   H20613710   5.475   7.504   2.325  0.1736  0.3207  0.4594
   33MOL   H20713711   5.699   7.317   2.374  0.6303  1.6591 -0.8843
   33MOL   H20813712   5.551   7.333   2.480  0.4039 -2.5103 -1.1096
   33MOL   H20913713   5.747   7.456   2.577 -0.4876 -0.2181  1.1983
   33MOL   H21013714   5.613   7.559   2.547  0.8910  1.3335 -1.0651
   33MOL   H21113715   5.758   7.570   2.443  0.1071  1.8227  2.7654
   33MOL   C21213716   5.731   7.028   1.977  0.4768 -0.4621 -0.2388
   33MOL   C21313717   5.646   6.894   1.968 -0.0896 -0.4528 -1.3838
   33MOL   C21413718   5.578   6.889   1.832 -0.0517  0.1474  0.3553
   33MOL   O21513719   5.458   6.891   1.818  0.1503  0.5179 -0.1774
   33MOL   O21613720   5.674   6.875   1.736 -0.3910 -0.6150  0.7777
   33MOL   C21713721   5.636   6.864   1.600  0.3558  0.0375  0.4531
   33MOL   C21813722   5.565   6.994   1.553  0.5639  0.0700 -0.1756
   33MOL   C21913723   5.540   7.000   1.396  0.0520  0.6138  0.3755
   33MOL   C22013724   5.522   7.151   1.352 -0.2214  0.1599 -0.2946
   33MOL   H22113725   5.809   7.001   1.905 -0.7123 -2.3341 -0.8787
   33MOL   H22213726   5.692   7.112   1.921 -0.9473 -0.5625  0.5884
   33MOL   H22313727   5.562   6.888   2.038  1.3246  1.2500  0.5109
   33MOL   H22413728   5.565   6.783   1.587  0.2506  0.3426 -1.0017
   33MOL   H22513729   5.731   6.852   1.547  1.7520  0.2001  2.8328
   33MOL   H22613730   5.476   7.015   1.613  0.1197  2.0804 -1.5068
   33MOL   H22713731   5.637   7.073   1.570  0.8876 -0.4145  0.7264
   33MOL   H22813732   5.450   6.947   1.364 -0.1226  0.9878  0.2472
   33MOL   H22913733   5.621   6.952   1.342  0.6683  1.3125  0.6629
   33MOL   H23013734   5.600   7.217   1.389 -1.4905  2.3828 -1.4623
   33MOL   H23113735   5.420   7.186   1.371 -0.6509 -0.2402 -1.7500
   33MOL   H23213736   5.520   7.148   1.243 -0.6724 -0.2887 -0.2768
   33MOL   C23313737   5.739   6.766   1.995 -0.7238  0.2766 -0.4564
   33MOL   C23413738   5.667   6.636   2.031  0.1606  0.0512  0.5301
   33MOL   C23513739   5.613   6.569   1.904 -0.1263  0.5997 -0.2273
   33MOL   O23613740   5.688   6.520   1.816  0.1905  0.4884  0.2746
   33MOL   O23713741   5.487   6.565   1.902 -0.3507 -0.3382 -0.1221
   33MOL   C23813742   5.416   6.502   1.799 -0.4537 -0.5309 -0.6653
   33MOL   C23913743   5.269   6.545   1.806  0.0404 -0.2057  0.0799
   33MOL   C24013744   5.180   6.460   1.899 -0.2757 -0.3527  0.0512
   33MOL   C24113745   5.045   6.518   1.919 -0.2610  0.1049  0.1405
   33MOL   H24213746   5.814   6.797   2.068  0.8326  1.2371 -2.4133
   33MOL   H24313747   5.796   6.757   1.902  0.2540  0.0020  0.1619
   33MOL   H24413748   5.594   6.654   2.109 -0.4246  0.9947 -0.2281
   33MOL   H24513749   5.420   6.393   1.804  1.7881 -0.5735 -2.4608
   33MOL   H24613750   5.461   6.543   1.709  3.2306 -1.6827  0.5290
   33MOL   H24713751   5.267   6.650   1.836  1.0393  0.5005 -2.2079
   33MOL   H24813752   5.239   6.531   1.703  2.9706 -0.0356 -0.8381
   33MOL   H24913753   5.221   6.450   1.999 -0.2010  0.6774  0.1348
   33MOL   H25013754   5.173   6.362   1.853 -2.4433 -1.4781  2.6985
   33MOL   H25113755   5.059   6.622   1.947  2.0194 -0.0947 -0.1434
   33MOL   H25213756   4.982   6.476   1.998  0.6731 -1.2248  0.1912
   33MOL   H25313757   4.994   6.519   1.823  0.9045 -0.6958 -0.4977
   33MOL   C25413758   5.771   6.545   2.103 -0.4171 -0.0978  0.4947
   33MOL   C25513759   5.698   6.448   2.202  0.1265 -0.0129 -0.6411
   33MOL   C25613760   5.761   6.312   2.203  0.0437 -0.2024  0.2882
   33MOL   O25713761   5.813   6.261   2.302  0.8174 -0.3502  0.1713
   33MOL   O25813762   5.751   6.265   2.078 -0.0224 -0.1396 -1.2006
   33MOL   C25913763   5.798   6.135   2.046 -0.0321 -0.1006 -0.0500
   33MOL   C26013764   5.941   6.143   1.994  0.8519 -0.4890  0.1924
   33MOL   C26113765   5.939   6.218   1.856  0.1967  0.5067  0.2728
   33MOL   C26213766   6.092   6.230   1.817  0.1681  0.1825  0.1879
   33MOL   H26313767   5.836   6.605   2.166  0.6608 -2.4098  1.6325
   33MOL   H26413768   5.838   6.503   2.029 -0.6793  1.7763 -0.8329
   33MOL   H26513769   5.595   6.431   2.169  0.9138 -1.8127 -2.2526
   33MOL   H26613770   5.734   6.086   1.973 -0.5020 -1.7095  1.4333
   33MOL   H26713771   5.782   6.068   2.130 -1.6556 -0.9242 -0.9857
   33MOL   H26813772   6.000   6.206   2.060 -2.7603  1.7917  1.3555
   33MOL   H26913773   5.986   6.044   1.984  1.0249 -0.2356 -1.8027
   33MOL   H27013774   5.888   6.315   1.857  0.8831  0.8678  0.7480
   33MOL   H27113775   5.889   6.144   1.793  0.9939  0.4457 -0.2938
   33MOL   H27213776   6.136   6.130   1.821  0.0192  0.1664  1.6990
   33MOL   H27313777   6.158   6.280   1.888  0.3420 -0.3697  0.4216
   33MOL   H27413778   6.105   6.274   1.718  0.6041  1.8466  0.9762
   33MOL   C27513779   5.683   6.516   2.343  0.3149 -0.4648  0.4579
   33MOL   C27613780   5.818   6.566   2.418 -0.2007 -0.6806 -0.3053
   33MOL   C27713781   5.805   6.714   2.434 -0.7311 -0.1569  0.5454
   33MOL   O27813782   5.896   6.783   2.387  0.1810 -0.0462  0.0986
   33MOL   O27913783   5.714   6.755   2.520  0.2931 -0.5901 -0.2397
   33MOL   C28013784   5.712   6.881   2.570  0.6105  0.1858  0.1693
   33MOL   C28113785   5.590   6.889   2.660  0.3694  0.3836 -0.0410
   33MOL   C28213786   5.620   6.840   2.799 -0.1251  0.2640  0.1821
   33MOL   C28313787   5.493   6.836   2.879  0.2002 -0.1946 -0.2699
   33MOL   H28413788   5.628   6.441   2.400 -1.8205  0.5240 -0.2746
   33MOL   H28513789   5.618   6.604   2.338  0.0351 -0.6821  0.2669
   33MOL   H28613790   5.896   6.531   2.351 -1.6826 -1.6456 -1.5737
   33MOL   H28713791   5.710   6.952   2.488 -1.2293  0.1077  0.1424
   33MOL   H28813792   5.799   6.906   2.631  0.9066  1.0634 -0.6056
   33MOL   H28913793   5.556   6.993   2.653  1.5577  0.9355  2.0320
   33MOL   H29013794   5.506   6.832   2.620  2.3551 -1.2992 -1.9182
   33MOL   H29113795   5.704   6.889   2.848 -0.0487  1.9441 -1.5473
   33MOL   H29213796   5.660   6.740   2.785 -1.1446  0.0691 -1.5011
   33MOL   H29313797   5.424   6.919   2.868  0.1184 -0.4890 -2.1731
   33MOL   H29413798   5.504   6.829   2.987  0.2952 -1.1352 -0.3312
   33MOL   H29513799   5.434   6.757   2.831  0.6913  0.0074 -1.2266
   33MOL   C29613800   5.842   6.484   2.550 -0.5318  0.1099  0.1933
   33MOL   C29713801   5.981   6.505   2.618  0.3512 -0.4222 -0.3377
   33MOL   C29813802   5.982   6.609   2.730  0.1978  0.0390 -0.2529
   33MOL   O29913803   5.880   6.626   2.791  0.3595  0.2391 -0.3113
   33MOL   O30013804   6.107   6.654   2.760 -0.9970 -0.1242  0.2210
   33MOL   C30113805   6.128   6.748   2.860  0.3607  0.4207  0.1158
   33MOL   C30213806   6.128   6.675   2.999  0.3968  0.4822  0.6545
   33MOL   C30313807   6.243   6.574   2.995  0.0055  0.2479 -0.7341
   33MOL   C30413808   6.252   6.472   3.114  0.1299  0.1642 -0.3551
   33MOL   H30513809   5.834   6.379   2.522  0.5162  0.0568  0.0701
   33MOL   H30613810   5.762   6.503   2.621 -0.2190 -1.4264  0.9937
   33MOL   H30713811   6.047   6.549   2.545 -0.3523 -1.1926 -1.4571
   33MOL   H30813812   6.048   6.822   2.868  0.6322  0.8153 -0.8059
   33MOL   H30913813   6.220   6.799   2.833 -0.0606  1.0614 -0.1068
   33MOL   H31013814   6.138   6.740   3.087 -2.8139 -0.0194  1.4623
   33MOL   H31113815   6.029   6.633   3.015  0.7453 -0.3331  0.6999
   33MOL   H31213816   6.335   6.629   2.974  0.9848  0.2628  3.0787
   33MOL   H31313817   6.217   6.513   2.909 -3.4249 -0.9634  1.0763
   33MOL   H31413818   6.331   6.398   3.100  0.0637 -0.4155  2.1932
   33MOL   H31513819   6.155   6.428   3.137  0.1288  1.0130  1.2858
   33MOL   H31613820   6.289   6.528   3.199 -0.1075  0.2118 -0.2837
   33MOL   C31713821   6.045   6.371   2.670 -0.5816 -0.3844 -0.0104
   33MOL   C31813822   6.082   6.263   2.565 -0.3906  0.4451 -0.0269
   33MOL   C31913823   6.208   6.295   2.481 -0.4679  0.0767  0.2335
   33MOL   O32013824   6.315   6.248   2.503  0.4362 -0.2086 -0.0238
   33MOL   O32113825   6.182   6.391   2.386  0.2919  0.6880 -0.5776
   33MOL   C32213826   6.290   6.448   2.315  0.7975  0.0837  0.2856
   33MOL   C32313827   6.243   6.485   2.172 -0.0741  0.1903  0.0514
   33MOL   C32413828   6.117   6.570   2.174  0.2741  0.9089  0.5454
   33MOL   C32513829   6.118   6.672   2.064  0.2058 -0.2765  0.0195
   33MOL   H32613830   5.969   6.335   2.740 -2.0529  3.8207  0.6768
   33MOL   H32713831   6.136   6.395   2.725 -0.9442  1.2925 -0.1125
   33MOL   H32813832   5.999   6.254   2.496  1.5427 -0.5085 -2.2853
   33MOL   H32913833   6.374   6.378   2.310  0.5635 -0.0900 -1.6963
   33MOL   H33013834   6.331   6.535   2.366 -1.0434 -0.1002  2.1573
   33MOL   H33113835   6.315   6.534   2.106 -1.2539  1.2042 -0.4844
   33MOL   H33213836   6.211   6.394   2.122  0.1255  1.5439 -2.6123
   33MOL   H33313837   6.116   6.621   2.270 -0.2793  0.5406  0.7375
   33MOL   H33413838   6.020   6.521   2.165  1.0586 -0.1431 -3.0043
   33MOL   H33513839   6.097   6.627   1.967  1.3093  0.7761 -0.7184
   33MOL   H33613840   6.216   6.721   2.065 -0.1668  0.5622  3.1912
   33MOL   H33713841   6.037   6.742   2.086 -0.3205 -0.8465 -0.1063
   33MOL   C33813842   6.082   6.118   2.632  0.3395 -0.5049 -0.6466
   33MOL   C33913843   6.182   6.108   2.760  0.3364 -0.4045  0.1853
   33MOL   C34013844   6.108   6.128   2.896  0.9675 -0.1928  0.0354
   33MOL   O34113845   6.160   6.195   2.985 -0.0427  0.0749  0.1210
   33MOL   O34213846   5.988   6.066   2.899 -0.7766  0.0490  0.1332
   33MOL   C34313847   5.891   6.085   3.000 -0.5732 -0.8230 -0.3286
   33MOL   C34413848   5.791   5.979   2.975  0.2262 -0.3422  0.1638
   33MOL   C34513849   5.671   5.978   3.060 -0.2157 -0.2505  0.3132
   33MOL   C34613850   5.565   5.897   2.988  0.0552 -0.1540 -1.0024
   33MOL   H34713851   6.114   6.046   2.557 -0.1277 -1.0939 -0.2850
   33MOL   H34813852   5.978   6.089   2.648 -0.0374  1.7962  1.3292
   33MOL   H34913853   6.257   6.187   2.754 -0.0510  0.0456  1.0883
   33MOL   H35013854   5.839   6.180   2.986 -2.5274 -1.6860  0.8832
   33MOL   H35113855   5.945   6.092   3.094 -0.6602 -1.3304 -0.2395
   33MOL   H35213856   5.755   5.994   2.873 -0.1935 -0.1623  0.3361
   33MOL   H35313857   5.832   5.879   2.970  2.3375  0.4944  0.2003
   33MOL   H35413858   5.650   6.082   3.087 -3.4263 -0.5376 -0.8412
   33MOL   H35513859   5.685   5.940   3.161 -0.9021 -0.3252  0.3852
   33MOL   H35613860   5.464   5.895   3.032 -0.2859  0.3960 -1.7600
   33MOL   H35713861   5.591   5.791   2.987 -2.0626 -0.7066 -1.1336
   33MOL   H35813862   5.554   5.931   2.886 -2.7907  1.0337 -0.3587
   33MOL   C35913863   6.269   5.980   2.759 -0.7882 -0.4400 -0.0386
   33MOL   C36013864   6.203   5.849   2.800  0.2949 -0.2521  0.1137
   33MOL   C36113865   6.093   5.812   2.696 -0.0256 -0.3299 -0.9078
   33MOL   O36213866   5.978   5.828   2.726  0.3174 -0.3908 -0.5181
   33MOL   O36313867   6.143   5.768   2.581  0.2303 -0.2209 -0.0911
   33MOL   C36413868   6.054   5.703   2.479 -0.4955 -0.5956  0.7437
   33MOL   C36513869   6.088   5.561   2.451  0.2528 -0.0348 -0.0682
   33MOL   C36613870   6.044   5.510   2.316 -0.5599  0.2263  0.5925
   33MOL   C36713871   6.094   5.363   2.289  0.3128  0.6223  0.0544
   33MOL   H36813872   6.347   5.992   2.834 -1.6613  0.7506  0.7055
   33MOL   H36913873   6.323   5.979   2.665  1.4682  1.5243  1.1689
   33MOL   H37013874   6.148   5.873   2.891  1.8592  1.7386  0.5584
   33MOL   H37113875   6.080   5.746   2.382 -0.7983 -3.6076 -0.7116
   33MOL   H37213876   5.948   5.717   2.498 -0.5166 -1.6168  1.4124
   33MOL   H37313877   6.196   5.551   2.449  0.1307 -1.8993  1.0620
   33MOL   H37413878   6.047   5.504   2.535 -1.1606 -0.1947 -0.8499
   33MOL   H37513879   6.090   5.578   2.244  0.6634 -0.2711  0.9122
   33MOL   H37613880   5.935   5.516   2.303 -0.8200 -1.3776  1.9159
   33MOL   H37713881   6.202   5.351   2.303  0.1839 -2.3244 -1.2533
   33MOL   H37813882   6.064   5.321   2.193  0.3480  0.1859  0.2330
   33MOL   H37913883   6.044   5.302   2.364 -0.1610 -0.2954 -1.0172
   33MOL   C38013884   6.300   5.735   2.834 -0.0113 -0.8459 -0.6076
   33MOL   C38113885   6.406   5.744   2.942 -0.1954 -0.6685  0.0051
   33MOL   C38213886   6.349   5.799   3.076 -0.9171  0.1833  0.0699
   33MOL   O38313887   6.277   5.728   3.142  0.1809 -0.5859 -0.4656
   33MOL   O38413888   6.409   5.909   3.126  0.4925 -0.1672 -0.0376
   33MOL   C38513889   6.353   5.980   3.236  0.0469  0.5786 -0.0253
   33MOL   C38613890   6.433   6.114   3.254 -0.2818 -0.1557  0.0260
   33MOL   C38713891   6.571   6.101   3.321  0.2106  0.6143 -0.3074
   33MOL   C38813892   6.650   6.227   3.346  0.0950 -0.1307  0.0850
   33MOL   H38913893   6.348   5.704   2.741 -1.4992 -0.1141 -1.6418
   33MOL   H39013894   6.236   5.651   2.858 -0.8922  0.1451  0.5928
   33MOL   H39113895   6.477   5.823   2.916 -0.9915  0.5393  1.4280
   33MOL   H39213896   6.344   5.924   3.329 -2.2513 -1.5458 -1.4847
   33MOL   H39313897   6.252   6.008   3.206  0.5190  2.8350  0.3668
   33MOL   H39413898   6.441   6.150   3.151  1.4812 -0.0963  0.1609
   33MOL   H39513899   6.364   6.176   3.310 -0.0368 -0.4793  0.6900
   33MOL   H39613900   6.633   6.039   3.255  0.2422  0.8763 -0.5225
   33MOL   H39713901   6.566   6.046   3.415  2.6994  0.5918 -0.1450
   33MOL   H39813902   6.584   6.293   3.402  1.1926  1.2004 -0.1668
   33MOL   H39913903   6.696   6.281   3.264  0.1958  0.7602  0.7295
   33MOL   H40013904   6.729   6.208   3.419 -0.3863 -0.0629  0.6256
   33MOL   C40113905   6.474   5.612   2.956 -0.4349 -0.4822  0.0269
   33MOL   C40213906   6.591   5.601   3.063 -0.6320 -0.1858 -0.1026
   33MOL   C40313907   6.619   5.458   3.111 -0.0523 -0.8008 -0.8230
   33MOL   O40413908   6.577   5.358   3.055 -0.2286 -0.0144 -0.1534
   33MOL   O40513909   6.690   5.459   3.231  0.2421  0.4967  0.4042
   33MOL   C40613910   6.741   5.342   3.283 -0.4632 -0.1942 -0.8389
   33MOL   C40713911   6.876   5.363   3.358  0.5248 -0.4568  0.3032
   33MOL   C40813912   6.847   5.404   3.505 -0.0330  0.1116 -0.0765
   33MOL   C40913913   6.981   5.403   3.575 -0.5935  0.0149 -0.2489
   33MOL   H41013914   6.510   5.574   2.861  2.2677 -0.4755  0.9920
   33MOL   H41113915   6.403   5.537   2.992 -0.6912 -0.6261 -0.7795
   33MOL   H41213916   6.569   5.664   3.149 -0.8690 -0.7536  0.2523
   33MOL   H41313917   6.767   5.290   3.191 -0.7962 -0.4632 -0.7824
   33MOL   H41413918   6.666   5.289   3.342 -1.0891  2.0485  0.4286
   33MOL   H41513919   6.928   5.267   3.361  2.4872  0.5045 -1.4359
   33MOL   H41613920   6.942   5.426   3.299 -0.2109 -0.6311 -0.7325
   33MOL   H41713921   6.780   5.331   3.549 -0.3043  0.1587 -0.4086
   33MOL   H41813922   6.804   5.501   3.527 -0.1195  0.1719 -0.5084
   33MOL   H41913923   7.029   5.490   3.531 -2.8891  1.2373 -0.4566
   33MOL   H42013924   7.038   5.310   3.578 -1.0822 -0.2938 -0.5263
   33MOL   H42113925   6.976   5.427   3.681  3.6831  0.2689 -0.0253
   33MOL   H42213926   6.680   5.636   3.010 -1.1820 -0.1522 -1.0158
   34MOL     C113927   4.226   2.523   3.924 -0.3126 -0.0503 -0.3892
   34MOL     C213928   4.089   2.593   3.938  0.0287  0.3181  0.3463
   34MOL     C313929   4.109   2.745   3.907  0.3540  0.3086 -0.0113
   34MOL     O413930   4.056   2.826   3.981  0.2414 -0.0874 -0.0588
   34MOL     O513931   4.180   2.772   3.793  0.6892  0.3261 -0.1273
   34MOL     C613932   4.209   2.900   3.758 -0.9473 -0.0879  0.0997
   34MOL     C713933   4.300   2.900   3.627 -0.1392  0.0085 -0.0039
   34MOL     C813934   4.355   3.043   3.593  0.9720  0.3732 -0.5118
   34MOL     C913935   4.481   3.080   3.672  0.3777 -0.1365 -0.8365
   34MOL    H1013936   4.255   2.464   4.011 -1.0692 -0.2657 -0.2737
   34MOL    H1113937   4.225   2.441   3.853 -0.8798  0.5126 -1.0353
   34MOL    H1213938   4.055   2.597   4.042 -0.8632 -1.3361  0.1235
   34MOL    H1313939   4.264   2.964   3.828 -2.3866  0.9259  0.3327
   34MOL    H1413940   4.117   2.955   3.737 -2.5165 -2.2056  1.2996
   34MOL    H1513941   4.380   2.828   3.643 -1.8323 -2.5012 -2.4527
   34MOL    H1613942   4.246   2.857   3.543 -0.8076  1.4669 -0.3370
   34MOL    H1713943   4.273   3.113   3.609  1.6370  0.3776  3.0802
   34MOL    H1813944   4.372   3.032   3.485  1.0298  4.2403 -0.9850
   34MOL    H1913945   4.500   3.187   3.659 -1.4027  0.3086  0.1483
   34MOL    H2013946   4.568   3.018   3.649  0.7954  0.2951 -0.4362
   34MOL    H2113947   4.464   3.066   3.778  0.6683  2.4456 -0.4099
   34MOL    H2213948   4.310   2.588   3.900  0.9322 -0.7401  2.0145
   34MOL    C2313949   3.974   2.532   3.848 -0.0412 -0.4656  0.3259
   34MOL    C2413950   3.840   2.595   3.860  1.4516 -0.5578  0.6856
   34MOL    C2513951   3.754   2.560   3.740 -0.4057 -0.0620 -0.4091
   34MOL    O2613952   3.650   2.493   3.755  0.3639  0.2376 -0.3247
   34MOL    O2713953   3.793   2.620   3.619 -0.3363  0.1266 -0.4585
   34MOL    C2813954   3.695   2.624   3.511 -0.1436  0.0742 -0.5402
   34MOL    C2913955   3.768   2.671   3.382  0.6567 -0.2727  0.3284
   34MOL    C3013956   3.856   2.803   3.391 -0.1140  0.8193 -0.9180
   34MOL    C3113957   3.786   2.931   3.437 -0.1228  0.1707  0.6583
   34MOL    H3213958   3.967   2.430   3.886 -2.0857 -0.1573  0.8575
   34MOL    H3313959   4.003   2.527   3.743  1.5629 -2.3244  0.8329
   34MOL    H3413960   3.849   2.702   3.841  1.4450 -0.8340 -0.9414
   34MOL    H3513961   3.598   2.669   3.531 -0.7180 -1.7680  0.9869
   34MOL    H3613962   3.667   2.521   3.486 -0.5100 -0.1305  0.7022
   34MOL    H3713963   3.833   2.589   3.351 -0.3139 -0.6454 -0.7551
   34MOL    H3813964   3.683   2.663   3.314 -0.7320 -0.3020  2.0487
   34MOL    H3913965   3.907   2.830   3.299  0.8867  3.0951  0.2736
   34MOL    H4013966   3.928   2.780   3.469 -1.6822  1.7514  0.8322
   34MOL    H4113967   3.811   2.951   3.541  0.8862 -0.5069  0.5595
   34MOL    H4213968   3.678   2.928   3.422 -0.4152  0.0897  2.6424
   34MOL    H4313969   3.827   3.012   3.375 -0.8044 -0.4383 -0.6082
   34MOL    C4413970   3.781   2.563   4.001 -0.3369  0.2771 -0.3023
   34MOL    C4513971   3.642   2.603   4.029 -0.7086  0.1133 -0.2712
   34MOL    C4613972   3.590   2.518   4.152 -1.0720  0.2157 -0.1111
   34MOL    O4713973   3.654   2.440   4.220 -0.1999 -0.7820  0.1182
   34MOL    O4813974   3.453   2.534   4.163  0.1532  0.3630  0.1320
   34MOL    C4913975   3.384   2.484   4.276  0.5413 -0.0383 -0.7360
   34MOL    C5013976   3.291   2.361   4.247  0.0753 -0.7876  0.3965
   34MOL    C5113977   3.200   2.327   4.363  0.8486 -0.3471 -0.5800
   34MOL    C5213978   3.134   2.189   4.345 -0.0108 -0.0962 -0.0011
   34MOL    H5313979   3.844   2.606   4.079 -1.0729 -0.6587  0.8253
   34MOL    H5413980   3.797   2.456   4.009 -0.9651  0.2090  0.0806
   34MOL    H5513981   3.572   2.580   3.949 -0.1237  1.2828 -1.1350
   34MOL    H5613982   3.319   2.559   4.321 -1.6024 -1.8196 -0.7852
   34MOL    H5713983   3.452   2.471   4.360  0.2685  0.7995 -0.3750
   34MOL    H5813984   3.227   2.392   4.164 -0.3598 -0.4591  0.8518
   34MOL    H5913985   3.364   2.281   4.236  0.3396 -0.4586 -0.2702
   34MOL    H6013986   3.129   2.409   4.373 -0.5994 -1.7550  1.0078
   34MOL    H6113987   3.256   2.331   4.457 -0.3792  0.2563  0.1333
   34MOL    H6213988   3.195   2.099   4.335  2.4125  0.8785  4.6352
   34MOL    H6313989   3.071   2.182   4.256  0.6796  3.6111 -0.8510
   34MOL    H6413990   3.059   2.168   4.421  0.1741 -2.7293 -0.4844
   34MOL    C6513991   3.620   2.757   4.059 -0.5316  0.2178  0.2068
   34MOL    C6613992   3.646   2.861   3.949 -0.2900 -0.0254 -0.1435
   34MOL    C6713993   3.561   2.836   3.830 -0.0601  0.7388 -0.4016
   34MOL    O6813994   3.616   2.843   3.720  0.4566  0.4567 -0.0317
   34MOL    O6913995   3.437   2.793   3.857 -1.3732 -0.4481  0.6097
   34MOL    C7013996   3.360   2.767   3.738  0.1469 -0.7339 -0.0932
   34MOL    C7113997   3.263   2.655   3.787 -0.0246 -0.1781 -0.9236
   34MOL    C7213998   3.144   2.651   3.693  0.0661 -1.0527  0.3610
   34MOL    C7313999   3.056   2.521   3.712 -0.0264 -0.5079 -0.3981
   34MOL    H7414000   3.678   2.775   4.149  0.5599  2.4655 -0.9019
   34MOL    H7514001   3.514   2.765   4.085 -0.4909  1.0069  0.1635
   34MOL    H7614002   3.752   2.851   3.925 -0.1253 -2.0683  1.3004
   34MOL    H7714003   3.424   2.725   3.661  1.8633 -0.6773  1.2817
   34MOL    H7814004   3.318   2.863   3.707  2.9010 -0.8929 -4.6186
   34MOL    H7914005   3.317   2.561   3.797 -0.0011 -0.0891 -0.1118
   34MOL    H8014006   3.230   2.680   3.888  1.9681 -0.0436 -0.2799
   34MOL    H8114007   3.180   2.656   3.591  1.3181 -0.8530  0.8057
   34MOL    H8214008   3.078   2.738   3.702  0.8213 -0.3155 -1.0742
   34MOL    H8314009   3.034   2.505   3.818  0.2779  0.6245 -0.1635
   34MOL    H8414010   3.094   2.428   3.669 -2.6979 -3.7323  3.7142
   34MOL    H8514011   2.962   2.554   3.668  0.0003  1.7585  1.1714
   34MOL    C8614012   3.630   3.002   4.000 -0.4716  0.0304  0.4898
   34MOL    C8714013   3.689   3.107   3.894  0.3362 -0.0996 -0.6143
   34MOL    C8814014   3.623   3.240   3.933  0.3243  0.3709  0.2753
   34MOL    O8914015   3.522   3.279   3.875 -0.1867 -0.0175 -0.8749
   34MOL    O9014016   3.691   3.299   4.033 -0.2025  0.3669 -0.3126
   34MOL    C9114017   3.624   3.410   4.098  0.1553  0.1419  0.1357
   34MOL    C9214018   3.700   3.535   4.055 -0.1461  0.4606 -0.9364
   34MOL    C9314019   3.672   3.589   3.913  0.3131  0.2510 -0.1873
   34MOL    C9414020   3.762   3.699   3.865  0.0413  0.2461 -0.2757
   34MOL    H9514021   3.691   3.003   4.091  0.4944  0.3764 -0.1559
   34MOL    H9614022   3.524   3.019   4.020 -0.4701  1.4383 -0.6355
   34MOL    H9714023   3.649   3.091   3.794  1.9165  0.4303 -1.3517
   34MOL    H9814024   3.644   3.396   4.204 -0.5101 -0.4498  0.1876
   34MOL    H9914025   3.516   3.409   4.078  0.3001 -2.2385 -0.6367
   34MOL   H10014026   3.672   3.616   4.122  0.1675 -0.6620  0.5897
   34MOL   H10114027   3.807   3.535   4.078 -0.6695 -1.5344  1.8746
   34MOL   H10214028   3.569   3.626   3.907  0.3077 -0.0635 -2.2491
   34MOL   H10314029   3.676   3.508   3.841  1.4036  0.4211 -0.3236
   34MOL   H10414030   3.721   3.726   3.768  0.0379  1.3580  0.0267
   34MOL   H10514031   3.857   3.649   3.845  1.7458  3.0705  0.3672
   34MOL   H10614032   3.770   3.783   3.934  1.2564  0.7616 -1.0211
   34MOL   C10714033   3.846   3.109   3.884 -0.1463 -0.3269 -0.3122
   34MOL   C10814034   3.897   3.238   3.801  0.0145  0.0168  0.5430
   34MOL   C10914035   4.031   3.292   3.858 -0.0944 -0.3347  0.6204
   34MOL   O11014036   4.048   3.411   3.877  0.4364 -0.0246 -0.0596
   34MOL   O11114037   4.119   3.198   3.884  0.6899 -0.1301  0.1446
   34MOL   C11214038   4.249   3.223   3.927 -0.0379 -0.0386 -0.5728
   34MOL   C11314039   4.266   3.159   4.070 -0.0362 -0.3460 -0.5257
   34MOL   C11414040   4.211   3.240   4.182 -0.4654 -0.1371 -0.4896
   34MOL   C11514041   4.245   3.186   4.323 -0.8220 -0.5089  0.6396
   34MOL   H11614042   3.873   3.015   3.837  2.1290 -0.1952  0.6500
   34MOL   H11714043   3.884   3.102   3.986 -0.6533 -1.1332 -0.1701
   34MOL   H11814044   3.825   3.319   3.799 -0.4634 -0.4137 -2.6553
   34MOL   H11914045   4.267   3.330   3.926 -1.2922  0.1780 -0.2545
   34MOL   H12014046   4.319   3.186   3.852  0.1770  0.4840 -0.6356
   34MOL   H12114047   4.224   3.059   4.072  2.6987 -1.5195  0.6871
   34MOL   H12214048   4.374   3.144   4.069  0.3942  2.2801  0.9737
   34MOL   H12314049   4.102   3.234   4.180 -0.4333 -0.9453 -0.0419
   34MOL   H12414050   4.239   3.345   4.179  0.9785 -0.3910  2.2706
   34MOL   H12514051   4.346   3.206   4.358 -0.5831 -2.9938  1.5046
   34MOL   H12614052   4.252   3.077   4.317  0.4232 -0.3924 -0.2221
   34MOL   H12714053   4.177   3.212   4.403  2.2222  2.1000  2.5005
   34MOL   C12814054   3.916   3.210   3.649  0.0286  0.2234 -0.1186
   34MOL   C12914055   3.859   3.315   3.542 -0.5404  0.3687  0.2108
   34MOL   C13014056   3.711   3.356   3.566 -0.7624 -0.1128 -0.3978
   34MOL   O13114057   3.682   3.475   3.588  0.4112  0.0243 -0.2041
   34MOL   O13214058   3.626   3.248   3.553 -0.3208  0.0939 -0.1678
   34MOL   C13314059   3.493   3.274   3.560  0.7159 -0.0022 -0.3525
   34MOL   C13414060   3.390   3.158   3.598  0.1885  0.2480  0.4129
   34MOL   C13514061   3.242   3.194   3.557 -0.4780 -0.1259  0.6075
   34MOL   C13614062   3.154   3.073   3.557 -0.4324  0.4016  0.5926
   34MOL   H13714063   3.862   3.116   3.632 -1.5744  0.6367  2.5055
   34MOL   H13814064   4.020   3.187   3.624  0.3069  1.2203  0.1297
   34MOL   H13914065   3.859   3.257   3.450  2.2079  0.2040  0.2947
   34MOL   H14014066   3.491   3.323   3.463 -0.1933 -0.4888 -0.5786
   34MOL   H14114067   3.480   3.356   3.631  0.8019 -1.5130  1.4505
   34MOL   H14214068   3.421   3.058   3.569  0.4688  0.4297  0.0980
   34MOL   H14314069   3.398   3.141   3.705  0.1573  0.4911  0.4526
   34MOL   H14414070   3.242   3.236   3.456  1.2516 -0.5799  0.3901
   34MOL   H14514071   3.196   3.275   3.614  2.4896  1.4769  0.8606
   34MOL   H14614072   3.120   3.035   3.654  0.3440 -0.7397  0.4300
   34MOL   H14714073   3.197   2.982   3.514 -0.9799  0.0814  0.7189
   34MOL   H14814074   3.061   3.093   3.504  0.9257  0.0652 -1.9872
   34MOL   C14914075   3.965   3.428   3.510 -0.0900 -0.6168  0.2036
   34MOL   C15014076   3.940   3.506   3.381  0.1190 -0.1675  0.3101
   34MOL   C15114077   3.967   3.659   3.400 -0.5142  1.5045  0.7246
   34MOL   O15214078   4.055   3.718   3.333 -0.4094  0.0005 -0.9979
   34MOL   O15314079   3.874   3.721   3.474 -0.0478  0.0916  0.4664
   34MOL   C15414080   3.883   3.864   3.480 -0.4994  0.2723 -0.2977
   34MOL   C15514081   3.806   3.936   3.379  0.1154  0.1789  0.1794
   34MOL   C15614082   3.794   4.087   3.416 -0.2315  0.3627 -0.0806
   34MOL   C15714083   3.721   4.166   3.309  0.0709 -0.0377  0.0594
   34MOL   H15814084   4.064   3.383   3.514  0.2745  0.3152  2.3241
   34MOL   H15914085   3.965   3.499   3.592  0.9126  1.6751 -1.7166
   34MOL   H16014086   3.833   3.503   3.359  0.1422  0.1791  0.1467
   34MOL   H16114087   3.987   3.896   3.479 -0.4443  0.0888 -1.7054
   34MOL   H16214088   3.846   3.885   3.580  0.3593 -1.0848  0.3249
   34MOL   H16314089   3.859   3.932   3.283  1.0992 -1.9631  0.7786
   34MOL   H16414090   3.704   3.907   3.356  0.1575 -0.3795  0.6917
   34MOL   H16514091   3.895   4.123   3.434  0.1800  0.2358 -2.0252
   34MOL   H16614092   3.746   4.105   3.512 -2.5789 -2.3414 -0.7030
   34MOL   H16714093   3.616   4.137   3.304 -1.3286  4.5687  0.5596
   34MOL   H16814094   3.767   4.141   3.213  1.4905 -2.3005  1.2898
   34MOL   H16914095   3.724   4.274   3.323 -2.9152  0.0935  0.0024
   34MOL   C17014096   4.006   3.438   3.258 -0.1748 -0.2454  0.4691
   34MOL   C17114097   4.160   3.445   3.242  0.1385  0.5206  0.0816
   34MOL   C17214098   4.215   3.301   3.274  0.1468 -0.2849 -0.0286
   34MOL   O17314099   4.270   3.280   3.384  0.9285 -0.7354 -0.2070
   34MOL   O17414100   4.195   3.220   3.166 -0.3609 -0.1593  0.1158
   34MOL   C17514101   4.266   3.093   3.167  0.1533 -0.3220 -0.2159
   34MOL   C17614102   4.331   3.087   3.029 -0.2433 -0.1977  0.6959
   34MOL   C17714103   4.439   2.987   2.996 -0.2953 -0.1218 -0.0882
   34MOL   C17814104   4.470   2.988   2.846  0.2272 -0.1598 -0.4708
   34MOL   H17914105   3.967   3.487   3.168 -0.1776 -0.1790  0.5062
   34MOL   H18014106   3.976   3.333   3.263  0.4997 -0.5323 -1.0889
   34MOL   H18114107   4.205   3.503   3.322 -2.1491 -0.4693  2.1357
   34MOL   H18214108   4.199   3.008   3.184 -1.7855  1.3072  0.4871
   34MOL   H18314109   4.343   3.100   3.243  0.5442 -4.0688 -0.1548
   34MOL   H18414110   4.255   3.063   2.955  0.3224 -0.0635  0.0691
   34MOL   H18514111   4.359   3.190   3.005 -0.7103  0.0627  1.2278
   34MOL   H18614112   4.397   2.889   3.021 -0.2582 -0.2569 -0.5546
   34MOL   H18714113   4.527   2.987   3.061  1.4295 -1.7681 -2.3178
   34MOL   H18814114   4.554   2.923   2.823 -0.3550 -0.9802 -0.2671
   34MOL   H18914115   4.500   3.087   2.811  0.7595  0.6761  2.2707
   34MOL   H19014116   4.387   2.952   2.784 -0.2562 -0.9224  0.6079
   34MOL   C19114117   4.205   3.506   3.108  0.5318 -0.1615  0.2821
   34MOL   C19214118   4.362   3.517   3.094  0.4161  0.0837 -0.3789
   34MOL   C19314119   4.380   3.592   2.962  0.2853 -0.6687  0.4217
   34MOL   O19414120   4.419   3.710   2.961  0.1993  0.1737 -0.7013
   34MOL   O19514121   4.358   3.515   2.856  0.1113 -0.4220 -0.5021
   34MOL   C19614122   4.370   3.572   2.723  0.8692 -0.1958  0.5890
   34MOL   C19714123   4.316   3.472   2.618  0.2682  0.1219 -0.4774
   34MOL   C19814124   4.413   3.356   2.610 -0.3978 -0.2775  0.0640
   34MOL   C19914125   4.378   3.258   2.494  0.2704  0.1486 -0.0485
   34MOL   H20014126   4.164   3.607   3.102  1.6765  0.2742 -0.4605
   34MOL   H20114127   4.158   3.449   3.029 -0.0235 -0.8137  1.0776
   34MOL   H20214128   4.397   3.414   3.080 -1.9200 -0.8745  0.4766
   34MOL   H20314129   4.474   3.603   2.716  0.7398 -0.3805 -2.8370
   34MOL   H20414130   4.305   3.659   2.714  0.7027 -0.4589 -0.8348
   34MOL   H20514131   4.217   3.435   2.647 -0.2031  1.1833 -0.6857
   34MOL   H20614132   4.307   3.530   2.525  0.3248  0.1295 -0.4782
   34MOL   H20714133   4.416   3.303   2.705 -1.3503 -0.2043  0.1455
   34MOL   H20814134   4.510   3.404   2.597 -0.9724  0.3578 -2.0887
   34MOL   H20914135   4.289   3.198   2.515  1.1892 -1.7330 -1.3575
   34MOL   H21014136   4.458   3.186   2.477 -0.6333 -0.7779 -0.4665
   34MOL   H21114137   4.357   3.323   2.410  0.3823 -0.8659 -0.8664
   34MOL   C21214138   4.449   3.561   3.209  0.5772  0.3760  0.2208
   34MOL   C21314139   4.603   3.547   3.196 -0.2783 -0.0576 -0.4371
   34MOL   C21414140   4.664   3.667   3.118  0.2309  0.4073 -0.2274
   34MOL   O21514141   4.735   3.644   3.024 -0.4325  0.0363  0.3189
   34MOL   O21614142   4.632   3.785   3.166 -0.6262  0.4120 -0.0322
   34MOL   C21714143   4.651   3.896   3.087  0.2946 -0.5482  0.7421
   34MOL   C21814144   4.746   3.995   3.141 -0.3977 -0.4542 -0.1626
   34MOL   C21914145   4.888   3.934   3.159 -0.4186 -0.2504 -0.5297
   34MOL   C22014146   4.982   4.035   3.221  0.7342 -0.1610  1.4366
   34MOL   H22114147   4.416   3.491   3.285 -1.6611  0.9246 -0.2324
   34MOL   H22214148   4.430   3.659   3.251  0.0094  0.3478  0.0280
   34MOL   H22314149   4.627   3.466   3.128  0.5032 -0.0177 -0.2103
   34MOL   H22414150   4.550   3.938   3.081  0.2467 -0.8474 -0.5718
   34MOL   H22514151   4.677   3.869   2.985  2.7206  0.0717  1.1673
   34MOL   H22614152   4.740   4.083   3.077  3.0826  0.9162  1.2809
   34MOL   H22714153   4.708   4.027   3.237 -0.2297 -1.9530  0.4153
   34MOL   H22814154   4.934   3.909   3.064 -0.9751  1.6255 -1.3046
   34MOL   H22914155   4.874   3.852   3.230 -1.7186 -1.2773 -1.9321
   34MOL   H23014156   5.081   3.990   3.224  0.5800 -0.7399 -0.6531
   34MOL   H23114157   4.957   4.080   3.317 -1.7479 -0.1485  0.8195
   34MOL   H23214158   4.984   4.118   3.150  1.6056 -1.1620  0.2553
   34MOL   C23314159   4.679   3.529   3.340  0.1405 -0.5755  0.2506
   34MOL   C23414160   4.641   3.406   3.424 -0.0123  0.1323 -0.4410
   34MOL   C23514161   4.664   3.276   3.344 -0.3091  0.1962 -1.0121
   34MOL   O23614162   4.584   3.241   3.268  0.6789  0.0323  1.2798
   34MOL   O23714163   4.779   3.212   3.377  0.0467 -0.3671 -0.4259
   34MOL   C23814164   4.825   3.110   3.294  0.1012  0.1809 -0.2461
   34MOL   C23914165   4.803   2.969   3.347  0.6781 -0.5984  0.2522
   34MOL   C24014166   4.653   2.933   3.351 -0.3032 -0.9051 -0.0861
   34MOL   C24114167   4.640   2.783   3.361 -0.1003  0.1220 -0.1055
   34MOL   H24214168   4.660   3.620   3.397  1.1970 -1.2218  1.6701
   34MOL   H24314169   4.786   3.539   3.324 -0.2932 -0.3003 -2.6322
   34MOL   H24414170   4.536   3.406   3.455 -0.0121  0.2854 -0.4448
   34MOL   H24514171   4.933   3.119   3.281  0.2320 -2.0303 -0.8516
   34MOL   H24614172   4.774   3.109   3.198  1.5796 -0.3399 -1.0414
   34MOL   H24714173   4.858   2.916   3.268  0.8043  0.3835 -0.3190
   34MOL   H24814174   4.846   2.952   3.446  0.7095  0.4891  0.4263
   34MOL   H24914175   4.610   2.966   3.256  0.1674 -0.2927 -0.0874
   34MOL   H25014176   4.604   2.987   3.432  0.4086  2.6925 -1.9560
   34MOL   H25114177   4.689   2.751   3.452  1.2006 -0.8858 -1.1487
   34MOL   H25214178   4.688   2.734   3.277  1.0668 -0.8936  1.1429
   34MOL   H25314179   4.536   2.750   3.364  0.4034 -1.6031 -0.9826
   34MOL   C25414180   4.705   3.398   3.562  0.1102  0.3083 -0.1702
   34MOL   C25514181   4.660   3.501   3.666  0.4459 -0.0544 -0.1425
   34MOL   C25614182   4.510   3.484   3.699 -0.1792 -0.0200  0.9451
   34MOL   O25714183   4.473   3.410   3.792  0.0812  0.0410  0.5575
   34MOL   O25814184   4.431   3.549   3.614 -0.2893 -0.1462 -0.3190
   34MOL   C25914185   4.290   3.530   3.620  0.7957 -0.2079  0.1314
   34MOL   C26014186   4.231   3.645   3.706 -0.4597 -0.1939  0.2477
   34MOL   C26114187   4.255   3.782   3.640 -0.6072 -1.0067 -0.1229
   34MOL   C26214188   4.208   3.908   3.709 -0.2712 -0.2293 -0.4794
   34MOL   H26314189   4.811   3.409   3.539 -0.0193 -1.0058 -1.4962
   34MOL   H26414190   4.702   3.298   3.603  0.8946 -0.7229 -2.5168
   34MOL   H26514191   4.668   3.597   3.614  2.3631 -0.7315 -1.1553
   34MOL   H26614192   4.260   3.427   3.642 -1.5837  0.2954 -0.5571
   34MOL   H26714193   4.258   3.545   3.517  2.0878 -0.5026 -0.3173
   34MOL   H26814194   4.124   3.623   3.705 -0.6441  0.7043  0.0859
   34MOL   H26914195   4.266   3.650   3.809 -0.2959  0.9345  0.1353
   34MOL   H27014196   4.204   3.784   3.544 -3.1939  2.9144  1.1988
   34MOL   H27114197   4.361   3.797   3.621 -1.1665  1.0332 -1.7575
   34MOL   H27214198   4.246   3.991   3.649 -1.7112  0.1288 -0.9177
   34MOL   H27314199   4.249   3.911   3.810  0.5678 -0.0595 -0.8202
   34MOL   H27414200   4.100   3.913   3.724 -0.1776 -3.5189  1.9479
   34MOL   C27514201   4.740   3.505   3.799 -0.6785  0.1786  1.0228
   34MOL   C27614202   4.895   3.545   3.789 -0.2589  0.2962 -1.0214
   34MOL   C27714203   4.904   3.677   3.704 -0.4201 -0.3424 -0.1086
   34MOL   O27814204   4.949   3.689   3.588 -0.3930 -0.4011 -0.1971
   34MOL   O27914205   4.846   3.780   3.773 -0.3298 -0.3886 -0.3082
   34MOL   C28014206   4.828   3.912   3.724  0.8827  0.0192  0.3000
   34MOL   C28114207   4.698   3.933   3.638 -0.3725 -0.1879 -0.1525
   34MOL   C28214208   4.676   4.079   3.606  0.7534 -0.1221  0.5785
   34MOL   C28314209   4.543   4.106   3.527  0.0139 -0.2712 -0.7131
   34MOL   H28414210   4.730   3.403   3.838  0.2647 -0.5070 -0.4674
   34MOL   H28514211   4.686   3.561   3.875  0.8330  1.5735  1.0824
   34MOL   H28614212   4.946   3.464   3.736  2.1265  1.1779 -0.1459
   34MOL   H28714213   4.913   3.947   3.665 -0.0627 -0.8039 -1.5990
   34MOL   H28814214   4.825   3.981   3.808 -1.9524  0.7518 -0.3673
   34MOL   H28914215   4.709   3.886   3.540 -0.1999  0.1712 -0.3088
   34MOL   H29014216   4.612   3.889   3.687  0.3643 -0.0595  1.2859
   34MOL   H29114217   4.760   4.108   3.542  0.6138  1.6869  1.1893
   34MOL   H29214218   4.691   4.149   3.688 -0.4666  0.8892 -0.0399
   34MOL   H29314219   4.522   4.205   3.487 -0.5954  0.2975  0.9913
   34MOL   H29414220   4.463   4.091   3.599 -1.3121 -2.1437 -2.5121
   34MOL   H29514221   4.523   4.036   3.445 -3.2012  0.6840 -0.8257
   34MOL   C29614222   4.956   3.544   3.932 -0.3385  0.4191 -0.3107
   34MOL   C29714223   5.106   3.541   3.926  0.2171  0.2064  0.0847
   34MOL   C29814224   5.169   3.670   3.887 -0.6944 -0.7829  0.7842
   34MOL   O29914225   5.252   3.673   3.799 -0.0656  0.3261  0.4408
   34MOL   O30014226   5.132   3.779   3.953 -0.3490 -0.3397 -0.4226
   34MOL   C30114227   5.216   3.896   3.949  0.2767 -0.1563  0.4564
   34MOL   C30214228   5.147   4.008   4.032  0.4678  0.0697 -1.0242
   34MOL   C30314229   5.228   4.146   4.035 -0.7240  0.1070  0.4975
   34MOL   C30414230   5.178   4.243   4.142 -0.4406  0.6234 -0.3968
   34MOL   H30514231   4.913   3.457   3.983  0.6723  0.1457  0.0970
   34MOL   H30614232   4.936   3.638   3.982 -0.0123 -0.1129  0.8469
   34MOL   H30714233   5.144   3.468   3.855  0.2376  0.8942 -0.6118
   34MOL   H30814234   5.216   3.932   3.846 -3.3719  1.9644  1.0889
   34MOL   H30914235   5.316   3.877   3.986  0.8748  2.8897  0.5781
   34MOL   H31014236   5.045   4.029   3.999  0.2882  0.5811 -0.1392
   34MOL   H31114237   5.135   3.974   4.135 -0.0133  1.1193 -0.7323
   34MOL   H31214238   5.229   4.189   3.935  1.6431  1.3889  1.0327
   34MOL   H31314239   5.331   4.122   4.058  0.1420  3.7511  0.8273
   34MOL   H31414240   5.165   4.191   4.237 -1.6319 -0.0505 -0.9244
   34MOL   H31514241   5.084   4.286   4.108 -0.8297 -1.0551 -1.4937
   34MOL   H31614242   5.244   4.330   4.153 -0.9366  0.8757  0.6696
   34MOL   C31714243   5.170   3.492   4.065  0.3018 -0.0008 -0.4170
   34MOL   C31814244   5.134   3.350   4.114  0.3096  0.5940 -0.2544
   34MOL   C31914245   5.202   3.239   4.026 -0.3599 -0.1851  0.5658
   34MOL   O32014246   5.276   3.152   4.072  0.0152 -0.1328 -0.1317
   34MOL   O32114247   5.180   3.261   3.900  0.2219  0.0024  0.2069
   34MOL   C32214248   5.238   3.173   3.800  0.1414 -0.7069 -0.5520
   34MOL   C32314249   5.126   3.069   3.752  0.6702 -0.8683  1.1040
   34MOL   C32414250   5.016   3.133   3.661 -0.4219 -0.2850  0.2529
   34MOL   C32514251   5.073   3.206   3.535 -0.0172 -0.6535 -0.2298
   34MOL   H32614252   5.146   3.571   4.136 -2.0922  1.0623 -2.3359
   34MOL   H32714253   5.279   3.492   4.059  0.2879 -0.2625 -0.6846
   34MOL   H32814254   5.030   3.327   4.092  0.4274  0.1976 -0.3976
   34MOL   H32914255   5.316   3.110   3.840  0.4792 -0.5938 -1.0326
   34MOL   H33014256   5.273   3.231   3.715 -0.6137 -0.0171 -0.4055
   34MOL   H33114257   5.186   3.002   3.690  2.2641  0.4047  1.2227
   34MOL   H33214258   5.076   3.019   3.835  0.2669 -2.2195  0.0728
   34MOL   H33314259   4.945   3.202   3.707  1.7725  2.2397 -0.0111
   34MOL   H33414260   4.949   3.061   3.615  0.0220 -0.3735 -0.2605
   34MOL   H33514261   5.003   3.280   3.496 -1.3083 -1.3078  0.8197
   34MOL   H33614262   5.104   3.137   3.457 -0.5438 -1.3207  0.1525
   34MOL   H33714263   5.163   3.265   3.553 -0.8699  0.7301 -0.4607
   34MOL   C33814264   5.154   3.334   4.271 -0.3182  0.1192 -0.1495
   34MOL   C33914265   5.071   3.434   4.358 -0.0803  0.1688  0.1304
   34MOL   C34014266   4.931   3.449   4.299 -0.0140 -0.6997  0.3024
   34MOL   O34114267   4.883   3.554   4.274 -0.3939 -0.2794 -0.3875
   34MOL   O34214268   4.866   3.332   4.289  0.0440 -0.1391  0.2219
   34MOL   C34314269   4.730   3.329   4.241  0.0945  0.0556  0.7093
   34MOL   C34414270   4.673   3.182   4.236 -0.4174 -0.2055 -0.4546
   34MOL   C34514271   4.758   3.097   4.146 -0.1403 -0.0225  0.5332
   34MOL   C34614272   4.769   3.152   4.003 -0.0824 -1.2032  0.6041
   34MOL   H34714273   5.260   3.346   4.289 -0.4034 -0.7306  0.9925
   34MOL   H34814274   5.127   3.232   4.299 -0.4514  0.4630  1.0353
   34MOL   H34914275   5.117   3.533   4.356 -0.9677  0.5667 -0.6879
   34MOL   H35014276   4.733   3.391   4.152 -1.3480  0.7244  1.1047
   34MOL   H35114277   4.657   3.373   4.310  1.8875 -0.7973  3.2101
   34MOL   H35214278   4.665   3.138   4.335  0.4763 -0.6712 -0.5791
   34MOL   H35314279   4.569   3.187   4.206 -0.8048 -3.5529  0.2131
   34MOL   H35414280   4.736   2.990   4.141  3.6827 -0.8503 -0.2682
   34MOL   H35514281   4.859   3.105   4.187  0.7282 -2.2453 -1.0384
   34MOL   H35614282   4.787   3.073   3.931 -1.4439 -0.3239 -0.7195
   34MOL   H35714283   4.851   3.223   3.995  0.1417 -1.5484 -0.1693
   34MOL   H35814284   4.678   3.205   3.973  0.2016 -1.3957 -0.6068
   34MOL   C35914285   5.076   3.401   4.508  0.0490 -0.1601 -0.5833
   34MOL   C36014286   5.108   3.527   4.590  0.3916  0.6588  0.1027
   34MOL   C36114287   4.991   3.624   4.581  0.2636  0.5642  0.0967
   34MOL   O36214288   5.013   3.741   4.545  0.1546 -0.7651 -0.9716
   34MOL   O36314289   4.867   3.575   4.620 -0.1026 -0.2249 -0.4089
   34MOL   C36414290   4.755   3.654   4.598  0.0120  0.2084 -0.2916
   34MOL   C36514291   4.635   3.562   4.641 -0.5564  0.6087  0.1596
   34MOL   C36614292   4.506   3.645   4.627  0.2645  0.2241 -0.0217
   34MOL   C36714293   4.385   3.579   4.655  0.8652 -0.4567  0.1250
   34MOL   H36814294   5.161   3.336   4.527 -1.1036 -1.9650 -1.4787
   34MOL   H36914295   4.983   3.358   4.546 -0.2401  1.8428  1.0933
   34MOL   H37014296   5.202   3.568   4.554  0.2553 -1.5237 -2.8873
   34MOL   H37114297   4.742   3.684   4.494  1.7159  2.6699  0.1863
   34MOL   H37214298   4.770   3.755   4.637  1.7882 -0.2502  0.2377
   34MOL   H37314299   4.639   3.477   4.574 -1.5172  0.1302  0.6981
   34MOL   H37414300   4.652   3.530   4.744 -1.2723  1.2456  0.4775
   34MOL   H37514301   4.501   3.676   4.523 -0.8171  0.0229 -0.0385
   34MOL   H37614302   4.516   3.729   4.695 -1.8312 -1.3266  2.2967
   34MOL   H37714303   4.372   3.496   4.584 -0.2662 -0.2415  0.0654
   34MOL   H37814304   4.303   3.649   4.637  1.8523  1.0592  1.4259
   34MOL   H37914305   4.383   3.531   4.753  2.1370 -2.2437 -0.6948
   34MOL   C38014306   5.147   3.492   4.737 -0.4168 -0.0888 -0.7473
   34MOL   C38114307   5.213   3.602   4.826  0.3283 -0.4046 -0.3229
   34MOL   C38214308   5.126   3.722   4.879 -0.3552  0.5482 -0.3113
   34MOL   O38314309   5.000   3.718   4.884 -0.2697  0.3044 -0.0810
   34MOL   O38414310   5.202   3.817   4.929  0.4903 -0.2174  0.2622
   34MOL   C38514311   5.135   3.932   4.981  0.3140 -0.6740  0.3205
   34MOL   C38614312   5.137   3.929   5.131  0.1272  0.3267 -0.0568
   34MOL   C38714313   5.282   3.947   5.195  0.2917  0.2594  0.0614
   34MOL   C38814314   5.281   3.931   5.350  0.0185 -0.5859  0.2782
   34MOL   H38914315   5.212   3.405   4.732  1.3825  1.1605  0.5817
   34MOL   H39014316   5.052   3.459   4.779  1.1324 -1.4848  1.7575
   34MOL   H39114317   5.282   3.638   4.750  1.1115 -0.8361  0.1750
   34MOL   H39214318   5.037   3.946   4.935  0.6774  1.1549  0.0703
   34MOL   H39314319   5.194   4.017   4.948 -0.3483 -1.5253 -3.2182
   34MOL   H39414320   5.068   4.007   5.161 -0.0344 -0.2844  1.2177
   34MOL   H39514321   5.084   3.838   5.162 -0.2652  1.1008  1.5956
   34MOL   H39614322   5.326   4.039   5.154  0.3044  1.0825  1.8755
   34MOL   H39714323   5.357   3.879   5.156  1.4803  1.0480  0.9294
   34MOL   H39814324   5.223   4.016   5.386  0.0810  0.3628 -1.8218
   34MOL   H39914325   5.383   3.941   5.388  0.7075 -1.6534 -1.2803
   34MOL   H40014326   5.238   3.836   5.382  0.5063 -0.5459  1.0670
   34MOL   C40114327   5.300   3.538   4.947 -0.5086  0.1882  0.3237
   34MOL   C40214328   5.257   3.441   5.060 -0.7431 -0.2126  0.6768
   34MOL   C40314329   5.242   3.295   5.020  0.4211 -0.3367  0.4063
   34MOL   O40414330   5.130   3.250   5.002 -0.1076  0.8174  0.3529
   34MOL   O40514331   5.363   3.236   5.006  0.3291 -0.0661  0.6102
   34MOL   C40614332   5.375   3.104   4.963 -0.1753  0.4475 -0.8762
   34MOL   C40714333   5.339   3.082   4.818  0.0017 -0.0658 -0.3340
   34MOL   C40814334   5.299   2.937   4.778 -0.4845  0.9148  0.2147
   34MOL   C40914335   5.410   2.838   4.777  0.2520  0.1559 -0.2240
   34MOL   H41014336   5.339   3.623   5.003 -1.6003  1.6357 -1.0768
   34MOL   H41114337   5.390   3.500   4.897 -1.2892  1.2932 -1.9765
   34MOL   H41214338   5.162   3.464   5.109 -0.1245  1.2207  1.2062
   34MOL   H41314339   5.304   3.046   5.022 -0.3692  2.8637  1.3828
   34MOL   H41414340   5.477   3.065   4.970 -0.0207  0.4428 -2.9585
   34MOL   H41514341   5.255   3.147   4.792  1.4168  1.2544 -1.6848
   34MOL   H41614342   5.417   3.117   4.751  0.4651 -1.1641 -0.3722
   34MOL   H41714343   5.270   2.954   4.674  1.1969  1.6980 -0.1398
   34MOL   H41814344   5.207   2.915   4.832 -1.0301  0.3281 -0.9380
   34MOL   H41914345   5.462   2.842   4.872  2.6564 -0.7060 -1.4647
   34MOL   H42014346   5.487   2.862   4.703  1.8077 -1.8524  0.7079
   34MOL   H42114347   5.378   2.735   4.764 -1.5602  0.7823 -0.9153
   34MOL   H42214348   5.325   3.451   5.144 -0.4940 -2.2329  0.7484
   35MOL     C114349   0.965   6.643   3.144 -0.5968  0.0821 -0.0866
   35MOL     C214350   1.111   6.604   3.151 -0.2230 -0.4780  0.0703
   35MOL     C314351   1.190   6.694   3.054  0.4719 -0.6098  0.7069
   35MOL     O414352   1.272   6.652   2.975  0.0465 -0.0184 -0.6242
   35MOL     O514353   1.178   6.821   3.090  0.3205  0.4841  0.1011
   35MOL     C614354   1.256   6.923   3.027 -0.2631 -0.1892  0.7168
   35MOL     C714355   1.398   6.921   3.096 -0.0221  0.1440 -0.0981
   35MOL     C814356   1.417   6.979   3.232  1.0751  0.3066 -0.5343
   35MOL     C914357   1.559   6.960   3.281 -0.3745 -0.7864  0.8174
   35MOL    H1014358   0.928   6.645   3.041 -0.6827  0.0342 -0.0567
   35MOL    H1114359   0.901   6.577   3.203  3.0485 -4.1040 -0.5645
   35MOL    H1214360   1.133   6.503   3.116 -1.0162 -0.7574  0.3858
   35MOL    H1314361   1.201   7.016   3.039 -2.4176 -1.1874 -1.1251
   35MOL    H1414362   1.276   6.915   2.920 -0.6836 -0.2317  0.6409
   35MOL    H1514363   1.442   6.822   3.110  0.6787  0.6397  1.4124
   35MOL    H1614364   1.466   6.973   3.029 -1.7606  0.4925 -1.5934
   35MOL    H1714365   1.345   6.922   3.291  0.4349  0.4498 -1.1685
   35MOL    H1814366   1.408   7.087   3.225  1.8705  0.3614 -0.7386
   35MOL    H1914367   1.635   6.974   3.204  1.3907  0.0547  2.6712
   35MOL    H2014368   1.559   6.859   3.323  0.8290 -0.1364  2.4015
   35MOL    H2114369   1.597   7.026   3.358  2.2929  2.1488 -2.8116
   35MOL    H2214370   0.940   6.744   3.178 -0.1050  1.0137 -2.4062
   35MOL    C2314371   1.170   6.618   3.287 -0.2449 -0.2298 -0.4056
   35MOL    C2414372   1.124   6.521   3.393 -0.2361 -0.0392  0.3051
   35MOL    C2514373   0.983   6.551   3.457  0.0905  0.3565 -0.1479
   35MOL    O2614374   0.888   6.468   3.459 -0.0889 -0.6085 -0.0688
   35MOL    O2714375   0.961   6.680   3.478 -0.1229  0.4164 -0.1116
   35MOL    C2814376   0.836   6.731   3.509 -0.1384  0.3914 -0.1151
   35MOL    C2914377   0.856   6.873   3.570 -0.0575  0.5005  0.0064
   35MOL    C3014378   0.902   6.984   3.480  0.2588  0.5190  0.5810
   35MOL    C3114379   0.860   7.117   3.522  0.2820 -0.6438 -0.7082
   35MOL    H3214380   1.147   6.713   3.335 -1.1612 -2.6933  4.3684
   35MOL    H3314381   1.279   6.617   3.292 -0.2608  2.5545  1.4689
   35MOL    H3414382   1.179   6.549   3.483  0.8700 -0.1642 -0.3283
   35MOL    H3514383   0.783   6.686   3.592 -0.6745  1.4872  0.1412
   35MOL    H3614384   0.776   6.738   3.418  0.1177 -1.1842 -0.4169
   35MOL    H3714385   0.756   6.900   3.606 -0.3441  1.4025 -1.4018
   35MOL    H3814386   0.929   6.875   3.651  1.5398  1.4350 -1.4246
   35MOL    H3914387   0.864   6.964   3.379  0.9919 -0.9117  0.5679
   35MOL    H4014388   1.009   6.963   3.472  0.0213 -0.2496 -0.7531
   35MOL    H4114389   0.889   7.195   3.453  1.8732  0.2476  0.9415
   35MOL    H4214390   0.910   7.146   3.614 -1.3310 -1.4860  0.4795
   35MOL    H4314391   0.754   7.121   3.549  0.3901  1.0436 -0.5002
   35MOL    C4414392   1.140   6.370   3.354 -0.1275  0.1072  0.5421
   35MOL    C4514393   1.128   6.261   3.460 -0.6468 -1.0159  0.4541
   35MOL    C4614394   1.103   6.117   3.398 -0.1592  0.7711  0.7074
   35MOL    O4714395   1.117   6.090   3.278  0.1421 -0.1629 -0.0791
   35MOL    O4814396   1.058   6.043   3.491 -0.1903  0.0306 -0.2356
   35MOL    C4914397   1.021   5.908   3.461 -0.2738 -0.8558  0.1383
   35MOL    C5014398   1.086   5.817   3.564 -0.5397  0.1960 -0.2432
   35MOL    C5114399   1.060   5.670   3.560  0.8901 -0.2390 -0.3112
   35MOL    C5214400   1.095   5.605   3.690 -0.9608 -0.6421 -0.4594
   35MOL    H5314401   1.238   6.348   3.310 -1.9933 -0.5517 -3.4870
   35MOL    H5414402   1.074   6.346   3.271  1.0091 -0.2679 -0.2658
   35MOL    H5514403   1.033   6.282   3.508 -0.0695  1.9770  0.3759
   35MOL    H5614404   1.050   5.875   3.361  0.6099 -0.1415  0.1493
   35MOL    H5714405   0.914   5.891   3.468 -0.4443  0.9645  2.4992
   35MOL    H5814406   1.190   5.849   3.568 -0.3960 -0.2870 -0.1691
   35MOL    H5914407   1.039   5.864   3.651 -1.5983  0.9041 -1.1724
   35MOL    H6014408   1.133   5.642   3.484  2.2944  1.2296  0.4872
   35MOL    H6114409   0.956   5.651   3.535  0.9200  0.1180 -0.7078
   35MOL    H6214410   1.033   5.647   3.769  0.0003 -1.7351  0.9112
   35MOL    H6314411   1.202   5.619   3.709 -0.6457 -1.4089 -1.6109
   35MOL    H6414412   1.087   5.498   3.674  0.3789 -0.6336 -1.2689
   35MOL    C6514413   1.251   6.267   3.550  0.3570  0.5407 -0.3875
   35MOL    C6614414   1.247   6.218   3.696  0.7130  0.0685  0.1621
   35MOL    C6714415   1.362   6.118   3.733 -0.4639 -0.3436 -0.1064
   35MOL    O6814416   1.429   6.125   3.835  0.2499  0.1636 -0.2135
   35MOL    O6914417   1.379   6.020   3.644  0.2082  0.3358 -0.4190
   35MOL    C7014418   1.484   5.927   3.650  0.4499 -0.2989 -0.5664
   35MOL    C7114419   1.582   5.957   3.539 -0.1700 -0.0024  0.4723
   35MOL    C7214420   1.713   5.888   3.542 -0.1400 -0.4999 -0.4733
   35MOL    C7314421   1.782   5.897   3.396  0.2589  0.5383  0.2027
   35MOL    H7414422   1.288   6.369   3.556  0.6105  0.4765 -0.8462
   35MOL    H7514423   1.326   6.208   3.498  1.5265  1.6339  0.0392
   35MOL    H7614424   1.160   6.153   3.708  0.6014  0.2422  0.2915
   35MOL    H7714425   1.451   5.824   3.659 -0.1917  0.1219  2.4865
   35MOL    H7814426   1.533   5.939   3.746 -0.6019 -0.1005 -0.0460
   35MOL    H7914427   1.532   5.919   3.449  0.8042 -0.9818  0.3338
   35MOL    H8014428   1.598   6.064   3.522 -0.7989  0.0699  0.3256
   35MOL    H8114429   1.692   5.783   3.563 -1.5067 -0.3541 -1.0855
   35MOL    H8214430   1.776   5.928   3.621 -1.4563 -1.8284  1.2866
   35MOL    H8314431   1.712   5.871   3.317 -1.3578  1.4394  1.3212
   35MOL    H8414432   1.863   5.824   3.392 -0.9120 -0.7246 -0.6184
   35MOL    H8514433   1.816   6.000   3.379 -0.9538  0.7352 -1.0769
   35MOL    C8614434   1.233   6.345   3.795 -0.3386  0.2414  0.3964
   35MOL    C8714435   1.171   6.320   3.934 -0.0251  0.6286  0.2123
   35MOL    C8814436   1.227   6.417   4.037 -0.4800 -0.4453 -0.5909
   35MOL    O8914437   1.149   6.481   4.108  0.3938  0.2554 -0.2554
   35MOL    O9014438   1.359   6.420   4.047 -0.0729 -0.1715  0.1505
   35MOL    C9114439   1.417   6.521   4.118  0.6015  0.6582  0.2873
   35MOL    C9214440   1.571   6.498   4.130  0.5609 -0.9920 -0.2252
   35MOL    C9314441   1.639   6.505   3.995  0.0877 -0.6648  0.0484
   35MOL    C9414442   1.782   6.542   4.004 -0.3098  0.1784  0.6022
   35MOL    H9514443   1.179   6.427   3.747 -0.5896  0.0790  0.4006
   35MOL    H9614444   1.335   6.381   3.807 -1.2493  2.5924  1.3497
   35MOL    H9714445   1.198   6.219   3.963 -1.2444  0.1096 -0.4191
   35MOL    H9814446   1.371   6.523   4.216 -1.3698  2.8051 -0.6366
   35MOL    H9914447   1.393   6.612   4.062  0.7278  0.8078  0.4747
   35MOL   H10014448   1.617   6.576   4.191  0.5954  0.2100 -1.7794
   35MOL   H10114449   1.601   6.404   4.177 -1.6994 -1.2710  0.7504
   35MOL   H10214450   1.576   6.577   3.942 -0.4703  0.0912  1.7001
   35MOL   H10314451   1.615   6.412   3.943 -1.7922 -0.4795  0.5296
   35MOL   H10414452   1.795   6.648   3.983  0.5784 -0.1918 -0.8009
   35MOL   H10514453   1.829   6.479   3.928 -0.4301 -0.9682  1.4555
   35MOL   H10614454   1.841   6.512   4.090  2.1646  2.0158 -0.4071
   35MOL   C10714455   1.017   6.329   3.938 -0.1308  0.4221 -0.1925
   35MOL   C10814456   0.942   6.231   3.847 -0.1504 -0.2324 -0.3319
   35MOL   C10914457   0.928   6.093   3.914  0.8388  0.2184 -0.2903
   35MOL   O11014458   0.995   6.001   3.869  0.0351 -0.1537  0.3077
   35MOL   O11114459   0.834   6.093   4.012 -0.2632  0.2773 -0.2318
   35MOL   C11214460   0.813   5.972   4.075  0.0689 -0.0076 -0.3607
   35MOL   C11314461   0.687   5.954   4.155  0.4948 -0.3016  0.1564
   35MOL   C11414462   0.570   6.010   4.082 -0.6583  0.0104  0.9114
   35MOL   C11514463   0.530   5.924   3.956 -0.1066  0.0832  0.2956
   35MOL   H11614464   0.990   6.430   3.906 -0.8246  0.6047  0.9288
   35MOL   H11714465   0.972   6.318   4.036  0.3408 -0.1565 -0.0376
   35MOL   H11814466   0.983   6.230   3.746 -1.2718  0.4711 -0.8097
   35MOL   H11914467   0.905   5.956   4.131 -0.1496 -0.1095 -0.0234
   35MOL   H12014468   0.805   5.903   3.991  0.4301 -0.6219  0.1057
   35MOL   H12114469   0.672   5.851   4.189  1.9503 -1.2065 -1.8665
   35MOL   H12214470   0.696   6.006   4.251  3.3756 -1.5532  0.5927
   35MOL   H12314471   0.600   6.108   4.046  0.6847 -1.1912 -1.3530
   35MOL   H12414472   0.477   6.012   4.139 -2.1846  0.2239 -1.5166
   35MOL   H12514473   0.525   5.818   3.981 -1.1634  0.4416  1.7056
   35MOL   H12614474   0.614   5.927   3.887 -0.2418 -0.8121  0.0993
   35MOL   H12714475   0.435   5.955   3.912 -0.0215  0.2713  0.2421
   35MOL   C12814476   0.799   6.294   3.818  0.8900 -0.0754 -0.2389
   35MOL   C12914477   0.705   6.208   3.733 -0.2195  0.0971 -0.2933
   35MOL   C13014478   0.566   6.279   3.719 -0.6252 -0.4074 -0.3203
   35MOL   O13114479   0.476   6.257   3.796 -0.0857  0.4701 -0.4581
   35MOL   O13214480   0.571   6.383   3.641  0.3402  0.5708  0.0504
   35MOL   C13314481   0.471   6.483   3.645 -0.2207 -0.2152 -0.6563
   35MOL   C13414482   0.483   6.589   3.533  0.3219  0.4318 -0.0583
   35MOL   C13514483   0.427   6.542   3.395  0.0286 -0.1288  0.5253
   35MOL   C13614484   0.424   6.636   3.282 -0.1969  0.5452 -0.0530
   35MOL   H13714485   0.810   6.392   3.772 -0.7998  0.4072  0.3579
   35MOL   H13814486   0.755   6.316   3.915 -0.3580  1.4239 -1.1323
   35MOL   H13914487   0.689   6.116   3.789  3.1909 -0.0564  0.5562
   35MOL   H14014488   0.460   6.533   3.741  1.2526  0.5505 -0.8670
   35MOL   H14114489   0.374   6.434   3.632 -1.6092  1.4404  2.7082
   35MOL   H14214490   0.429   6.679   3.562 -0.1557  0.4622 -1.0183
   35MOL   H14314491   0.586   6.623   3.534  0.5120 -0.1380  0.7570
   35MOL   H14414492   0.326   6.504   3.409 -0.8534  2.3750  1.2872
   35MOL   H14514493   0.487   6.458   3.360  1.5363  1.6390 -1.2664
   35MOL   H14614494   0.337   6.701   3.291 -1.0150 -0.1745 -2.4824
   35MOL   H14714495   0.415   6.599   3.180 -0.0950 -0.5663  0.3346
   35MOL   H14814496   0.507   6.707   3.278  0.8533 -0.6924 -0.5510
   35MOL   C14914497   0.764   6.170   3.600  0.5824  0.1988 -0.1787
   35MOL   C15014498   0.659   6.117   3.493  0.6747  0.0498 -0.4367
   35MOL   C15114499   0.717   6.109   3.355  0.3642 -0.0053 -0.3246
   35MOL   O15214500   0.774   6.010   3.306  0.5291 -0.0312 -0.2062
   35MOL   O15314501   0.687   6.214   3.290 -0.2153  0.2469 -0.1008
   35MOL   C15414502   0.743   6.235   3.161  0.0858  0.8841 -0.0857
   35MOL   C15514503   0.634   6.231   3.048 -0.8065 -0.6561  0.3659
   35MOL   C15614504   0.536   6.351   3.052 -0.1939 -0.1845 -0.5120
   35MOL   C15714505   0.431   6.357   2.936 -0.0121  0.2361 -0.2132
   35MOL   H15814506   0.849   6.104   3.615 -0.1932 -1.1247 -1.4779
   35MOL   H15914507   0.793   6.261   3.548 -0.0717  1.0501  0.9241
   35MOL   H16014508   0.574   6.185   3.487 -1.5578 -2.6372 -0.2850
   35MOL   H16114509   0.828   6.169   3.147  0.8429  1.7639  0.3388
   35MOL   H16214510   0.800   6.327   3.170 -0.0655  0.8138  1.8808
   35MOL   H16314511   0.679   6.234   2.949 -1.3543  3.2172  0.1366
   35MOL   H16414512   0.569   6.146   3.068 -2.9416  0.8737  0.1899
   35MOL   H16514513   0.578   6.452   3.048 -2.7105  0.9484  0.5187
   35MOL   H16614514   0.482   6.343   3.146  0.7206  0.9128  0.1189
   35MOL   H16714515   0.428   6.459   2.898 -1.2162  0.0834 -0.5392
   35MOL   H16814516   0.330   6.325   2.961  0.8814 -2.4071  0.1755
   35MOL   H16914517   0.457   6.285   2.858  1.2913  0.8169 -0.3311
   35MOL   C17014518   0.601   5.977   3.539 -0.2509 -0.2243 -0.0448
   35MOL   C17114519   0.457   5.944   3.479 -0.0929 -0.5320 -0.1759
   35MOL   C17214520   0.435   5.795   3.493  0.8169  0.5273 -0.0127
   35MOL   O17314521   0.410   5.719   3.402  0.5024 -0.1700  0.1092
   35MOL   O17414522   0.464   5.762   3.622  0.0667 -0.3748 -0.3457
   35MOL   C17514523   0.465   5.629   3.668  0.2005 -0.3629  0.3286
   35MOL   C17614524   0.607   5.564   3.645  0.2778  0.1571 -0.1783
   35MOL   C17714525   0.728   5.618   3.724  0.1525  0.2536  0.2787
   35MOL   C17814526   0.715   5.589   3.874 -0.7682 -0.3142  0.0286
   35MOL   H17914527   0.613   5.948   3.643  1.0650  4.0924  1.0856
   35MOL   H18014528   0.664   5.900   3.493  0.5092  0.0158  0.5892
   35MOL   H18114529   0.452   5.968   3.373 -0.5630 -0.0737 -0.0531
   35MOL   H18214530   0.387   5.577   3.612  0.4470 -0.9248  0.5069
   35MOL   H18314531   0.433   5.628   3.772 -2.0749  1.0688 -0.3119
   35MOL   H18414532   0.610   5.460   3.677 -1.1049  0.3276  0.5809
   35MOL   H18514533   0.625   5.577   3.539 -0.6156 -0.3063 -0.3930
   35MOL   H18614534   0.748   5.723   3.706 -0.5883  0.2585 -0.5446
   35MOL   H18714535   0.813   5.566   3.679  0.1815  0.7863 -0.2888
   35MOL   H18814536   0.642   5.655   3.921 -1.7553 -0.7864 -0.8408
   35MOL   H18914537   0.815   5.594   3.917 -0.4374 -0.8993 -0.6567
   35MOL   H19014538   0.689   5.485   3.891 -0.3510 -0.2462  1.0867
   35MOL   C19114539   0.343   6.018   3.549 -0.8605  0.6253 -0.0592
   35MOL   C19214540   0.290   6.140   3.480 -0.0306 -0.1207 -0.1486
   35MOL   C19314541   0.237   6.126   3.334 -0.4132  0.2136 -0.9599
   35MOL   O19414542   0.269   6.207   3.246  0.3995 -0.1327 -0.7116
   35MOL   O19514543   0.165   6.015   3.317 -0.1351 -0.0127  0.0435
   35MOL   C19614544   0.099   6.002   3.186 -0.1628  0.0182 -0.1511
   35MOL   C19714545   0.192   5.948   3.073 -0.1611  0.4255  0.0270
   35MOL   C19814546   0.252   5.810   3.098 -0.2746 -0.1025 -0.0854
   35MOL   C19914547   0.336   5.777   2.970 -0.7412  0.3715  0.0125
   35MOL   H20014548   0.378   6.053   3.647  0.4222  3.9690 -1.6263
   35MOL   H20114549   0.253   5.959   3.560  0.0029 -0.7398 -0.2556
   35MOL   H20214550   0.374   6.209   3.464 -0.7793  0.9514  0.4761
   35MOL   H20314551   0.055   6.096   3.155 -2.0263 -0.6133  0.5068
   35MOL   H20414552   0.007   5.946   3.204 -0.4976  1.0170  1.2866
   35MOL   H20514553   0.136   5.944   2.979 -1.9164  1.4840  0.9968
   35MOL   H20614554   0.273   6.019   3.061 -0.8327  1.2352  0.2283
   35MOL   H20714555   0.177   5.731   3.092  0.0176 -0.4037  0.1937
   35MOL   H20814556   0.307   5.799   3.191 -1.4228 -0.7828  0.5269
   35MOL   H20914557   0.415   5.852   2.957  0.2741 -0.7998 -0.7133
   35MOL   H21014558   0.267   5.782   2.886  0.4747 -0.3700 -1.0465
   35MOL   H21114559   0.375   5.675   2.964  0.8150  1.1071 -4.7883
   35MOL   C21214560   0.188   6.223   3.571  0.6340  0.5766  1.2147
   35MOL   C21314561   0.054   6.159   3.598 -0.2108 -0.1720 -0.2964
   35MOL   C21414562   0.012   6.170   3.745 -0.4260  0.0166 -0.0272
   35MOL   O21514563   7.790   6.260   3.781  0.0346  0.7119  0.5690
   35MOL   O21614564   0.047   6.063   3.816  0.1635  0.2789  0.4412
   35MOL   C21714565   7.846   6.039   3.945  0.5336  0.0236 -0.1512
   35MOL   C21814566   7.748   5.931   3.934 -0.3399  0.1491  0.6908
   35MOL   C21914567   7.714   5.852   4.067 -0.0935 -0.6770 -0.6842
   35MOL   C22014568   7.594   5.919   4.127  0.0151  1.2793 -0.3288
   35MOL   H22114569   0.176   6.319   3.522  1.1058 -0.2121 -0.4859
   35MOL   H22214570   0.239   6.256   3.662  0.4842  1.0448  1.1290
   35MOL   H22314571   0.056   6.053   3.574  0.6079  0.0911 -1.3985
   35MOL   H22414572   7.807   6.129   3.993  2.2697 -0.3908  2.0916
   35MOL   H22514573   0.076   5.999   4.002  1.6896  0.1627 -1.7127
   35MOL   H22614574   7.651   5.954   3.891  0.3081 -2.1191 -2.1884
   35MOL   H22714575   7.800   5.858   3.872  0.0208 -1.6505  3.0486
   35MOL   H22814576   7.803   5.858   4.130  0.9839  0.2752 -2.2853
   35MOL   H22914577   7.694   5.748   4.040 -4.5061  0.3772 -1.8442
   35MOL   H23014578   7.511   5.926   4.057  0.1901 -1.4213 -0.8238
   35MOL   H23114579   7.615   6.013   4.179  1.1279  1.1025 -0.4412
   35MOL   H23214580   7.557   5.864   4.213  1.0723  2.2348  0.7629
   35MOL   C23314581   7.797   6.228   3.511 -0.4756 -0.3770  0.4671
   35MOL   C23414582   7.657   6.177   3.520  0.0287 -0.2096 -0.2526
   35MOL   C23514583   7.554   6.261   3.440  0.2467 -0.1351  0.3768
   35MOL   O23614584   7.588   6.355   3.364 -0.0439 -0.1357 -0.6762
   35MOL   O23714585   7.423   6.228   3.472  0.0875 -0.1901 -0.0669
   35MOL   C23814586   7.321   6.315   3.416 -0.0492  0.7450  0.3439
   35MOL   C23914587   7.178   6.283   3.462  0.7175  0.7229  0.4641
   35MOL   C24014588   7.139   6.288   3.612  0.1290  0.2490 -0.3203
   35MOL   C24114589   6.999   6.226   3.626  0.3493  0.0358  0.0318
   35MOL   H24214590   7.828   6.232   3.407  0.8554 -0.4912  0.8371
   35MOL   H24314591   7.785   6.332   3.539 -0.2990 -0.4236  0.7238
   35MOL   H24414592   7.620   6.184   3.623  3.7349  2.7368  0.9801
   35MOL   H24514593   7.325   6.302   3.308 -1.3907 -4.8322  0.8102
   35MOL   H24614594   7.347   6.419   3.431 -0.8423  0.9783  0.1608
   35MOL   H24714595   7.110   6.340   3.400 -1.3603 -1.7295  0.3999
   35MOL   H24814596   7.157   6.177   3.447  0.9304  0.6032  0.9920
   35MOL   H24914597   7.125   6.390   3.650  1.8720  0.2058  0.5224
   35MOL   H25014598   7.206   6.244   3.686  1.9645  1.1028 -1.4187
   35MOL   H25114599   7.004   6.119   3.610  0.6549 -0.0438  0.6558
   35MOL   H25214600   6.932   6.275   3.556  0.8653  1.1760  0.3258
   35MOL   H25314601   6.958   6.246   3.726 -2.2038  2.1669 -1.3644
   35MOL   C25414602   7.641   6.029   3.492 -0.2390 -0.4561 -0.2625
   35MOL   C25514603   7.613   5.938   3.613  0.0180 -0.2882 -0.3007
   35MOL   C25614604   7.467   5.948   3.652 -0.2722  0.0035  0.7405
   35MOL   O25714605   7.430   5.997   3.764 -0.1164 -0.1753 -0.0148
   35MOL   O25814606   7.380   5.905   3.563 -0.4302 -0.5820 -0.4083
   35MOL   C25914607   7.237   5.897   3.604 -0.0565 -0.1048 -0.1666
   35MOL   C26014608   7.169   5.779   3.530  0.2896  0.3334  0.3173
   35MOL   C26114609   7.131   5.814   3.379 -0.2565  0.9863 -0.5368
   35MOL   C26214610   7.049   5.711   3.308 -0.2906  0.8157  0.3418
   35MOL   H26314611   7.725   5.984   3.438  1.4492  0.4239  1.5737
   35MOL   H26414612   7.572   6.011   3.409 -2.3405  1.4502  1.0269
   35MOL   H26514613   7.671   5.983   3.694 -0.0426 -2.7846  1.1940
   35MOL   H26614614   7.194   5.997   3.593  1.5212  0.7132  0.8122
   35MOL   H26714615   7.239   5.868   3.709  1.2391 -0.6776 -0.3328
   35MOL   H26814616   7.229   5.687   3.531 -0.1679  0.0438  1.9414
   35MOL   H26914617   7.076   5.745   3.576  1.4980 -0.2419  2.4274
   35MOL   H27014618   7.213   5.849   3.316  1.2059  1.2221  1.4510
   35MOL   H27114619   7.071   5.905   3.382 -0.4979  0.7960  2.2293
   35MOL   H27214620   6.959   5.690   3.366 -2.1806  1.4522 -2.2889
   35MOL   H27314621   7.098   5.614   3.296  0.8213  1.6816 -2.7685
   35MOL   H27414622   7.028   5.739   3.205 -2.4932 -1.2407  0.1968
   35MOL   C27514623   7.668   5.790   3.606 -0.4341 -0.5105 -0.2346
   35MOL   C27614624   7.632   5.702   3.482  0.5341  0.4363 -0.3583
   35MOL   C27714625   7.755   5.681   3.386  0.0128 -0.8610  0.4193
   35MOL   O27814626   7.748   5.720   3.269  0.0320  0.3611  0.7127
   35MOL   O27914627   0.002   5.625   3.446  0.3930  0.0320 -0.1075
   35MOL   C28014628   0.122   5.591   3.377  0.3918  0.2981 -0.4364
   35MOL   C28114629   0.095   5.458   3.297 -1.0112  0.0259 -0.1128
   35MOL   C28214630   0.076   5.337   3.385 -0.0378  0.0534 -0.3233
   35MOL   C28314631   0.074   5.209   3.298 -0.5191 -0.3037 -0.3634
   35MOL   H28414632   7.624   5.741   3.693  0.8072  2.4347  2.1318
   35MOL   H28514633   7.775   5.797   3.622 -0.6153  0.3926  0.6630
   35MOL   H28614634   7.552   5.755   3.431  0.7919 -0.7426 -2.0340
   35MOL   H28714635   0.202   5.573   3.449  1.0140  0.5160 -1.0766
   35MOL   H28814636   0.159   5.678   3.322 -1.9535 -0.2462 -2.9936
   35MOL   H28914637   0.017   5.480   3.224 -1.0005  1.3188  0.2455
   35MOL   H29014638   0.180   5.444   3.230 -1.4482  1.6736 -1.0538
   35MOL   H29114639   7.844   5.358   3.449  0.0411  1.7030 -0.7340
   35MOL   H29214640   0.164   5.328   3.449 -0.5703  3.4348  0.9571
   35MOL   H29314641   7.839   5.209   3.235  0.0370 -1.1590 -1.1476
   35MOL   H29414642   0.056   5.120   3.359  0.6221 -1.0291 -1.0820
   35MOL   H29514643   0.167   5.197   3.244 -0.8595 -0.2874 -0.9508
   35MOL   C29614644   7.568   5.567   3.525  0.1512 -0.4208  0.2265
   35MOL   C29714645   7.539   5.474   3.409  0.4873  0.4133 -0.1391
   35MOL   C29814646   7.462   5.361   3.469  0.7322 -0.5970  0.1786
   35MOL   O29914647   7.335   5.354   3.471  0.6592 -0.2407 -0.3792
   35MOL   O30014648   7.546   5.265   3.501 -0.3291  0.0853 -0.1375
   35MOL   C30114649   7.491   5.141   3.553 -0.7248 -0.7173  0.5351
   35MOL   C30214650   7.591   5.016   3.539  0.8866 -0.2615 -0.0948
   35MOL   C30314651   7.525   4.884   3.573 -0.0230  0.4673 -0.5159
   35MOL   C30414652   7.637   4.785   3.561 -0.5158  0.3968  0.4171
   35MOL   H30514653   7.487   5.599   3.590 -0.5066  0.3570 -0.9556
   35MOL   H30614654   7.645   5.522   3.587  0.6145  2.2106  1.6136
   35MOL   H30714655   7.634   5.433   3.375 -0.6716 -0.2499 -2.6449
   35MOL   H30814656   7.404   5.109   3.496 -0.0056 -0.6915 -0.5881
   35MOL   H30914657   7.456   5.155   3.655 -0.2244  1.7792  0.4015
   35MOL   H31014658   7.629   5.005   3.437  3.4002  0.7488  0.6933
   35MOL   H31114659   7.677   5.029   3.604 -0.1026 -1.2046  1.4214
   35MOL   H31214660   7.451   4.858   3.498 -1.0586  1.1412  0.2688
   35MOL   H31314661   7.472   4.878   3.667  1.1584 -3.8265 -0.0252
   35MOL   H31414662   7.716   4.805   3.634  0.4077 -0.7093 -0.2656
   35MOL   H31514663   7.687   4.789   3.464 -0.0148 -1.0031  0.6060
   35MOL   H31614664   7.605   4.681   3.569  0.3165  0.1956  1.2404
   35MOL   C31714665   7.469   5.543   3.283  0.7194  0.0877  0.6818
   35MOL   C31814666   7.428   5.456   3.161 -0.0306 -0.1397  0.2484
   35MOL   C31914667   7.327   5.529   3.067  0.3756  0.3256  0.6229
   35MOL   O32014668   7.323   5.648   3.045 -0.5568 -0.7411  0.4361
   35MOL   O32114669   7.234   5.442   3.014  0.2852 -0.6164  0.4947
   35MOL   C32214670   7.128   5.496   2.937 -0.0578  0.3397  0.2146
   35MOL   C32314671   7.039   5.382   2.892 -0.1903 -0.3498  0.0799
   35MOL   C32414672   6.887   5.424   2.865 -0.1809 -0.2233  0.3490
   35MOL   C32514673   6.889   5.531   2.749  0.4285  0.2935 -0.1383
   35MOL   H32614674   7.531   5.622   3.240  0.8358 -0.4552 -0.1715
   35MOL   H32714675   7.382   5.592   3.326  0.5417  1.2584 -0.9559
   35MOL   H32814676   7.365   5.373   3.194  1.9962 -1.7814  0.0959
   35MOL   H32914677   7.175   5.545   2.851 -0.5494  1.7326  0.7318
   35MOL   H33014678   7.082   5.572   3.000 -0.3740 -0.0852  0.4959
   35MOL   H33114679   7.090   5.340   2.806 -0.1973 -1.1824  0.4843
   35MOL   H33214680   7.028   5.307   2.969 -1.4626  0.2610  0.5049
   35MOL   H33314681   6.831   5.471   2.945  0.1737 -0.7403  0.9007
   35MOL   H33414682   6.832   5.340   2.821  0.5308 -1.1724  1.2495
   35MOL   H33514683   6.789   5.563   2.720  0.1783  0.9178  1.3753
   35MOL   H33614684   6.938   5.492   2.659  0.8258 -2.6186  1.2722
   35MOL   H33714685   6.949   5.616   2.781 -1.4483  1.2804  0.8782
   35MOL   C33814686   7.542   5.395   3.075  0.4809 -0.0766 -0.4232
   35MOL   C33914687   7.507   5.272   2.984  0.2544 -0.0933 -0.0317
   35MOL   C34014688   7.631   5.237   2.893  0.1134 -0.0323 -0.5205
   35MOL   O34114689   7.751   5.248   2.936  0.2214 -0.1227  0.3809
   35MOL   O34214690   7.599   5.200   2.764  0.3943  0.2059 -0.3589
   35MOL   C34314691   7.707   5.170   2.675 -0.2245  0.5033 -0.3163
   35MOL   C34414692   7.671   5.158   2.528  0.5005 -0.1740  0.6779
   35MOL   C34514693   7.601   5.278   2.470 -0.3800  0.0119 -0.2263
   35MOL   C34614694   7.576   5.259   2.322 -0.1105  0.5929  0.7558
   35MOL   H34714695   7.623   5.365   3.141  1.0850 -0.4982 -1.3573
   35MOL   H34814696   7.593   5.468   3.014 -1.6826  0.9966 -1.0137
   35MOL   H34914697   7.425   5.296   2.916  0.4382  0.7429  0.0364
   35MOL   H35014698   7.751   5.073   2.701 -1.6898  0.0003  0.3330
   35MOL   H35114699   7.788   5.240   2.695  0.0533  0.6673 -2.0119
   35MOL   H35214700   7.766   5.145   2.478  0.4068 -0.9948  0.7111
   35MOL   H35314701   7.611   5.067   2.519  0.7380 -0.3908  1.2985
   35MOL   H35414702   7.656   5.372   2.479  0.9687 -0.8015  0.0736
   35MOL   H35514703   7.503   5.293   2.516 -0.0134  1.1411  0.2011
   35MOL   H35614704   7.544   5.355   2.281  2.0661  1.4094  0.8864
   35MOL   H35714705   7.510   5.176   2.296 -1.2758  1.6832  0.1799
   35MOL   H35814706   7.671   5.251   2.268  0.8354  1.7274  2.2267
   35MOL   C35914707   7.462   5.142   3.073 -0.2950  0.4365  0.8775
   35MOL   C36014708   7.313   5.098   3.053  0.2792 -0.1001 -0.6204
   35MOL   C36114709   7.298   5.018   2.915 -0.8982 -0.0763  0.0477
   35MOL   O36214710   7.308   5.086   2.812 -0.0874  0.3309  0.2794
   35MOL   O36314711   7.288   4.885   2.922  0.0259 -0.5623  0.2222
   35MOL   C36414712   7.276   4.813   2.801  0.0325  0.6729 -0.1027
   35MOL   C36514713   7.133   4.755   2.807  0.3836  0.8393  0.1855
   35MOL   C36614714   7.015   4.861   2.793 -0.5189  0.2493 -0.0533
   35MOL   C36714715   6.879   4.792   2.777  0.1480  0.3181 -0.0809
   35MOL   H36814716   7.487   5.164   3.177 -0.2662 -0.1828  1.0001
   35MOL   H36914717   7.524   5.056   3.051  0.3500  1.1435 -0.1166
   35MOL   H37014718   7.236   5.175   3.053 -1.1161 -1.4021  2.8601
   35MOL   H37114719   7.349   4.734   2.820 -2.2527 -0.9060  2.3970
   35MOL   H37214720   7.318   4.862   2.712  1.0000 -0.1638 -0.1198
   35MOL   H37314721   7.125   4.694   2.717 -0.9180  0.0765  0.8018
   35MOL   H37414722   7.113   4.691   2.892  1.2324  0.2244 -0.0733
   35MOL   H37514723   7.028   4.935   2.715 -0.4270  0.0411 -0.2357
   35MOL   H37614724   7.009   4.916   2.887  0.4877  0.1914  0.0598
   35MOL   H37714725   6.805   4.873   2.782  0.1692  0.3403 -0.1404
   35MOL   H37814726   6.852   4.720   2.855 -2.1686  1.2264  0.0091
   35MOL   H37914727   6.869   4.744   2.680 -0.4368 -1.2746  0.7484
   35MOL   C38014728   7.273   5.005   3.175  1.1236  0.7231 -0.5580
   35MOL   C38114729   7.137   4.929   3.175  0.0192 -0.7243  0.6837
   35MOL   C38214730   7.113   4.853   3.301  0.2833 -0.0720  0.8739
   35MOL   O38314731   7.107   4.729   3.299 -0.0674 -0.5005  0.6256
   35MOL   O38414732   7.111   4.923   3.406  0.1744  0.0398 -0.0635
   35MOL   C38514733   7.090   4.860   3.525 -0.4484 -0.3892 -0.0626
   35MOL   C38614734   7.113   4.963   3.637 -0.6546 -0.3192 -0.2581
   35MOL   C38714735   7.083   4.906   3.776  0.0081  1.0914 -0.0395
   35MOL   C38814736   7.131   4.995   3.889 -0.2348 -0.2307 -0.0324
   35MOL   H38914737   7.268   5.061   3.269 -1.2436  0.9033 -0.7704
   35MOL   H39014738   7.354   4.933   3.184  2.9361  2.3250 -3.4947
   35MOL   H39114739   7.134   4.851   3.100  0.1315  0.9634 -1.1146
   35MOL   H39214740   7.157   4.778   3.549  0.0405  0.4940  1.6833
   35MOL   H39314741   6.987   4.828   3.540 -0.7116  0.0265 -0.9741
   35MOL   H39414742   7.218   4.990   3.626 -0.8761  1.7812  2.1917
   35MOL   H39514743   7.058   5.056   3.622  1.1354  0.9672  0.9166
   35MOL   H39614744   7.140   4.813   3.787  0.1403  1.0232 -1.3268
   35MOL   H39714745   6.979   4.877   3.794  0.1972  0.0219 -0.6620
   35MOL   H39814746   7.076   5.089   3.891 -1.8870 -1.2070  1.4226
   35MOL   H39914747   7.238   5.014   3.884 -0.7518  3.3822  1.3803
   35MOL   H40014748   7.112   4.942   3.982  0.3233 -1.4970 -0.6379
   35MOL   C40114749   7.024   5.024   3.149 -0.5674 -0.6156  0.3162
   35MOL   C40214750   6.885   4.951   3.131  0.6059  0.5165  0.6285
   35MOL   C40314751   6.777   5.025   3.046  0.0069 -0.6542  0.0824
   35MOL   O40414752   6.811   5.095   2.952 -0.1152  0.0776 -0.8709
   35MOL   O40514753   6.650   4.994   3.077 -0.2120  0.1735 -0.1810
   35MOL   C40614754   6.539   5.014   2.987 -0.0973 -0.1468 -0.4172
   35MOL   C40714755   6.422   4.934   3.037  0.7350  0.5572  0.0004
   35MOL   C40814756   6.305   4.933   2.930  0.4754  0.7068 -0.3033
   35MOL   C40914757   6.339   4.834   2.821  0.6446 -0.1315 -0.0276
   35MOL   H41014758   7.036   5.084   3.058 -2.6777 -0.1852  0.2943
   35MOL   H41114759   7.013   5.104   3.222  0.2606  0.1351 -0.3727
   35MOL   H41214760   6.848   4.933   3.232 -0.9781 -1.2689 -0.2211
   35MOL   H41314761   6.567   4.982   2.887 -0.2377 -0.6571 -0.2943
   35MOL   H41414762   6.521   5.120   2.975 -1.0696 -0.3869 -1.1167
   35MOL   H41514763   6.450   4.836   3.074 -0.3153  1.2808  2.8091
   35MOL   H41614764   6.381   4.979   3.127  0.6550  2.3897 -0.9246
   35MOL   H41714765   6.307   5.035   2.891 -0.0830  1.3537  1.3176
   35MOL   H41814766   6.212   4.910   2.982 -0.0048  0.3141 -1.3255
   35MOL   H41914767   6.335   4.730   2.853  0.3281  0.7290  2.9131
   35MOL   H42014768   6.437   4.855   2.778 -0.1007  0.8459 -1.2807
   35MOL   H42114769   6.266   4.849   2.742  0.6983  0.8074  0.0909
   35MOL   H42214770   6.885   4.854   3.082  0.5398  0.7328  0.1969
   36MOL     C114771   3.254   2.814   2.632  0.0859  0.0124 -0.2081
   36MOL     C214772   3.318   2.749   2.765  0.1117 -0.0236 -0.7217
   36MOL     C314773   3.208   2.688   2.848 -0.3765  0.1742 -0.0047
   36MOL     O414774   3.190   2.726   2.962 -0.0437 -0.0831 -0.4785
   36MOL     O514775   3.139   2.596   2.777 -0.1117 -0.0313  0.0345
   36MOL     C614776   3.026   2.537   2.842  0.2424  0.4583 -0.2926
   36MOL     C714777   2.913   2.516   2.739  0.4815  0.0470  0.3860
   36MOL     C814778   2.955   2.527   2.595  0.6232 -0.0031  0.0077
   36MOL     C914779   2.856   2.503   2.493 -0.2166  0.0816 -0.1569
   36MOL    H1014780   3.331   2.870   2.578  0.5068 -1.0471 -0.7190
   36MOL    H1114781   3.211   2.733   2.574 -1.5887 -0.0412  1.0764
   36MOL    H1214782   3.355   2.832   2.825 -4.3644  0.6879  1.2562
   36MOL    H1314783   2.990   2.597   2.926  0.4639 -1.3629  1.1263
   36MOL    H1414784   3.052   2.443   2.890 -1.8915  1.3427  2.7318
   36MOL    H1514785   2.865   2.418   2.745 -0.1856  0.2763 -0.9878
   36MOL    H1614786   2.840   2.596   2.745  0.1018 -0.3061  0.5297
   36MOL    H1714787   3.037   2.458   2.577 -0.2809 -1.1908  0.4441
   36MOL    H1814788   3.003   2.624   2.579 -0.5388  0.3869 -1.3075
   36MOL    H1914789   2.852   2.395   2.483  3.5312 -0.0549 -1.2159
   36MOL    H2014790   2.907   2.505   2.397  0.5280 -1.5474  0.1833
   36MOL    H2114791   2.761   2.555   2.491 -0.3927 -0.2682 -1.5760
   36MOL    H2214792   3.176   2.885   2.657  0.5000  0.5275 -0.3520
   36MOL    C2314793   3.431   2.651   2.737 -0.8500 -0.4924 -0.1005
   36MOL    C2414794   3.554   2.717   2.676 -0.3895 -0.0358  0.5258
   36MOL    C2514795   3.617   2.813   2.773  0.5477 -0.4437 -0.1073
   36MOL    O2614796   3.639   2.931   2.748  0.0813  0.4144 -0.4176
   36MOL    O2714797   3.658   2.751   2.885  0.0983  0.3391 -0.2857
   36MOL    C2814798   3.718   2.821   2.994  0.1728  0.1010  0.2911
   36MOL    C2914799   3.870   2.835   2.987  0.1760  0.1683  0.0527
   36MOL    C3014800   3.950   2.701   3.006  0.1576 -0.0834 -0.5329
   36MOL    C3114801   4.104   2.726   3.037 -0.3183 -0.1562 -0.6512
   36MOL    H3214802   3.399   2.568   2.675  0.9197 -0.4531 -1.1042
   36MOL    H3314803   3.457   2.612   2.835  0.4389 -2.5025 -1.1910
   36MOL    H3414804   3.533   2.775   2.586 -1.0940 -0.5261  0.3794
   36MOL    H3514805   3.700   2.759   3.082  0.2998  1.4386  1.2716
   36MOL    H3614806   3.676   2.921   3.007 -1.5637 -0.4745 -0.6154
   36MOL    H3714807   3.898   2.884   2.894 -1.4058 -1.2451 -1.1880
   36MOL    H3814808   3.895   2.908   3.064 -0.7771 -1.5710  2.0652
   36MOL    H3914809   3.938   2.628   2.927  1.7721  0.5815 -1.4147
   36MOL    H4014810   3.914   2.643   3.091 -1.2850  1.1390 -0.2960
   36MOL    H4114811   4.156   2.634   3.066 -0.3805 -0.3034 -0.9986
   36MOL    H4214812   4.114   2.804   3.111  0.8952 -2.4461  1.6731
   36MOL    H4314813   4.139   2.771   2.943 -3.8175  0.7800 -1.5719
   36MOL    C4414814   3.643   2.621   2.609  0.5084 -0.5198  0.5999
   36MOL    C4514815   3.786   2.675   2.553  0.0058 -0.1357  0.1537
   36MOL    C4614816   3.903   2.585   2.604 -0.3811  0.1866  0.0023
   36MOL    O4714817   3.980   2.629   2.688  0.4443 -0.5761  0.8684
   36MOL    O4814818   3.913   2.472   2.538 -0.0884 -0.2996 -0.3825
   36MOL    C4914819   4.002   2.376   2.584 -0.3773 -1.0690 -0.1347
   36MOL    C5014820   3.925   2.250   2.619 -0.3790 -0.7299  0.2855
   36MOL    C5114821   3.883   2.177   2.490  0.4979 -0.4530 -0.1689
   36MOL    C5214822   3.974   2.050   2.479  0.6789 -0.5021 -0.6528
   36MOL    H5314823   3.589   2.565   2.533 -0.8650 -0.4928  1.5360
   36MOL    H5414824   3.667   2.538   2.677  0.0750 -0.9770  0.1993
   36MOL    H5514825   3.802   2.776   2.590  1.8151  0.5327 -2.3340
   36MOL    H5614826   4.050   2.406   2.677 -0.1204 -0.2543 -0.5246
   36MOL    H5714827   4.081   2.344   2.516 -0.9170 -1.2586 -0.6717
   36MOL    H5814828   3.988   2.189   2.684 -0.0631  1.3883  2.0249
   36MOL    H5914829   3.845   2.283   2.686 -0.7790 -2.4177  0.6553
   36MOL    H6014830   3.902   2.246   2.408 -2.3069 -2.0593 -2.2728
   36MOL    H6114831   3.778   2.150   2.487  0.3312  0.2332 -0.4580
   36MOL    H6214832   4.080   2.060   2.500  0.5239 -0.5038  0.1754
   36MOL    H6314833   3.960   2.026   2.374 -1.2250 -1.8211 -0.1291
   36MOL    H6414834   3.952   1.962   2.540  1.7202  0.6343  1.4324
   36MOL    C6514835   3.792   2.717   2.404 -0.2060  1.1407 -1.0383
   36MOL    C6614836   3.692   2.823   2.347 -0.7557 -0.3071  0.4803
   36MOL    C6714837   3.706   2.966   2.405  0.0755 -0.7777 -0.9090
   36MOL    O6814838   3.608   3.041   2.428 -0.3474 -0.3389 -0.7098
   36MOL    O6914839   3.834   3.006   2.414 -0.5098 -0.1972  0.0340
   36MOL    C7014840   3.860   3.124   2.499 -0.0620  0.2983  0.3257
   36MOL    C7114841   3.965   3.102   2.612 -0.4113 -0.5854  0.0767
   36MOL    C7214842   4.003   3.240   2.674  0.4218  0.1503  0.0152
   36MOL    C7314843   4.098   3.236   2.788  0.1605  0.4804  0.4077
   36MOL    H7414844   3.783   2.628   2.342 -2.3023  1.3130 -1.0107
   36MOL    H7514845   3.896   2.743   2.386  0.9119 -1.3367  1.5949
   36MOL    H7614846   3.594   2.777   2.355 -1.0522  0.2884  0.3461
   36MOL    H7714847   3.770   3.165   2.544 -0.0886  1.2570 -0.5653
   36MOL    H7814848   3.892   3.211   2.440 -0.4931  0.7803  0.8029
   36MOL    H7914849   3.916   3.036   2.684  0.6191 -0.7182  0.6631
   36MOL    H8014850   4.063   3.060   2.589  0.3177  0.2423  1.5888
   36MOL    H8114851   3.915   3.288   2.717 -0.7239 -2.8340  1.0790
   36MOL    H8214852   4.041   3.298   2.589 -2.2999 -1.2213 -2.2315
   36MOL    H8314853   4.042   3.202   2.876 -2.2039  1.9907 -0.4722
   36MOL    H8414854   4.136   3.335   2.812  1.6704 -0.1848  0.8096
   36MOL    H8514855   4.180   3.167   2.767 -0.9260 -0.5565 -0.5169
   36MOL    C8614856   3.720   2.839   2.198  0.7742  0.0662 -0.2129
   36MOL    C8714857   3.601   2.845   2.103  0.1935  0.1306 -0.2667
   36MOL    C8814858   3.624   2.947   1.990  0.2480 -0.4451  0.1741
   36MOL    O8914859   3.538   3.035   1.962  0.4764  0.7202  0.1869
   36MOL    O9014860   3.737   2.915   1.913 -1.1933 -0.1213 -0.2022
   36MOL    C9114861   3.762   2.978   1.777  0.2005  0.5038  0.4647
   36MOL    C9214862   3.727   2.866   1.683 -0.2811  0.2385 -0.6334
   36MOL    C9314863   3.745   2.912   1.541  0.0789  0.0335 -0.1255
   36MOL    C9414864   3.725   2.797   1.439 -0.0408 -0.3398  0.2341
   36MOL    H9514865   3.795   2.765   2.170 -0.3634 -1.4429  0.6481
   36MOL    H9614866   3.779   2.929   2.180  1.4583 -0.2736  0.2652
   36MOL    H9714867   3.513   2.870   2.163  0.0505  0.2884 -0.5400
   36MOL    H9814868   3.861   3.017   1.750 -0.6691  1.5788 -1.2138
   36MOL    H9914869   3.689   3.058   1.766 -0.2145 -0.1297 -1.5686
   36MOL   H10014870   3.807   2.793   1.694 -0.2199  0.3861 -0.0957
   36MOL   H10114871   3.631   2.818   1.703  1.1361 -2.5483 -0.2349
   36MOL   H10214872   3.850   2.942   1.538  0.3460 -1.0140 -1.7125
   36MOL   H10314873   3.681   2.991   1.501  1.9970  1.9722  0.5569
   36MOL   H10414874   3.642   2.736   1.474 -0.2106  0.2239  0.8147
   36MOL   H10514875   3.812   2.735   1.418  0.9635  1.7124 -1.8504
   36MOL   H10614876   3.699   2.828   1.338  0.3989 -4.1314 -1.1170
   36MOL   C10714877   3.565   2.708   2.036  0.5155  0.8662 -0.4840
   36MOL   C10814878   3.502   2.595   2.123 -0.1579  0.3466 -0.4001
   36MOL   C10914879   3.385   2.642   2.207 -0.5683 -0.0811 -0.2131
   36MOL   O11014880   3.367   2.601   2.321  0.2324 -0.0744  0.1694
   36MOL   O11114881   3.305   2.725   2.140 -0.6873 -0.1659 -0.1096
   36MOL   C11214882   3.186   2.773   2.200 -0.1630 -0.0611 -0.0212
   36MOL   C11314883   3.219   2.905   2.281 -0.0555 -0.4991 -0.0499
   36MOL   C11414884   3.079   2.956   2.334 -0.0471  0.2184  0.4307
   36MOL   C11514885   3.093   3.069   2.429 -0.0378 -0.3591 -0.3378
   36MOL   H11614886   3.651   2.663   1.986  2.1076  1.4541  1.6212
   36MOL   H11714887   3.502   2.725   1.949  1.4571 -1.0144 -1.5573
   36MOL   H11814888   3.584   2.557   2.184  1.0475  0.9016 -1.6427
   36MOL   H11914889   3.132   2.705   2.265 -2.3616  1.9003  0.2661
   36MOL   H12014890   3.123   2.803   2.116 -1.3422  1.2459  1.2999
   36MOL   H12114891   3.289   2.877   2.359 -0.2850  0.6271  0.5726
   36MOL   H12214892   3.263   2.979   2.215  0.3945 -1.7471 -1.1609
   36MOL   H12314893   3.021   2.877   2.382  2.7930 -2.5534 -0.4895
   36MOL   H12414894   3.016   2.978   2.248 -0.9093  1.0609  1.2538
   36MOL   H12514895   3.157   3.143   2.380  2.0930 -0.9936  1.4304
   36MOL   H12614896   3.142   3.060   2.526  0.9473 -0.0064 -0.7947
   36MOL   H12714897   2.999   3.119   2.452 -0.2999 -0.1298 -1.8189
   36MOL   C12814898   3.459   2.480   2.037  0.1040 -0.7631  0.0636
   36MOL   C12914899   3.405   2.354   2.106 -0.1020 -0.4393 -0.3525
   36MOL   C13014900   3.341   2.280   1.986 -0.2353 -0.1817  0.3326
   36MOL   O13114901   3.221   2.274   1.974 -0.1985  0.1070 -0.2710
   36MOL   O13214902   3.428   2.251   1.890  0.0906 -0.0052 -1.1953
   36MOL   C13314903   3.371   2.226   1.757 -0.3355 -0.5942 -0.1586
   36MOL   C13414904   3.448   2.112   1.689  0.0944 -0.2572 -0.0679
   36MOL   C13514905   3.457   1.983   1.771  1.1227 -0.3926 -0.6117
   36MOL   C13614906   3.320   1.903   1.781 -0.7235 -0.1889 -0.7861
   36MOL   H13714907   3.543   2.457   1.971 -0.0660 -3.0920  0.6283
   36MOL   H13814908   3.387   2.521   1.966 -1.1912 -0.7420  1.3702
   36MOL   H13914909   3.339   2.386   2.186  0.0563  0.0190 -0.4012
   36MOL   H14014910   3.401   2.310   1.694  0.1148  0.1456  1.0318
   36MOL   H14114911   3.264   2.205   1.755 -0.9901  2.1952  2.6328
   36MOL   H14214912   3.404   2.087   1.592  1.1856 -2.7291  0.0264
   36MOL   H14314913   3.551   2.148   1.684  1.1016 -3.0175  0.0055
   36MOL   H14414914   3.508   2.001   1.866  1.5287  1.4738 -1.1712
   36MOL   H14514915   3.533   1.926   1.717 -0.8369 -1.6635 -2.0844
   36MOL   H14614916   3.236   1.953   1.831  0.8705  0.6808  1.1257
   36MOL   H14714917   3.324   1.798   1.809 -0.5657  0.4412  1.6990
   36MOL   H14814918   3.295   1.888   1.676 -0.0700 -1.3904 -0.7802
   36MOL   C14914919   3.525   2.269   2.167 -0.4140 -0.0724  0.0161
   36MOL   C15014920   3.497   2.185   2.294  0.0016  0.5407 -0.5298
   36MOL   C15114921   3.469   2.256   2.428  0.4277  0.1214 -0.4782
   36MOL   O15214922   3.558   2.308   2.497  0.9800 -0.2078  0.3703
   36MOL   O15314923   3.347   2.249   2.469 -0.3665  0.2101 -0.0933
   36MOL   C15414924   3.306   2.287   2.601  0.6854  0.2020  0.0801
   36MOL   C15514925   3.210   2.180   2.648 -0.3653  0.1147 -0.2607
   36MOL   C15614926   3.285   2.048   2.686  0.9161  0.6855 -0.4165
   36MOL   C15714927   3.183   1.935   2.716 -0.4207 -0.0260  0.4895
   36MOL   H15814928   3.604   2.338   2.196  2.2669 -2.5069 -1.3080
   36MOL   H15914929   3.584   2.222   2.089  1.2097  1.0761  0.5132
   36MOL   H16014930   3.596   2.154   2.327  0.2276  1.5836 -0.2134
   36MOL   H16114931   3.259   2.386   2.605 -0.9986 -0.6083  0.7358
   36MOL   H16214932   3.396   2.287   2.664  0.9606  3.6935 -0.1838
   36MOL   H16314933   3.158   2.219   2.735  3.9072  2.8558  1.2077
   36MOL   H16414934   3.135   2.156   2.572  1.1385 -3.3312 -0.7595
   36MOL   H16514935   3.358   2.064   2.765  0.7761 -1.1500  0.1097
   36MOL   H16614936   3.347   2.020   2.601 -0.9756 -1.1996 -1.2099
   36MOL   H16714937   3.097   1.953   2.781 -0.6486  0.7267 -0.0141
   36MOL   H16814938   3.244   1.861   2.768  1.3435  1.5016  0.6119
   36MOL   H16914939   3.137   1.899   2.624 -0.4051  0.4193  0.3069
   36MOL   C17014940   3.406   2.061   2.275 -0.0484 -0.6984  0.3486
   36MOL   C17114941   3.457   1.963   2.165 -0.2054 -1.0716 -0.0737
   36MOL   C17214942   3.604   1.917   2.174 -0.0529 -0.2674 -0.0893
   36MOL   O17314943   3.673   1.936   2.273  0.3110 -0.1119 -0.0752
   36MOL   O17414944   3.638   1.834   2.067 -0.4001 -0.1917  0.2099
   36MOL   C17514945   3.770   1.785   2.056  0.1350  0.5753  1.0028
   36MOL   C17614946   3.775   1.649   2.135  0.1667 -0.2144  0.3835
   36MOL   C17714947   3.913   1.579   2.140 -0.0830  0.1051  0.0935
   36MOL   C17814948   3.984   1.532   2.014  0.0516  0.2962  0.3381
   36MOL   H17914949   3.307   2.093   2.242  0.6670  0.0965 -1.0794
   36MOL   H18014950   3.391   2.014   2.372 -1.2493 -0.3990  0.3178
   36MOL   H18114951   3.436   2.026   2.079  2.3296  2.3553  1.6665
   36MOL   H18214952   3.840   1.861   2.092 -0.5541  1.5676  0.2825
   36MOL   H18314953   3.802   1.767   1.953  1.8804  1.7189  1.3171
   36MOL   H18414954   3.741   1.657   2.238 -0.5586 -2.7211  0.3793
   36MOL   H18514955   3.710   1.578   2.084 -0.5729  0.5337  0.2805
   36MOL   H18614956   3.892   1.492   2.202 -3.2764  1.0025  0.3770
   36MOL   H18714957   3.981   1.640   2.200  1.1673  1.1542 -2.2890
   36MOL   H18814958   3.946   1.577   1.922  1.1476  1.3333  0.3842
   36MOL   H18914959   3.970   1.424   2.009  0.1572  0.3267 -0.7980
   36MOL   H19014960   4.091   1.543   1.996 -0.2383  1.3583 -0.7998
   36MOL   C19114961   3.359   1.846   2.129  0.2806  0.5114 -0.4857
   36MOL   C19214962   3.371   1.720   2.212 -0.1028 -0.0610  0.5884
   36MOL   C19314963   3.380   1.751   2.371  0.5850  0.0045  0.3605
   36MOL   O19414964   3.284   1.802   2.427  0.0150 -0.0912 -0.1681
   36MOL   O19514965   3.499   1.715   2.430  0.5875 -0.4864 -0.0418
   36MOL   C19614966   3.517   1.727   2.574 -0.0545  0.7807 -0.0191
   36MOL   C19714967   3.636   1.651   2.638  0.3461 -0.2804  0.7047
   36MOL   C19814968   3.773   1.714   2.603  0.5327  0.0836  0.0351
   36MOL   C19914969   3.882   1.617   2.654  0.6323  0.0452  0.0138
   36MOL   H20014970   3.388   1.815   2.029  0.8545 -4.6507  1.1496
   36MOL   H20114971   3.256   1.883   2.125  0.0669  0.2260  1.6805
   36MOL   H20214972   3.453   1.654   2.182 -0.2221 -0.9964  2.2600
   36MOL   H20314973   3.430   1.686   2.623 -0.1207  0.5532 -0.3264
   36MOL   H20414974   3.519   1.830   2.610 -1.4715 -0.0507  2.5371
   36MOL   H20514975   3.631   1.670   2.745 -4.2833  0.9509  0.3485
   36MOL   H20614976   3.644   1.545   2.616  1.1634  0.0044 -0.4182
   36MOL   H20714977   3.792   1.809   2.654  1.7131  0.8782 -1.8172
   36MOL   H20814978   3.789   1.735   2.498  4.4434  1.8082  0.8843
   36MOL   H20914979   3.869   1.512   2.624 -1.3756  0.1695  0.4199
   36MOL   H21014980   3.879   1.601   2.761  0.2508 -1.1400 -0.1566
   36MOL   H21114981   3.981   1.651   2.625  1.4465  0.1981  2.8991
   36MOL   C21214982   3.238   1.640   2.179 -0.9153  0.3141 -0.0132
   36MOL   C21314983   3.223   1.601   2.036  0.4480 -0.3944 -0.4464
   36MOL   C21414984   3.338   1.510   1.986 -0.3052  0.2354 -0.1839
   36MOL   O21514985   3.366   1.404   2.055  0.0886 -0.5861  0.1095
   36MOL   O21614986   3.398   1.556   1.876  0.2898  0.1113 -0.3300
   36MOL   C21714987   3.493   1.473   1.806  0.2177 -0.2613 -0.1849
   36MOL   C21814988   3.562   1.553   1.693 -0.1399 -0.1509 -0.0769
   36MOL   C21914989   3.665   1.650   1.755  0.1169 -0.4314  0.2598
   36MOL   C22014990   3.752   1.708   1.646 -0.1245  0.6044  0.3297
   36MOL   H22114991   3.161   1.710   2.213 -1.1835 -0.3611  0.7768
   36MOL   H22214992   3.237   1.555   2.247  1.7506  0.4516  0.2768
   36MOL   H22314993   3.212   1.680   1.962 -2.5670 -0.0007  0.3265
   36MOL   H22414994   3.447   1.386   1.757 -0.1620 -0.2168  0.0888
   36MOL   H22514995   3.564   1.435   1.879  0.6305 -0.8982 -0.9108
   36MOL   H22614996   3.606   1.484   1.622  0.5581 -0.6136  0.8009
   36MOL   H22714997   3.483   1.608   1.641 -1.9338 -1.6585  0.9760
   36MOL   H22814998   3.719   1.596   1.832  0.8792  0.8261  0.6369
   36MOL   H22914999   3.615   1.734   1.803 -0.9964 -0.7420 -0.3465
   36MOL   H23015000   3.688   1.754   1.572  0.5061  3.2156  1.3356
   36MOL   H23115001   3.805   1.628   1.594 -1.7603 -1.1040  1.2153
   36MOL   H23215002   3.819   1.786   1.683 -0.5369  1.1910 -0.1681
   36MOL   C23315003   3.089   1.528   2.006 -0.0108  0.3133 -0.2861
   36MOL   C23415004   2.961   1.611   2.009  0.4581 -0.7881  0.3041
   36MOL   C23515005   2.941   1.699   1.884  0.1270 -0.0612 -0.6609
   36MOL   O23615006   2.856   1.787   1.885 -0.7739  0.9525  0.5676
   36MOL   O23715007   3.023   1.676   1.783 -0.5804 -0.0511 -0.0381
   36MOL   C23815008   2.990   1.729   1.656  0.0702 -0.0868 -0.2450
   36MOL   C23915009   3.071   1.647   1.552  0.0527 -0.3061 -0.7655
   36MOL   C24015010   3.009   1.505   1.531 -0.4797 -0.3733 -0.0033
   36MOL   C24115011   3.088   1.443   1.413  0.2072  0.7230 -0.3558
   36MOL   H24215012   3.083   1.445   2.077  2.3227  0.6086  0.3270
   36MOL   H24315013   3.090   1.468   1.915  0.4748 -0.9459  0.5268
   36MOL   H24415014   2.973   1.684   2.090 -0.2040 -0.4892  0.1352
   36MOL   H24515015   3.023   1.831   1.636  2.1362 -1.1115 -2.3505
   36MOL   H24615016   2.882   1.728   1.639 -0.4407  0.6102  2.7366
   36MOL   H24715017   3.061   1.691   1.453  0.5831 -3.5572 -2.3585
   36MOL   H24815018   3.174   1.643   1.586 -0.1872  0.6609  0.0915
   36MOL   H24915019   2.904   1.512   1.502 -0.4014 -0.9979 -0.4541
   36MOL   H25015020   3.015   1.448   1.624  0.9825  0.5983  0.5135
   36MOL   H25115021   3.195   1.439   1.430 -0.0036 -2.3224  0.4469
   36MOL   H25215022   3.080   1.501   1.320  1.4595  0.1556 -0.8270
   36MOL   H25315023   3.047   1.346   1.386 -0.8260  1.1100 -0.2186
   36MOL   C25415024   2.829   1.530   2.029  0.3709  0.3972 -0.4636
   36MOL   C25515025   2.824   1.451   2.162 -0.4534 -0.0307 -0.0233
   36MOL   C25615026   2.854   1.546   2.276 -0.1659  0.0398  0.5710
   36MOL   O25715027   2.964   1.536   2.331  0.3715 -0.4512 -0.3752
   36MOL   O25815028   2.762   1.656   2.291  0.5902  0.9674  0.1904
   36MOL   C25915029   2.802   1.754   2.378  0.4751 -0.1232  0.1881
   36MOL   C26015030   2.879   1.872   2.309 -0.1625  0.3951 -1.1167
   36MOL   C26115031   2.950   1.994   2.382  0.0505  0.6074  0.5737
   36MOL   C26215032   2.975   2.106   2.279 -0.3343  0.1252 -0.1450
   36MOL   H26315033   2.816   1.458   1.948  2.8243 -0.3805 -0.2120
   36MOL   H26415034   2.742   1.595   2.019 -0.7858 -0.7280  1.8841
   36MOL   H26515035   2.898   1.372   2.173 -0.8240 -0.2017  1.4002
   36MOL   H26615036   2.858   1.704   2.456 -0.7234 -0.0573  1.1121
   36MOL   H26715037   2.710   1.790   2.426 -0.3595 -1.1822 -0.5896
   36MOL   H26815038   2.962   1.843   2.244 -1.3354 -1.3625 -1.8587
   36MOL   H26915039   2.810   1.911   2.234 -1.6877  1.1771  0.6590
   36MOL   H27015040   3.049   1.969   2.421 -0.7584  1.0548  2.9669
   36MOL   H27115041   2.885   2.024   2.464 -1.1584 -1.2662  0.3185
   36MOL   H27215042   2.876   2.150   2.274  1.0327  3.2613 -0.6436
   36MOL   H27315043   2.999   2.076   2.177 -1.3883  0.1332 -0.4029
   36MOL   H27415044   3.045   2.177   2.323 -2.4521  1.8656  0.5138
   36MOL   C27515045   2.691   1.372   2.173 -0.2094 -0.5615  0.3772
   36MOL   C27615046   2.705   1.241   2.261  0.0999  0.2875 -0.1134
   36MOL   C27715047   2.585   1.221   2.357 -0.3434  0.6171 -0.2094
   36MOL   O27815048   2.601   1.240   2.478  0.2471  0.8683  0.2351
   36MOL   O27915049   2.471   1.207   2.292  0.6469  0.5358  0.1733
   36MOL   C28015050   2.352   1.199   2.363  0.2221  0.2389 -0.3054
   36MOL   C28115051   2.285   1.071   2.342  0.6177  0.4972 -0.4763
   36MOL   C28215052   2.359   0.960   2.409  0.4539  0.9163  0.3700
   36MOL   C28315053   2.295   0.822   2.403  0.7299 -0.0008 -0.0829
   36MOL   H28415054   2.654   1.326   2.081  3.1147  0.7261 -1.7051
   36MOL   H28515055   2.605   1.435   2.196  0.3236  0.0032  0.8270
   36MOL   H28615056   2.789   1.259   2.327 -1.4727  1.1241  1.7277
   36MOL   H28715057   2.276   1.275   2.345 -0.2234 -0.3284 -0.8472
   36MOL   H28815058   2.371   1.219   2.469  0.5419 -0.5314 -0.2139
   36MOL   H28915059   2.188   1.073   2.393  0.1498  0.1538 -1.3412
   36MOL   H29015060   2.259   1.049   2.238 -3.1670 -0.5107  0.6027
   36MOL   H29115061   2.376   0.981   2.514  0.6412 -1.4577  0.8377
   36MOL   H29215062   2.458   0.944   2.366  0.1885  0.8869 -0.2315
   36MOL   H29315063   2.198   0.818   2.452  1.2525  1.7115  1.1548
   36MOL   H29415064   2.353   0.744   2.451  1.0694  1.2115  1.5167
   36MOL   H29515065   2.300   0.795   2.297  1.2488 -1.1153  0.2176
   36MOL   C29615066   2.721   1.098   2.200 -0.7525 -1.0572 -0.1991
   36MOL   C29715067   2.850   1.085   2.116  0.3302  0.4370  0.9506
   36MOL   C29815068   2.973   1.077   2.209  0.3724 -0.4604  0.0148
   36MOL   O29915069   2.981   1.005   2.308 -0.5317  0.7229 -0.1858
   36MOL   O30015070   3.065   1.170   2.176 -0.2215 -0.1917  0.1560
   36MOL   C30115071   3.175   1.199   2.265 -0.7340  0.6068  0.0629
   36MOL   C30215072   3.305   1.129   2.217 -0.5062  0.2315  0.3632
   36MOL   C30315073   3.301   0.983   2.252  0.3782  0.0846  0.3621
   36MOL   C30415074   3.407   0.905   2.186 -0.5920  0.5168  0.6073
   36MOL   H30515075   2.627   1.068   2.152 -0.9789 -2.4095  1.0422
   36MOL   H30615076   2.731   1.021   2.277  0.3261 -2.6943 -1.9499
   36MOL   H30715077   2.856   1.156   2.033 -0.7086 -0.4086  0.1207
   36MOL   H30815078   3.155   1.159   2.364 -0.4086  2.1098  0.7369
   36MOL   H30915079   3.186   1.307   2.267  1.2895  0.3951  1.6623
   36MOL   H31015080   3.305   1.137   2.109  0.8862 -0.3693  0.2990
   36MOL   H31115081   3.397   1.165   2.263  0.4270  0.9995 -2.0265
   36MOL   H31215082   3.211   0.933   2.216 -0.6305  2.8677 -1.1361
   36MOL   H31315083   3.289   0.965   2.359 -2.1289 -1.3358 -0.1023
   36MOL   H31415084   3.387   0.799   2.204 -0.0390 -0.2448 -2.9829
   36MOL   H31515085   3.507   0.930   2.221 -0.3436  0.4973 -0.0785
   36MOL   H31615086   3.416   0.910   2.078 -2.2591 -1.9778  0.3079
   36MOL   C31715087   2.830   0.949   2.048  0.1191  0.7042 -0.5650
   36MOL   C31815088   2.948   0.921   1.944  0.5642 -0.8915  0.2619
   36MOL   C31915089   2.986   0.775   1.955 -0.5616  0.0477  0.1270
   36MOL   O32015090   3.087   0.737   2.013 -0.4634  0.6047  0.5024
   36MOL   O32115091   2.900   0.689   1.898 -0.2879  0.5635  0.0775
   36MOL   C32215092   2.908   0.551   1.922 -0.2648 -0.6443  0.5861
   36MOL   C32315093   2.800   0.502   2.026  0.6102  0.1897  0.3291
   36MOL   C32415094   2.797   0.347   2.031 -0.0410  0.2155  0.5094
   36MOL   C32515095   2.676   0.301   2.109 -0.0333  0.4061 -0.4005
   36MOL   H32615096   2.729   0.935   2.011 -0.0476  1.4801 -0.4206
   36MOL   H32715097   2.839   0.870   2.122 -0.3913 -0.0495 -1.3000
   36MOL   H32815098   3.034   0.986   1.960 -1.1500  1.6361 -0.4448
   36MOL   H32915099   3.008   0.515   1.948 -0.5310 -1.4709  0.4913
   36MOL   H33015100   2.886   0.499   1.829  3.3000 -1.8888  0.3392
   36MOL   H33115101   2.819   0.548   2.123 -1.5061 -0.3074  1.0126
   36MOL   H33215102   2.705   0.539   1.987 -0.6820 -1.7375  1.5166
   36MOL   H33315103   2.888   0.308   2.077  2.0092  2.0531 -1.8028
   36MOL   H33415104   2.788   0.308   1.929  1.0112  0.6277  0.2513
   36MOL   H33515105   2.672   0.360   2.201  2.1992 -0.8864  0.5727
   36MOL   H33615106   2.678   0.198   2.143 -1.3419  1.3328  2.6650
   36MOL   H33715107   2.577   0.317   2.068 -0.8576 -2.7381  0.2290
   36MOL   C33815108   2.899   0.953   1.802 -0.0492  0.0457  0.1966
   36MOL   C33915109   2.943   1.094   1.749 -1.3448  0.0168  0.2435
   36MOL   C34015110   3.096   1.110   1.744 -1.4570 -0.3734 -0.7134
   36MOL   O34115111   3.156   1.217   1.761 -0.2527 -0.1318  0.2126
   36MOL   O34215112   3.157   0.991   1.743 -0.0510 -0.4890  0.0788
   36MOL   C34315113   3.301   0.966   1.760 -0.1434  0.2567  0.2118
   36MOL   C34415114   3.335   0.824   1.808 -0.3677  0.6167 -0.0519
   36MOL   C34515115   3.486   0.792   1.813  0.5999 -0.1704 -0.4929
   36MOL   C34615116   3.512   0.653   1.872  0.1754  0.3146  0.3210
   36MOL   H34715117   2.790   0.953   1.802 -0.0606  0.3902  2.1100
   36MOL   H34815118   2.928   0.878   1.729 -0.9133  1.1338 -1.2991
   36MOL   H34915119   2.909   1.175   1.814  0.1236  0.8967 -0.0725
   36MOL   H35015120   3.347   1.043   1.822  1.9341 -0.3611 -0.5249
   36MOL   H35115121   3.347   0.972   1.662 -1.7085 -2.3453 -0.7357
   36MOL   H35215122   3.286   0.787   1.898 -0.8750 -0.1685 -0.6473
   36MOL   H35315123   3.287   0.756   1.737 -0.9837 -1.1307  1.9965
   36MOL   H35415124   3.549   0.858   1.872  0.7716 -1.4896  0.8343
   36MOL   H35515125   3.529   0.795   1.713 -0.7275  2.2622 -1.0503
   36MOL   H35615126   3.456   0.573   1.824 -0.6500  0.5943  0.8079
   36MOL   H35715127   3.492   0.638   1.978  1.9266  3.5130  1.1919
   36MOL   H35815128   3.618   0.628   1.870  0.4309  1.3208  0.5053
   36MOL   C35915129   2.890   1.139   1.611  0.4628  0.4547 -1.0530
   36MOL   C36015130   2.739   1.170   1.609 -0.3096  0.4782  0.6313
   36MOL   C36115131   2.698   1.288   1.693  0.3080 -0.3577 -0.6641
   36MOL   O36215132   2.650   1.269   1.802  0.4975  0.5112 -0.1126
   36MOL   O36315133   2.720   1.404   1.639 -0.5245  0.4742  0.4219
   36MOL   C36415134   2.676   1.525   1.705  0.3034 -0.3125  0.6616
   36MOL   C36515135   2.581   1.610   1.611 -0.1326  0.4253  0.3633
   36MOL   C36615136   2.632   1.647   1.472  0.3961  0.3419  0.0738
   36MOL   C36715137   2.524   1.726   1.399  0.0747  0.4789 -0.4052
   36MOL   H36815138   2.894   1.056   1.541  1.6397  0.6352 -1.2162
   36MOL   H36915139   2.949   1.222   1.572  0.6911  0.5269 -0.5478
   36MOL   H37015140   2.685   1.084   1.650  1.2100 -1.8048 -1.9829
   36MOL   H37115141   2.761   1.589   1.726 -1.7973  2.6294  0.5356
   36MOL   H37215142   2.624   1.515   1.800  0.1429 -0.3283  0.5730
   36MOL   H37315143   2.482   1.568   1.591  0.9796 -1.2683 -1.7470
   36MOL   H37415144   2.561   1.707   1.657  1.1584  0.9353 -0.1520
   36MOL   H37515145   2.656   1.559   1.412  0.7031 -0.3049  1.1308
   36MOL   H37615146   2.726   1.701   1.480  1.2086 -0.9845 -0.3697
   36MOL   H37715147   2.481   1.805   1.461 -1.2699 -1.8636  1.7402
   36MOL   H37815148   2.443   1.654   1.386 -0.4064  0.0878  3.9607
   36MOL   H37915149   2.548   1.763   1.300  0.3583  0.4901 -0.3312
   36MOL   C38015150   2.686   1.184   1.461 -0.0613 -0.0259 -0.1404
   36MOL   C38115151   2.539   1.226   1.443  0.1012 -0.3606 -0.0182
   36MOL   C38215152   2.490   1.237   1.297 -0.6762  0.5036  0.1803
   36MOL   O38315153   2.443   1.339   1.254  0.2590  0.4792 -0.6114
   36MOL   O38415154   2.511   1.122   1.228 -0.0972  0.2740 -0.8672
   36MOL   C38515155   2.473   1.106   1.095  0.6773  0.5804 -0.1389
   36MOL   C38615156   2.580   1.153   0.992  0.0246 -0.3297 -0.8854
   36MOL   C38715157   2.548   1.113   0.851  1.0591 -0.0235  0.2401
   36MOL   C38815158   2.450   1.219   0.796  0.5350 -0.0254  0.0564
   36MOL   H38915159   2.698   1.088   1.412  0.1958 -0.5455  0.9308
   36MOL   H39015160   2.744   1.259   1.406 -0.8557 -0.0116 -0.9655
   36MOL   H39115161   2.528   1.327   1.484 -1.3072 -0.1359 -0.9150
   36MOL   H39215162   2.377   1.154   1.080 -0.5618 -1.6750  0.5024
   36MOL   H39315163   2.447   1.001   1.086 -0.1205  0.7956 -0.3495
   36MOL   H39415164   2.603   1.259   1.004 -0.8280 -0.2532  0.2819
   36MOL   H39515165   2.676   1.111   1.023  0.0027  0.4100  0.2528
   36MOL   H39615166   2.497   1.018   0.836  0.5299  0.3039 -0.0709
   36MOL   H39715167   2.634   1.121   0.784  0.4943  1.1319 -0.3727
   36MOL   H39815168   2.498   1.316   0.807 -0.9277  0.7141 -0.0386
   36MOL   H39915169   2.350   1.228   0.837  0.7613 -0.7693  0.7948
   36MOL   H40015170   2.437   1.204   0.689 -0.7976 -2.1853  0.4885
   36MOL   C40115171   2.442   1.136   1.516 -0.0911  0.7405  0.7127
   36MOL   C40215172   2.295   1.187   1.532  0.5433 -0.0751 -0.2127
   36MOL   C40315173   2.291   1.306   1.622  0.3586  0.2958 -0.6166
   36MOL   O40415174   2.244   1.413   1.584  0.5359  0.5643 -0.1224
   36MOL   O40515175   2.341   1.278   1.742 -0.8881  0.6642 -0.3678
   36MOL   C40615176   2.370   1.381   1.842  0.0011 -0.2261  0.4405
   36MOL   C40715177   2.303   1.340   1.968  0.2631 -0.1562 -0.0241
   36MOL   C40815178   2.149   1.359   1.963 -0.1409  0.1596 -0.3768
   36MOL   C40915179   2.089   1.329   2.094  0.1995  0.4248  0.4759
   36MOL   H41015180   2.474   1.112   1.617 -0.5754  2.5216  1.3071
   36MOL   H41115181   2.433   1.043   1.458 -1.7083  0.3150  1.6293
   36MOL   H41215182   2.239   1.122   1.599  0.5498  2.1382  1.9798
   36MOL   H41315183   2.331   1.478   1.810 -2.1444 -1.2427 -0.0849
   36MOL   H41415184   2.478   1.389   1.854  0.4425 -1.4806 -2.4316
   36MOL   H41515185   2.320   1.236   1.994 -0.8721 -0.6268 -1.0877
   36MOL   H41615186   2.351   1.394   2.049 -0.3293  1.0520 -0.4588
   36MOL   H41715187   2.100   1.297   1.889  0.3989 -0.0895 -0.5315
   36MOL   H41815188   2.138   1.461   1.928  0.5864  0.0487 -0.9509
   36MOL   H41915189   2.140   1.236   2.121  0.3619 -0.2110 -1.9544
   36MOL   H42015190   1.982   1.314   2.082  0.2993 -0.2559  0.4206
   36MOL   H42115191   2.119   1.405   2.166 -0.5694  0.0903  1.1582
   36MOL   H42215192   2.241   1.217   1.442  2.0754  0.7712 -0.8645
   37MOL     C115193   4.136   2.573   6.353 -0.5425 -0.0480  0.0874
   37MOL     C215194   4.076   2.638   6.481 -0.0897  0.2569  0.3097
   37MOL     C315195   4.196   2.693   6.565  0.4032 -0.3637 -0.3156
   37MOL     O415196   4.228   2.630   6.666 -0.5341 -0.3429 -0.6444
   37MOL     O515197   4.250   2.809   6.522 -0.1828  0.2254  0.0934
   37MOL     C615198   4.366   2.872   6.585 -0.3160  0.2502 -0.0771
   37MOL     C715199   4.414   2.992   6.500 -0.6056  0.2806  0.2983
   37MOL     C815200   4.554   3.037   6.542  0.0811  0.0693 -0.9735
   37MOL     C915201   4.588   3.174   6.495  0.1699 -0.2983  0.1833
   37MOL    H1015202   4.054   2.534   6.292  0.9715  0.9961 -2.7034
   37MOL    H1115203   4.199   2.643   6.298 -0.7290  0.8688  1.0371
   37MOL    H1215204   4.037   2.551   6.533  0.6509 -0.9697 -1.1726
   37MOL    H1315205   4.439   2.791   6.589 -0.0620  0.5726  2.2114
   37MOL    H1415206   4.353   2.895   6.690 -0.2049  1.4570 -0.3259
   37MOL    H1515207   4.424   2.961   6.397 -0.6325  0.3675  0.2692
   37MOL    H1615208   4.339   3.071   6.497  0.1432  0.9400 -1.7856
   37MOL    H1715209   4.634   2.973   6.505  1.0030 -0.9226  2.6122
   37MOL    H1815210   4.557   3.046   6.650 -0.6830  0.4030 -0.9703
   37MOL    H1915211   4.510   3.247   6.519  0.6710 -1.1946  4.8289
   37MOL    H2015212   4.604   3.174   6.387  1.1133 -0.3715  0.3222
   37MOL    H2115213   4.684   3.203   6.537 -0.3929  1.9129  0.0280
   37MOL    H2215214   4.199   2.487   6.377  0.1384  0.2506 -0.6227
   37MOL    C2315215   3.950   2.732   6.458  0.4305  0.3930  0.1610
   37MOL    C2415216   3.811   2.659   6.457  0.1575 -0.3102  0.2200
   37MOL    C2515217   3.729   2.679   6.586  0.5768  0.1544  0.4583
   37MOL    O2615218   3.743   2.769   6.662 -0.4473  0.4548  0.1292
   37MOL    O2715219   3.632   2.583   6.597  0.2423  0.2549  0.1625
   37MOL    C2815220   3.544   2.583   6.714  0.4450 -0.0262 -0.0351
   37MOL    C2915221   3.470   2.446   6.734  0.5741  0.4223  0.8278
   37MOL    C3015222   3.384   2.411   6.612 -0.0488 -0.2047 -0.1729
   37MOL    C3115223   3.336   2.266   6.627 -0.2344  1.0371  0.4898
   37MOL    H3215224   3.960   2.789   6.366 -1.1935  0.0572 -0.2383
   37MOL    H3315225   3.953   2.801   6.541  1.6758 -0.2463  0.6615
   37MOL    H3415226   3.833   2.552   6.464 -0.1078 -0.5622 -2.2470
   37MOL    H3515227   3.466   2.657   6.696  0.3461 -0.4069 -1.2488
   37MOL    H3615228   3.597   2.615   6.804 -0.2694  1.5896 -0.1819
   37MOL    H3715229   3.554   2.376   6.738  1.1448  1.1374  1.3949
   37MOL    H3815230   3.416   2.444   6.829 -0.8459 -3.4640  0.0196
   37MOL    H3915231   3.439   2.427   6.519 -1.5475  2.8148 -0.6066
   37MOL    H4015232   3.301   2.479   6.595 -0.1680  0.1302  1.7084
   37MOL    H4115233   3.284   2.242   6.720  0.3513  1.6371  0.9723
   37MOL    H4215234   3.419   2.198   6.612 -2.1461 -0.7061 -2.9457
   37MOL    H4315235   3.270   2.244   6.543 -0.2856  2.5003  0.1364
   37MOL    C4415236   3.724   2.682   6.330  0.0670  0.1381  0.3529
   37MOL    C4515237   3.788   2.635   6.197 -0.0707  0.3215  0.7575
   37MOL    C4615238   3.766   2.484   6.193 -0.1140 -0.4892  0.4372
   37MOL    O4715239   3.866   2.416   6.174 -0.4079 -0.4010  0.4539
   37MOL    O4815240   3.644   2.433   6.225  0.3457  0.0547  0.1057
   37MOL    C4915241   3.613   2.301   6.207  0.1394 -0.1556  0.7702
   37MOL    C5015242   3.674   2.212   6.313  0.3608  0.1752 -0.5851
   37MOL    C5115243   3.632   2.059   6.317  0.1967  0.0686 -0.1369
   37MOL    C5215244   3.623   1.998   6.460  0.1948 -0.3046  0.4558
   37MOL    H5315245   3.706   2.789   6.316  1.1988  0.3635  0.6173
   37MOL    H5415246   3.624   2.639   6.342  0.1836 -0.0253  0.7483
   37MOL    H5515247   3.895   2.658   6.195 -0.3730  1.7267  0.4557
   37MOL    H5615248   3.653   2.264   6.113  1.0574 -0.0746  1.1220
   37MOL    H5715249   3.505   2.297   6.218 -0.2433  2.7710 -1.4778
   37MOL    H5815250   3.782   2.206   6.295  0.9837 -1.1414  3.2399
   37MOL    H5915251   3.644   2.268   6.401  0.0187  2.1483 -1.8981
   37MOL    H6015252   3.705   2.011   6.252  1.5890  0.4773  1.1048
   37MOL    H6115253   3.529   2.053   6.282 -0.8574  0.9832  2.6476
   37MOL    H6215254   3.625   1.889   6.472 -0.2568 -0.2815  0.7723
   37MOL    H6315255   3.530   2.028   6.508  0.5770  0.3579  0.7834
   37MOL    H6415256   3.715   2.020   6.514  0.0297  1.2826  0.0934
   37MOL    C6515257   3.724   2.687   6.071  0.4346  0.4602 -0.1618
   37MOL    C6615258   3.742   2.834   6.043 -0.3150  0.4610 -0.3379
   37MOL    C6715259   3.878   2.898   6.066 -0.2060  0.5129 -0.5556
   37MOL    O6815260   3.895   3.018   6.089 -0.2525  0.2152 -0.1727
   37MOL    O6915261   3.977   2.814   6.020  0.1280  0.4880 -0.1988
   37MOL    C7015262   4.111   2.858   6.029  0.0634 -0.3273  0.1648
   37MOL    C7115263   4.211   2.741   6.019 -0.3165  0.1203  0.7621
   37MOL    C7215264   4.360   2.787   6.060 -0.2260  0.0579  0.1474
   37MOL    C7315265   4.420   2.897   5.967 -0.2161  0.6033 -0.0772
   37MOL    H7415266   3.617   2.667   6.076  0.9923 -2.3306  1.2463
   37MOL    H7515267   3.765   2.629   5.988 -0.5283  0.0330 -0.3477
   37MOL    H7615268   3.677   2.895   6.107 -1.0358  0.1154 -0.7337
   37MOL    H7715269   4.146   2.893   6.126  1.0581  1.5570 -0.8391
   37MOL    H7815270   4.135   2.943   5.964 -0.1525  0.7734  1.5055
   37MOL    H7915271   4.184   2.652   6.075 -1.8239 -0.3840 -0.7031
   37MOL    H8015272   4.224   2.710   5.915  0.0356  1.0017  0.5408
   37MOL    H8115273   4.428   2.702   6.061 -0.2460  0.0412 -0.0621
   37MOL    H8215274   4.363   2.830   6.160  0.5994 -1.3678  0.7643
   37MOL    H8315275   4.465   2.844   5.883  0.1578 -0.3819  0.7222
   37MOL    H8415276   4.510   2.945   6.005  0.0214  0.9547 -1.0899
   37MOL    H8515277   4.350   2.971   5.931  0.4754 -0.4878 -3.8636
   37MOL    C8615278   3.697   2.878   5.902 -0.2795  0.4144  0.5568
   37MOL    C8715279   3.548   2.851   5.868 -0.1325  0.2027  0.3021
   37MOL    C8815280   3.451   2.924   5.959 -0.2093  0.1507 -0.9922
   37MOL    O8915281   3.361   2.861   6.015  0.7839 -1.0305  0.0735
   37MOL    O9015282   3.475   3.050   5.963 -0.1157 -0.1679  0.3621
   37MOL    C9115283   3.394   3.137   6.035 -0.3084 -0.2809 -0.1509
   37MOL    C9215284   3.318   3.237   5.943  0.0797  0.5730 -0.5409
   37MOL    C9315285   3.218   3.168   5.854 -0.0618 -0.9282 -0.6383
   37MOL    C9415286   3.142   3.265   5.768  0.7755 -0.3669 -0.2173
   37MOL    H9515287   3.760   2.823   5.831  1.6329  1.3019  1.5191
   37MOL    H9615288   3.712   2.984   5.884 -1.8099  0.1121 -2.9094
   37MOL    H9715289   3.526   2.747   5.890  0.4165  0.1909  0.8121
   37MOL    H9815290   3.459   3.198   6.097 -0.6936  1.1757 -1.1541
   37MOL    H9915291   3.338   3.080   6.110 -0.6176 -0.0574 -0.2117
   37MOL   H10015292   3.269   3.310   6.008 -1.9073 -1.8709  0.7689
   37MOL   H10115293   3.398   3.285   5.887  2.0809 -1.8363  0.1559
   37MOL   H10215294   3.159   3.097   5.913  0.9526 -0.1906  1.2791
   37MOL   H10315295   3.269   3.095   5.791 -1.5240 -2.1722 -0.4162
   37MOL   H10415296   3.092   3.226   5.679  0.7030  0.5225 -0.5679
   37MOL   H10515297   3.221   3.328   5.727  0.7778 -1.4208 -1.8438
   37MOL   H10615298   3.071   3.323   5.828  1.2132 -0.9439  0.8826
   37MOL   C10715299   3.517   2.883   5.718  0.5635 -0.1353 -0.1057
   37MOL   C10815300   3.406   2.796   5.658 -0.3837 -0.5343 -0.2421
   37MOL   C10915301   3.297   2.882   5.590  0.0163 -0.3393  0.4952
   37MOL   O11015302   3.321   2.992   5.549  0.2784  0.1733 -0.1018
   37MOL   O11115303   3.174   2.821   5.570 -0.6447  0.1199 -0.1722
   37MOL   C11215304   3.073   2.905   5.523 -0.2756 -0.6553  0.2482
   37MOL   C11315305   2.961   2.834   5.447  0.0183  1.0638 -0.6553
   37MOL   C11415306   2.839   2.929   5.433 -0.4173  0.2118 -0.1858
   37MOL   C11515307   2.714   2.847   5.402 -0.0375 -0.1698  0.7473
   37MOL   H11615308   3.608   2.890   5.658 -0.6044 -1.2065 -2.0522
   37MOL   H11715309   3.491   2.989   5.723  0.2469 -0.2409  0.4934
   37MOL   H11815310   3.356   2.740   5.737 -0.8398  0.1358 -0.0579
   37MOL   H11915311   3.118   2.971   5.449 -0.3928  1.0273  1.6589
   37MOL   H12015312   3.038   2.982   5.592 -0.2108  0.5487 -1.0553
   37MOL   H12115313   3.000   2.815   5.346 -2.8594  0.4342 -1.7103
   37MOL   H12215314   2.936   2.741   5.498 -0.2929  1.8524  0.6329
   37MOL   H12315315   2.857   2.986   5.342  1.1040 -1.3720 -0.8942
   37MOL   H12415316   2.810   3.000   5.510 -1.6081 -1.8200  1.2875
   37MOL   H12515317   2.704   2.812   5.299  2.2844  1.0593  0.0794
   37MOL   H12615318   2.622   2.897   5.434 -1.1281 -1.5123 -0.2364
   37MOL   H12715319   2.705   2.757   5.462 -0.7295 -1.2761 -0.9939
   37MOL   C12815320   3.471   2.696   5.557  0.7624 -0.8455 -0.0769
   37MOL   C12915321   3.571   2.593   5.618  0.2951 -0.2347  0.2903
   37MOL   C13015322   3.500   2.480   5.688  0.3142  0.4750 -0.9128
   37MOL   O13115323   3.498   2.473   5.812  0.6068  0.1864  0.2476
   37MOL   O13215324   3.438   2.386   5.604 -0.2814  0.3267  0.4157
   37MOL   C13315325   3.356   2.287   5.668 -0.4193 -0.6575  0.1715
   37MOL   C13415326   3.344   2.165   5.565  0.3161  0.8230 -0.3290
   37MOL   C13515327   3.252   2.048   5.605  0.0552 -0.0020  0.4820
   37MOL   C13615328   3.203   1.967   5.489  0.1727  0.1441 -0.0842
   37MOL   H13715329   3.534   2.747   5.485  0.0864  0.5880  0.3188
   37MOL   H13815330   3.384   2.659   5.504 -0.4165 -1.6331  2.3294
   37MOL   H13915331   3.624   2.648   5.696 -1.3175  2.8406 -0.7073
   37MOL   H14015332   3.262   2.335   5.695  0.1130 -0.5557  1.8809
   37MOL   H14115333   3.387   2.246   5.764  0.1295  0.1490  0.3347
   37MOL   H14215334   3.331   2.213   5.468  2.1500  0.4537 -0.7811
   37MOL   H14315335   3.441   2.118   5.550 -0.3299 -0.5085 -0.3646
   37MOL   H14415336   3.168   2.093   5.656 -0.5799 -0.4314 -0.1757
   37MOL   H14515337   3.306   1.986   5.677  0.0458  1.5289  1.8364
   37MOL   H14615338   3.156   1.871   5.511 -2.9583  0.5622 -4.3643
   37MOL   H14715339   3.273   1.943   5.408  1.6723 -2.6164  1.9268
   37MOL   H14815340   3.120   2.025   5.451  1.9160  1.9536 -1.2482
   37MOL   C14915341   3.671   2.531   5.513 -0.1895 -0.4914  0.2275
   37MOL   C15015342   3.790   2.628   5.483  0.1084  0.5769 -0.3533
   37MOL   C15115343   3.877   2.653   5.603  0.3025 -0.1308  0.3087
   37MOL   O15215344   3.890   2.575   5.699 -0.1698  0.1651  0.1249
   37MOL   O15315345   3.939   2.779   5.601 -0.2862 -0.6214  0.7905
   37MOL   C15415346   4.045   2.808   5.686  0.5111 -0.3288 -0.1497
   37MOL   C15515347   4.175   2.850   5.622  0.2034  0.3281 -0.1397
   37MOL   C15615348   4.248   2.727   5.561  0.7249 -0.1709  0.2345
   37MOL   C15715349   4.396   2.758   5.523 -0.6547  0.4565  0.1110
   37MOL   H15815350   3.619   2.511   5.419  0.5462 -2.4107  0.2181
   37MOL   H15915351   3.717   2.440   5.551  0.3916 -0.7086 -0.9596
   37MOL   H16015352   3.744   2.725   5.461 -0.9897  0.6230  2.0109
   37MOL   H16115353   4.067   2.733   5.762  0.5718 -0.8668 -0.7004
   37MOL   H16215354   3.993   2.884   5.745 -0.3344 -1.0631  0.0578
   37MOL   H16315355   4.180   2.930   5.548  1.3803  0.7543  0.4011
   37MOL   H16415356   4.232   2.901   5.699  0.1274  0.7247 -0.3461
   37MOL   H16515357   4.192   2.688   5.476 -1.3601  0.3522  1.3473
   37MOL   H16615358   4.246   2.646   5.634  3.3951  1.1376  1.8824
   37MOL   H16715359   4.441   2.661   5.500 -0.7634  0.4304  0.0089
   37MOL   H16815360   4.443   2.814   5.604  0.4044  0.6856 -0.6394
   37MOL   H16915361   4.407   2.818   5.433 -2.8936 -0.4997 -0.8214
   37MOL   C17015362   3.882   2.581   5.363 -0.0951 -0.1866  0.2782
   37MOL   C17115363   3.838   2.650   5.230 -0.3316 -0.5285  0.3376
   37MOL   C17215364   3.857   2.802   5.243 -0.5821 -0.3884  0.3756
   37MOL   O17315365   3.768   2.876   5.225  0.3578  0.0126 -0.4770
   37MOL   O17415366   3.978   2.836   5.274 -0.4237  0.1080 -0.2233
   37MOL   C17515367   4.009   2.970   5.303  0.1166 -0.4468  0.0855
   37MOL   C17615368   4.147   3.000   5.241 -0.8359  0.6528 -0.0370
   37MOL   C17715369   4.185   3.151   5.256  0.2100 -0.1199 -0.2551
   37MOL   C17815370   4.221   3.203   5.396 -0.7306 -0.2887  0.0470
   37MOL   H17915371   3.864   2.475   5.342 -0.6072  0.2553 -1.5552
   37MOL   H18015372   3.988   2.581   5.386  0.0588 -2.2003 -0.3304
   37MOL   H18115373   3.729   2.650   5.230 -0.3308 -0.8399  0.0817
   37MOL   H18215374   4.010   2.983   5.411 -1.4666 -0.4868  0.1295
   37MOL   H18315375   3.925   3.031   5.267 -0.3630 -0.2622  1.4726
   37MOL   H18415376   4.231   2.936   5.269 -1.6972 -1.2991 -1.8013
   37MOL   H18515377   4.134   2.974   5.136 -0.1873  1.0492 -0.2210
   37MOL   H18615378   4.113   3.215   5.206 -2.5105 -2.5892  0.3507
   37MOL   H18715379   4.272   3.167   5.192  0.9072 -0.0654  0.6948
   37MOL   H18815380   4.269   3.301   5.395  0.4187 -0.8307  0.3784
   37MOL   H18915381   4.296   3.137   5.440 -0.9396 -0.3111  0.3760
   37MOL   H19015382   4.138   3.195   5.466 -0.8260  1.4737  0.1598
   37MOL   C19115383   3.891   2.583   5.103  0.4265 -0.1168 -0.0188
   37MOL   C19215384   4.039   2.614   5.051 -0.5543 -0.0742 -0.0395
   37MOL   C19315385   4.151   2.593   5.152  0.6928  0.3084 -0.1312
   37MOL   O19415386   4.228   2.686   5.176  0.3555  0.1503 -0.0536
   37MOL   O19515387   4.154   2.470   5.205  0.3303 -0.0803 -0.1210
   37MOL   C19615388   4.248   2.440   5.303  0.6148 -0.5138 -0.0842
   37MOL   C19715389   4.349   2.349   5.234  0.1944 -0.3550  0.6178
   37MOL   C19815390   4.421   2.273   5.333 -0.1399 -0.1918 -0.1219
   37MOL   C19915391   4.524   2.181   5.262  0.3779 -0.7355  0.6318
   37MOL   H20015392   3.835   2.619   5.016  0.3492  0.0480  0.0989
   37MOL   H20115393   3.874   2.476   5.110 -3.8798  0.5998  1.8161
   37MOL   H20215394   4.031   2.720   5.025  0.3927  0.2291  0.8829
   37MOL   H20315395   4.183   2.385   5.371  1.3801 -1.4399 -0.0877
   37MOL   H20415396   4.300   2.519   5.358 -1.8270 -1.2589  3.4108
   37MOL   H20515397   4.295   2.282   5.167  2.8208 -0.3086 -1.6629
   37MOL   H20615398   4.416   2.419   5.184  1.5751 -1.3289  1.0876
   37MOL   H20715399   4.353   2.218   5.398  0.7993 -0.0833  0.9635
   37MOL   H20815400   4.481   2.327   5.406 -1.9720 -0.4379  1.6027
   37MOL   H20915401   4.593   2.230   5.193 -1.5399  1.3261  0.1235
   37MOL   H21015402   4.464   2.097   5.226  0.6794 -1.9821  2.9665
   37MOL   H21115403   4.580   2.130   5.340  3.1979 -0.9444 -1.4297
   37MOL   C21215404   4.067   2.541   4.924 -0.0788 -0.1558 -0.1481
   37MOL   C21315405   4.198   2.593   4.858 -0.3644  0.3955  0.2814
   37MOL   C21415406   4.261   2.479   4.780  0.2660 -0.5534 -0.7428
   37MOL   O21515407   4.242   2.463   4.656 -0.2650 -0.8878 -0.5289
   37MOL   O21615408   4.338   2.398   4.858  0.2618  0.0918  0.2073
   37MOL   C21715409   4.377   2.275   4.797 -0.3681  0.2697  0.8749
   37MOL   C21815410   4.461   2.188   4.896  0.1996 -0.5921 -0.0184
   37MOL   C21915411   4.501   2.048   4.841  1.0167 -0.1463 -0.5191
   37MOL   C22015412   4.374   1.952   4.836 -0.8787 -0.1412  0.0480
   37MOL   H22115413   3.986   2.560   4.854  1.7187  0.2503 -2.1571
   37MOL   H22215414   4.073   2.433   4.939  0.6406  0.2763  3.1527
   37MOL   H22315415   4.274   2.630   4.926  0.6998  2.0622 -1.7670
   37MOL   H22415416   4.432   2.296   4.705 -1.9740 -0.9927 -0.3947
   37MOL   H22515417   4.291   2.219   4.761  0.4196  0.6508 -1.7193
   37MOL   H22615418   4.559   2.235   4.904 -0.3440  0.2761  1.7229
   37MOL   H22715419   4.422   2.170   4.996  0.6265  1.8071  0.6022
   37MOL   H22815420   4.565   1.995   4.911  0.6778 -1.2935 -1.0710
   37MOL   H22915421   4.533   2.058   4.737  1.6668 -0.0048 -0.3068
   37MOL   H23015422   4.410   1.849   4.825 -1.0937 -0.0597 -1.6301
   37MOL   H23115423   4.310   1.969   4.749 -2.1860  1.4443  1.3094
   37MOL   H23215424   4.318   1.950   4.929 -0.2636 -2.1885  0.4093
   37MOL   C23315425   4.163   2.715   4.761 -0.2966  0.0112 -0.0349
   37MOL   C23415426   4.267   2.825   4.732 -1.0049 -0.3252 -0.5828
   37MOL   C23515427   4.389   2.782   4.656 -0.0233  0.3387 -0.4782
   37MOL   O23615428   4.499   2.787   4.708  0.6678 -0.2661  0.4276
   37MOL   O23715429   4.365   2.739   4.533  0.1819  0.1123 -0.0609
   37MOL   C23815430   4.465   2.669   4.467  0.2336  0.1027 -0.5894
   37MOL   C23915431   4.454   2.638   4.324 -0.5051 -0.7269  0.0927
   37MOL   C24015432   4.448   2.780   4.246  0.0466  0.2219  0.3147
   37MOL   C24115433   4.529   2.767   4.117  0.4946  0.6887  0.0407
   37MOL   H24215434   4.077   2.764   4.806 -0.3928 -1.4992  1.4542
   37MOL   H24315435   4.123   2.682   4.665  0.0527  0.8812 -0.4853
   37MOL   H24415436   4.304   2.851   4.831 -0.4359  0.5197 -1.0136
   37MOL   H24515437   4.478   2.579   4.527  1.0890  1.3341  1.0842
   37MOL   H24615438   4.561   2.721   4.473  1.0360 -1.3483 -0.6162
   37MOL   H24715439   4.537   2.571   4.304  0.3474  0.0028  1.1262
   37MOL   H24815440   4.364   2.580   4.307  0.1616 -1.2730 -1.7339
   37MOL   H24915441   4.495   2.857   4.307  1.6314 -0.3690 -0.1385
   37MOL   H25015442   4.348   2.815   4.222 -1.4406 -2.9658  1.5229
   37MOL   H25115443   4.636   2.767   4.138  0.0280 -1.4830  2.6066
   37MOL   H25215444   4.509   2.848   4.046  0.4451 -1.2755 -2.2267
   37MOL   H25315445   4.515   2.669   4.071  1.0177  0.4860  0.3057
   37MOL   C25415446   4.198   2.944   4.668  0.7485  0.5104  0.5106
   37MOL   C25515447   4.174   3.058   4.767  0.7756 -0.3111 -0.2266
   37MOL   C25615448   4.312   3.120   4.809  0.3713 -0.2765  0.1274
   37MOL   O25715449   4.333   3.132   4.927 -0.4411 -0.3678 -0.7311
   37MOL   O25815450   4.385   3.154   4.696 -1.0131  0.3793  0.4545
   37MOL   C25915451   4.513   3.216   4.713  0.1006 -0.3273 -0.6053
   37MOL   C26015452   4.631   3.112   4.722 -0.1859  0.3665  0.5270
   37MOL   C26115453   4.756   3.178   4.790  0.2466 -0.0182  0.0793
   37MOL   C26215454   4.871   3.081   4.806  0.1010  0.0247 -0.3714
   37MOL   H26315455   4.108   2.909   4.618  1.2451 -0.9921  0.6266
   37MOL   H26415456   4.249   2.984   4.580 -0.8742 -0.7890 -1.0802
   37MOL   H26515457   4.126   3.021   4.857 -0.0244 -0.1503 -0.5797
   37MOL   H26615458   4.511   3.279   4.801 -1.6904 -1.4296  0.1490
   37MOL   H26715459   4.536   3.278   4.627  1.6267  1.2204  0.8839
   37MOL   H26815460   4.601   3.031   4.787  0.7569 -1.1277 -0.8731
   37MOL   H26915461   4.666   3.064   4.631 -2.8379  2.7112 -1.8735
   37MOL   H27015462   4.724   3.210   4.890 -0.0072 -0.3649  0.1095
   37MOL   H27115463   4.786   3.266   4.734  0.3180 -0.2456 -0.2381
   37MOL   H27215464   4.915   3.056   4.709  0.9186  0.2392 -0.0643
   37MOL   H27315465   4.844   2.987   4.855  0.0459  0.8561  1.2314
   37MOL   H27415466   4.942   3.131   4.872 -1.6415  1.4966  0.4294
   37MOL   C27515467   4.081   3.164   4.696 -0.2400  0.0444  0.2428
   37MOL   C27615468   4.052   3.277   4.796 -0.0194  0.1859  0.0877
   37MOL   C27715469   3.981   3.397   4.726  0.0375  0.2401 -0.0999
   37MOL   O27815470   3.884   3.454   4.776  0.3118 -0.4288 -0.0252
   37MOL   O27915471   4.047   3.425   4.612 -0.8291  0.0593  0.3378
   37MOL   C28015472   4.003   3.533   4.532 -0.1432 -0.4013 -0.5890
   37MOL   C28115473   4.063   3.515   4.389 -0.1839  0.1064 -0.3706
   37MOL   C28215474   4.042   3.644   4.309  0.2097 -0.1106  0.4339
   37MOL   C28315475   4.078   3.652   4.159  0.0116 -0.5333 -0.1713
   37MOL   H28415476   3.992   3.124   4.648 -1.6527  2.5374  0.7100
   37MOL   H28515477   4.134   3.201   4.608 -0.2788 -1.4610 -0.4269
   37MOL   H28615478   4.152   3.313   4.824 -0.2356 -1.4068  3.1621
   37MOL   H28715479   4.036   3.627   4.577 -2.8560  0.2460  0.1507
   37MOL   H28815480   3.894   3.533   4.530 -0.1779 -1.1446  0.8706
   37MOL   H28915481   4.166   3.481   4.381  0.7789  2.6800  0.7418
   37MOL   H29015482   4.002   3.437   4.343 -0.9497 -0.0781  0.9200
   37MOL   H29115483   4.119   3.711   4.347  0.1846 -0.9358  2.0210
   37MOL   H29215484   3.945   3.687   4.337 -1.0701 -0.3767 -3.3347
   37MOL   H29315485   4.176   3.696   4.140  0.1514 -0.1474  1.3817
   37MOL   H29415486   4.018   3.726   4.105 -0.6981  0.6232  2.1693
   37MOL   H29515487   4.069   3.553   4.114 -1.7975  0.3617 -1.8446
   37MOL   C29615488   3.983   3.233   4.932  0.0172  0.5051 -0.2382
   37MOL   C29715489   3.837   3.174   4.914  0.0996 -0.2716 -0.1375
   37MOL   C29815490   3.830   3.027   4.878  0.9279 -1.2134 -0.4944
   37MOL   O29915491   3.906   2.941   4.936  0.3672 -0.0499  0.5352
   37MOL   O30015492   3.730   3.005   4.797 -0.1786  0.0903  0.0948
   37MOL   C30115493   3.725   2.879   4.731  0.2865  0.4282 -0.2649
   37MOL   C30215494   3.642   2.785   4.821  0.3014 -0.6226  0.4774
   37MOL   C30315495   3.611   2.653   4.750 -0.0278 -0.0867  0.9009
   37MOL   C30415496   3.563   2.538   4.845  0.7928 -0.0001 -0.2243
   37MOL   H30515497   3.977   3.321   4.995 -1.1385  0.8655 -0.8235
   37MOL   H30615498   4.058   3.171   4.981 -1.3017  0.2185  1.4523
   37MOL   H30715499   3.790   3.225   4.830  2.0083 -2.5040 -2.6467
   37MOL   H30815500   3.826   2.840   4.717  0.6807  1.6858 -1.0816
   37MOL   H30915501   3.670   2.888   4.637 -0.7770 -1.9758  0.1149
   37MOL   H31015502   3.703   2.762   4.908 -1.1582 -3.6826  0.7832
   37MOL   H31115503   3.547   2.825   4.857 -0.0281  0.9447 -2.0250
   37MOL   H31215504   3.704   2.620   4.703 -0.6344  2.0803 -1.9454
   37MOL   H31315505   3.536   2.670   4.674 -0.4583 -2.0577  0.8609
   37MOL   H31415506   3.530   2.444   4.800  1.1966 -0.5650  0.6603
   37MOL   H31515507   3.472   2.563   4.899  0.6223 -1.6141  0.2661
   37MOL   H31615508   3.633   2.530   4.927 -1.0501  1.1382  1.5091
   37MOL   C31715509   3.763   3.197   5.047  0.0455  0.1381  0.2488
   37MOL   C31815510   3.617   3.166   5.064 -0.7055  0.1533  0.5638
   37MOL   C31915511   3.590   3.152   5.211 -0.2639  0.2230 -0.4213
   37MOL   O32015512   3.508   3.068   5.246 -0.0795  0.0219 -0.4462
   37MOL   O32115513   3.667   3.231   5.294  0.2719 -0.3895 -0.2271
   37MOL   C32215514   3.632   3.254   5.425  0.6803 -0.3718 -0.4599
   37MOL   C32315515   3.697   3.172   5.532 -0.3919  0.1156 -0.5484
   37MOL   C32415516   3.838   3.227   5.576  0.3617 -0.0632  0.2141
   37MOL   C32515517   3.886   3.178   5.719  0.4863 -0.2619  0.1212
   37MOL   H32615518   3.776   3.302   5.076  1.8519  0.0698 -0.2566
   37MOL   H32715519   3.819   3.141   5.121  0.2025  0.4689  0.3831
   37MOL   H32815520   3.595   3.066   5.027  1.4870  0.1916 -0.9648
   37MOL   H32915521   3.525   3.269   5.441  0.4786  1.1925 -3.1136
   37MOL   H33015522   3.663   3.356   5.443  1.1248 -0.6918  0.6231
   37MOL   H33115523   3.624   3.162   5.613  2.1809  0.1121  1.8749
   37MOL   H33215524   3.709   3.070   5.495 -0.3629  0.1576 -0.6533
   37MOL   H33315525   3.820   3.335   5.574 -1.4198 -0.3428 -0.3443
   37MOL   H33415526   3.908   3.183   5.505 -3.0002 -1.9670 -2.1123
   37MOL   H33515527   3.902   3.071   5.730 -1.2567 -0.4370  1.1753
   37MOL   H33615528   3.812   3.188   5.799  0.9018  0.1476  0.4585
   37MOL   H33715529   3.987   3.214   5.734  0.7740 -1.0099 -0.0015
   37MOL   C33815530   3.523   3.282   5.002 -0.1534  0.2690 -0.4518
   37MOL   C33915531   3.450   3.244   4.876 -0.0743  0.2820 -0.0576
   37MOL   C34015532   3.364   3.122   4.895 -0.4428 -1.0131 -0.6449
   37MOL   O34115533   3.377   3.026   4.821 -0.4087 -0.1288 -0.1379
   37MOL   O34215534   3.282   3.128   4.995  0.0674 -0.3025  0.0192
   37MOL   C34315535   3.184   3.030   5.029  0.0648  0.2563  0.1920
   37MOL   C34415536   3.237   2.936   5.137  0.0809 -0.0316 -1.0465
   37MOL   C34515537   3.349   2.843   5.093 -0.1930 -0.2118 -0.1625
   37MOL   C34615538   3.382   2.736   5.201  0.0116  0.6065  0.3327
   37MOL   H34715539   3.592   3.365   4.986  0.2812  0.7318  3.3587
   37MOL   H34815540   3.461   3.323   5.081  2.0982  1.8916  0.4972
   37MOL   H34915541   3.518   3.207   4.799 -1.3156 -2.0159 -0.0810
   37MOL   H35015542   3.130   2.986   4.946  0.6404  0.1866 -0.1485
   37MOL   H35115543   3.104   3.081   5.083 -1.1925  0.1273 -1.5137
   37MOL   H35215544   3.265   2.989   5.228  1.3045 -3.2261  0.5181
   37MOL   H35315545   3.155   2.871   5.167  1.9570 -1.6445  0.7448
   37MOL   H35415546   3.435   2.906   5.069 -0.3802  0.2946  0.4503
   37MOL   H35515547   3.317   2.793   5.002 -1.7483  0.3055  0.0906
   37MOL   H35615548   3.296   2.671   5.215  0.9773 -0.7729 -0.0733
   37MOL   H35715549   3.402   2.793   5.292 -1.3747  1.7644 -0.0659
   37MOL   H35815550   3.463   2.672   5.168  0.6426  0.6497  1.7658
   37MOL   C35915551   3.362   3.359   4.812 -0.5432  0.4444  0.4468
   37MOL   C36015552   3.437   3.483   4.751  0.8960 -0.1583  0.5374
   37MOL   C36115553   3.454   3.591   4.861 -0.3145  0.3906  0.3787
   37MOL   O36215554   3.567   3.609   4.917  0.1122 -0.2547 -0.4470
   37MOL   O36315555   3.344   3.649   4.888  0.0235 -0.4493 -0.1393
   37MOL   C36415556   3.366   3.769   4.960 -0.3077  0.3066  0.0243
   37MOL   C36515557   3.352   3.747   5.112  0.3176  0.1631 -0.3563
   37MOL   C36615558   3.315   3.875   5.191  0.1882  0.5339 -0.2624
   37MOL   C36715559   3.171   3.925   5.187  0.5036 -0.5175  0.3627
   37MOL   H36815560   3.297   3.389   4.894  0.5229  1.5304  0.9172
   37MOL   H36915561   3.293   3.322   4.736 -1.6650 -0.6291  1.9617
   37MOL   H37015562   3.375   3.533   4.675  0.1438  1.1930  1.9987
   37MOL   H37115563   3.279   3.827   4.929 -0.6873  0.4024  1.2342
   37MOL   H37215564   3.444   3.840   4.932 -1.2811  0.9999 -0.9604
   37MOL   H37315565   3.283   3.664   5.126  0.4152  0.0872 -0.3208
   37MOL   H37415566   3.447   3.708   5.149  0.7170  1.6032  0.1523
   37MOL   H37515567   3.386   3.949   5.153  3.1072 -1.0632  1.8406
   37MOL   H37615568   3.348   3.860   5.294  3.2870  2.2334 -0.9155
   37MOL   H37715569   3.157   3.997   5.267 -0.1297 -0.7200  0.4442
   37MOL   H37815570   3.098   3.847   5.212 -0.4307  1.3126  3.5717
   37MOL   H37915571   3.143   3.955   5.086 -0.2581 -0.1505  0.6760
   37MOL   C38015572   3.571   3.447   4.663 -0.0721  0.3734 -0.4013
   37MOL   C38115573   3.548   3.337   4.560 -0.2999 -0.5984  0.1359
   37MOL   C38215574   3.465   3.381   4.439 -0.8076 -0.1024 -0.2098
   37MOL   O38315575   3.478   3.494   4.397  0.3182  0.0691  0.0031
   37MOL   O38415576   3.372   3.295   4.395 -0.1836  0.5511  0.0375
   37MOL   C38515577   3.288   3.332   4.281 -0.7775  0.3269  0.3906
   37MOL   C38615578   3.297   3.223   4.180 -0.0685  0.1412  0.5684
   37MOL   C38715579   3.229   3.260   4.053 -0.1579  0.0045  0.2829
   37MOL   C38815580   3.211   3.129   3.965 -0.7562 -0.1725 -0.0352
   37MOL   H38915581   3.635   3.412   4.744 -0.8670  1.5610  0.7653
   37MOL   H39015582   3.610   3.541   4.625  0.4295  0.1053 -0.5546
   37MOL   H39115583   3.486   3.259   4.604 -1.9059  0.3666 -0.3976
   37MOL   H39215584   3.308   3.429   4.236 -0.4498  0.4924  0.8852
   37MOL   H39315585   3.182   3.334   4.307 -0.7716 -0.8512  0.5383
   37MOL   H39415586   3.399   3.192   4.155 -0.0350  0.4842  0.2685
   37MOL   H39515587   3.247   3.145   4.238 -1.3753  1.3330  1.0731
   37MOL   H39615588   3.297   3.332   4.008  2.1257 -1.3001  1.5697
   37MOL   H39715589   3.132   3.308   4.067 -0.2257  0.8246 -2.7332
   37MOL   H39815590   3.173   3.042   4.019 -0.9491  0.4977  0.9389
   37MOL   H39915591   3.300   3.082   3.923 -0.9883 -0.7121  0.0687
   37MOL   H40015592   3.143   3.144   3.882 -1.0127 -1.0848  0.0057
   37MOL   C40115593   3.681   3.288   4.505 -0.1752 -0.7523 -0.3581
   37MOL   C40215594   3.676   3.172   4.413 -0.3441 -0.1392 -0.0905
   37MOL   C40315595   3.809   3.104   4.382  0.2489 -0.6919 -0.9908
   37MOL   O40415596   3.915   3.167   4.361  0.5258  0.1065  0.4113
   37MOL   O40515597   3.796   2.978   4.365  0.3121  0.4159 -0.6758
   37MOL   C40615598   3.896   2.898   4.313 -0.0371 -0.6807  0.2167
   37MOL   C40715599   3.888   2.754   4.366  0.6307 -0.0489  0.2248
   37MOL   C40815600   4.015   2.669   4.340  0.7579 -0.0782 -0.1627
   37MOL   C40915601   3.999   2.522   4.393 -0.1487  0.4708  0.4278
   37MOL   H41015602   3.751   3.273   4.587 -3.1650  2.3955  2.9202
   37MOL   H41115603   3.720   3.378   4.457  1.7442 -1.0072  0.6706
   37MOL   H41215604   3.621   3.201   4.324  1.5663 -2.7161 -2.1911
   37MOL   H41315605   3.991   2.945   4.339 -0.5452  1.3476 -1.4831
   37MOL   H41415606   3.896   2.912   4.205  1.6531  2.3175  0.5383
   37MOL   H41515607   3.878   2.755   4.475  2.8469 -0.2373  0.4644
   37MOL   H41615608   3.797   2.709   4.327  2.2029  0.2675 -4.1184
   37MOL   H41715609   4.098   2.711   4.397  0.2576  1.3325 -0.4425
   37MOL   H41815610   4.034   2.675   4.233 -0.6988  2.0434 -0.3429
   37MOL   H41915611   3.964   2.513   4.496 -0.9228 -1.3642  0.0130
   37MOL   H42015612   4.092   2.465   4.388 -1.1046 -1.0664  0.0559
   37MOL   H42115613   3.926   2.463   4.338  0.2319 -1.3294  1.8131
   37MOL   H42215614   3.617   3.098   4.469  0.7037 -0.0931  1.0823
   38MOL     C115615   1.015   6.332   1.978 -0.0992 -0.2924  0.0660
   38MOL     C215616   1.009   6.462   1.895 -0.1041 -0.2050 -0.8415
   38MOL     C315617   0.866   6.490   1.857 -0.2090 -0.3764 -0.3180
   38MOL     O415618   0.782   6.498   1.950 -0.0704 -0.4153 -0.6004
   38MOL     O515619   0.843   6.493   1.727 -0.4230  0.2939 -0.1656
   38MOL     C615620   0.717   6.469   1.670  0.3127 -0.0087 -1.5427
   38MOL     C715621   0.703   6.326   1.611 -0.3885  0.4446 -0.0549
   38MOL     C815622   0.681   6.210   1.706  0.1380  0.0234  0.1993
   38MOL     C915623   0.672   6.071   1.627  0.0592  0.4011  0.4274
   38MOL    H1015624   1.101   6.274   1.947 -1.5406 -2.1241 -0.6224
   38MOL    H1115625   1.023   6.347   2.086  0.1337  0.2565 -0.0258
   38MOL    H1215626   1.067   6.445   1.804 -0.3535  0.2452 -1.0819
   38MOL    H1315627   0.695   6.545   1.595  0.9643  1.2527 -0.4848
   38MOL    H1415628   0.645   6.481   1.751  2.3536 -0.7700  0.4442
   38MOL    H1515629   0.609   6.325   1.557 -2.0736  0.9944  2.7460
   38MOL    H1615630   0.788   6.319   1.543 -2.6292 -3.5551 -2.6117
   38MOL    H1715631   0.594   6.230   1.768 -0.0914 -0.1885 -0.0498
   38MOL    H1815632   0.761   6.190   1.777  1.5119 -3.0229 -2.0244
   38MOL    H1915633   0.586   6.071   1.560  0.4014  0.0718 -0.0141
   38MOL    H2015634   0.661   5.992   1.702 -1.0070 -1.4288 -1.5984
   38MOL    H2115635   0.770   6.046   1.588  0.6034  1.0030  1.3806
   38MOL    H2215636   0.944   6.253   1.953  0.1772 -1.1115  1.8022
   38MOL    C2315637   1.069   6.568   1.981 -0.2707 -0.2955  0.9867
   38MOL    C2415638   1.102   6.698   1.898 -0.3802 -0.2130 -0.0202
   38MOL    C2515639   0.970   6.784   1.880  0.9259 -0.2785 -0.2746
   38MOL    O2615640   0.952   6.847   1.774 -0.2960 -0.1147 -0.2815
   38MOL    O2715641   0.885   6.778   1.988 -0.0055 -0.2386  0.3296
   38MOL    C2815642   0.779   6.864   2.003 -0.1380 -0.3855  0.0452
   38MOL    C2915643   0.814   6.957   2.116  0.4560 -0.7746 -0.1044
   38MOL    C3015644   0.912   7.066   2.071 -0.4863 -0.6038  0.2647
   38MOL    C3115645   0.924   7.190   2.161  0.0121 -0.2778 -0.0146
   38MOL    H3215646   1.161   6.522   2.016  0.3588 -1.8521 -2.6052
   38MOL    H3315647   1.009   6.584   2.071  0.2618 -2.3559  1.7204
   38MOL    H3415648   1.130   6.691   1.793 -0.6825  0.5825 -0.1548
   38MOL    H3515649   0.687   6.813   2.033  0.4300 -0.0042  2.5374
   38MOL    H3615650   0.762   6.928   1.917  0.8909  1.4664  1.2018
   38MOL    H3715651   0.723   7.013   2.137  0.0748 -2.6637  3.6754
   38MOL    H3815652   0.835   6.906   2.210  2.4379  2.3162  1.2200
   38MOL    H3915653   0.877   7.093   1.972 -0.7301  0.1218  0.5414
   38MOL    H4015654   1.010   7.021   2.057  0.1606  0.5605  0.9383
   38MOL    H4115655   1.017   7.241   2.137 -0.5769  1.3294  1.0795
   38MOL    H4215656   0.931   7.155   2.264  0.4676  1.1158  0.4317
   38MOL    H4315657   0.838   7.256   2.176 -0.2799 -0.8678  0.9963
   38MOL    C4415658   1.209   6.784   1.971 -0.3717 -0.0012  0.5554
   38MOL    C4515659   1.347   6.721   2.002 -0.0268 -0.3921  0.2640
   38MOL    C4615660   1.421   6.671   1.882 -0.7173 -0.2924 -0.5267
   38MOL    O4715661   1.467   6.750   1.802 -0.1850 -0.0624  0.1732
   38MOL    O4815662   1.448   6.544   1.879 -0.5690 -0.2594 -0.1259
   38MOL    C4915663   1.514   6.481   1.777 -0.0970  0.3683 -0.3646
   38MOL    C5015664   1.468   6.339   1.804  0.3826 -0.8984 -0.3268
   38MOL    C5115665   1.533   6.246   1.706  0.6368 -0.1906 -0.1085
   38MOL    C5215666   1.498   6.096   1.713 -0.0284  0.3132 -0.5508
   38MOL    H5315667   1.175   6.807   2.072  0.8634 -1.2114  1.2560
   38MOL    H5415668   1.213   6.885   1.930 -0.6546 -0.6141 -1.0501
   38MOL    H5515669   1.328   6.636   2.068  1.2964 -2.5260 -2.0371
   38MOL    H5615670   1.622   6.498   1.780  0.1283 -1.2094  3.1204
   38MOL    H5715671   1.479   6.515   1.680 -0.3855  0.5386 -0.2025
   38MOL    H5815672   1.510   6.298   1.896  1.2026 -0.5342 -0.5362
   38MOL    H5915673   1.361   6.319   1.807  0.6138 -2.0391  0.2435
   38MOL    H6015674   1.640   6.262   1.723  0.3855  1.9853 -0.4303
   38MOL    H6115675   1.513   6.288   1.607 -1.1631 -1.1005 -0.1522
   38MOL    H6215676   1.519   6.060   1.814  2.6779 -0.9374 -1.5052
   38MOL    H6315677   1.570   6.050   1.645 -1.1318 -0.6697 -1.0801
   38MOL    H6415678   1.397   6.076   1.676 -1.4565  2.9219  1.7084
   38MOL    C6515679   1.426   6.830   2.087  0.1040 -0.2791 -0.1991
   38MOL    C6615680   1.557   6.791   2.167 -0.4258 -0.6687 -0.7799
   38MOL    C6715681   1.532   6.675   2.271 -0.1216  1.1310  0.1251
   38MOL    O6815682   1.577   6.565   2.244  0.2833 -0.4192  0.0660
   38MOL    O6915683   1.488   6.717   2.392 -0.3326 -0.6258  0.2627
   38MOL    C7015684   1.486   6.639   2.507 -0.6013 -0.1109 -0.0152
   38MOL    C7115685   1.411   6.710   2.629 -0.0276 -0.0499  0.2767
   38MOL    C7215686   1.459   6.847   2.659 -0.2832 -0.2269  0.2174
   38MOL    C7315687   1.596   6.848   2.729 -0.6432  0.9846 -0.1337
   38MOL    H7415688   1.352   6.859   2.161  2.1397 -0.9001  2.1166
   38MOL    H7515689   1.446   6.920   2.028  0.8372  0.6900  1.5034
   38MOL    H7615690   1.570   6.874   2.237 -0.2447 -1.8925  0.6679
   38MOL    H7715691   1.589   6.619   2.536 -0.6460 -0.3862 -0.0527
   38MOL    H7815692   1.438   6.545   2.481  0.7372 -0.6497 -0.5858
   38MOL    H7915693   1.310   6.705   2.589 -0.1720  1.5494  0.3896
   38MOL    H8015694   1.420   6.641   2.713  2.8736 -1.8474 -1.4226
   38MOL    H8115695   1.381   6.898   2.715 -3.3943 -2.6841 -1.6814
   38MOL    H8215696   1.477   6.897   2.564  3.2861 -2.2214 -0.2774
   38MOL    H8315697   1.675   6.848   2.655 -0.7029 -2.2042 -0.2941
   38MOL    H8415698   1.615   6.764   2.796  1.0124  1.0431 -0.5155
   38MOL    H8515699   1.608   6.939   2.787 -0.6597 -0.0398  1.5258
   38MOL    C8615700   1.687   6.767   2.077 -0.2432  0.2640  0.0885
   38MOL    C8715701   1.825   6.776   2.152 -0.2324  0.7943  0.2721
   38MOL    C8815702   1.939   6.735   2.056 -0.6298  0.3168 -0.8033
   38MOL    O8915703   1.936   6.755   1.938 -0.6555 -0.2261 -0.1891
   38MOL    O9015704   2.028   6.660   2.125 -0.2163  0.3420 -0.0906
   38MOL    C9115705   2.151   6.628   2.065 -0.2133 -0.4557 -0.1282
   38MOL    C9215706   2.274   6.613   2.161  0.5368 -0.0725 -0.1398
   38MOL    C9315707   2.235   6.503   2.267 -0.6693  0.3859 -0.5417
   38MOL    C9415708   2.339   6.490   2.382 -0.6593  0.5292  0.6623
   38MOL    H9515709   1.695   6.838   1.995 -1.1471  2.6438  1.9842
   38MOL    H9615710   1.677   6.669   2.032  1.0986  0.0756  0.1789
   38MOL    H9715711   1.819   6.696   2.226  1.7938 -0.1416 -0.5237
   38MOL    H9815712   2.183   6.706   1.996 -0.5139 -0.4398 -0.2478
   38MOL    H9915713   2.141   6.538   2.005  1.0170  0.0267 -1.0879
   38MOL   H10015714   2.368   6.596   2.109 -0.1519 -1.3991 -0.9779
   38MOL   H10115715   2.292   6.700   2.225  0.4256 -0.3994  0.3352
   38MOL   H10215716   2.211   6.409   2.217  1.7042 -1.2632  1.2590
   38MOL   H10315717   2.142   6.536   2.314 -0.6621 -0.0734 -0.1971
   38MOL   H10415718   2.369   6.592   2.406 -1.1463  0.8761 -0.1735
   38MOL   H10515719   2.427   6.429   2.359  1.1565  2.9565  1.0424
   38MOL   H10615720   2.293   6.436   2.465 -0.1617  0.3330  0.8101
   38MOL   C10715721   1.854   6.915   2.205 -0.0240 -0.3672 -0.2673
   38MOL   C10815722   1.838   6.936   2.360 -0.0876 -0.6705 -0.7593
   38MOL   C10915723   1.920   6.835   2.447 -0.0553 -0.5463  0.4660
   38MOL   O11015724   1.865   6.755   2.525 -0.0173  0.8692 -0.1996
   38MOL   O11115725   2.060   6.847   2.423 -0.5083  0.3251  0.3760
   38MOL   C11215726   2.155   6.780   2.503  0.1094  0.4684  0.1588
   38MOL   C11315727   2.230   6.873   2.605  0.0603 -0.0685  0.2332
   38MOL   C11415728   2.377   6.839   2.634 -0.4680 -0.1055 -0.6407
   38MOL   C11515729   2.483   6.839   2.536  0.5600 -0.2276  0.2882
   38MOL   H11615730   1.795   6.989   2.151  0.8355  1.2392  0.9403
   38MOL   H11715731   1.957   6.944   2.183  0.1020 -1.0821 -0.6237
   38MOL   H11815732   1.738   6.928   2.401  0.6488  3.1103  2.0863
   38MOL   H11915733   2.224   6.742   2.428  1.0685 -0.3780  1.4478
   38MOL   H12015734   2.104   6.701   2.557  1.4565 -0.3100  0.3174
   38MOL   H12115735   2.222   6.976   2.570 -2.2877 -0.1716  0.4111
   38MOL   H12215736   2.168   6.869   2.695 -0.3335 -0.4662 -0.0547
   38MOL   H12315737   2.376   6.739   2.676  0.7049  1.4100  3.1705
   38MOL   H12415738   2.415   6.903   2.714  2.7266 -1.3117 -1.1025
   38MOL   H12515739   2.522   6.940   2.525 -0.5634  0.1619 -0.1104
   38MOL   H12615740   2.436   6.795   2.449 -3.6677  0.0588  2.3190
   38MOL   H12715741   2.582   6.802   2.563  0.6624 -0.9049 -0.9890
   38MOL   C12815742   1.863   7.082   2.409  0.8803  0.1355  0.7043
   38MOL   C12915743   1.762   7.192   2.364  0.3275 -0.6565  0.1065
   38MOL   C13015744   1.612   7.171   2.387 -0.9095  0.4832 -0.0440
   38MOL   O13115745   1.563   7.067   2.429  0.2540  0.0930  0.0179
   38MOL   O13215746   1.545   7.283   2.367  0.2935  0.5090 -0.0064
   38MOL   C13315747   1.401   7.279   2.379 -0.5385 -0.3535  0.2510
   38MOL   C13415748   1.329   7.233   2.251 -0.1902 -0.3499 -0.2249
   38MOL   C13515749   1.364   7.313   2.127 -0.4252 -0.1965  0.4461
   38MOL   C13615750   1.266   7.274   2.011 -0.3387 -0.4709 -0.2326
   38MOL   H13715751   1.958   7.107   2.361  0.6901 -0.0769  0.2060
   38MOL   H13815752   1.868   7.091   2.517 -0.3545 -0.7135  0.8445
   38MOL   H13915753   1.778   7.204   2.257  1.8088  1.6397  0.5609
   38MOL   H14015754   1.371   7.379   2.410 -0.0592 -0.0231 -0.3184
   38MOL   H14115755   1.382   7.216   2.466 -0.7106  0.4882  0.8239
   38MOL   H14215756   1.354   7.129   2.234  0.5071 -0.2837  0.3599
   38MOL   H14315757   1.223   7.246   2.273 -0.0236  0.1400  0.3156
   38MOL   H14415758   1.461   7.296   2.082  0.2225 -0.7245  2.0134
   38MOL   H14515759   1.359   7.422   2.132 -0.8888 -0.0074 -2.8994
   38MOL   H14615760   1.263   7.165   2.008  0.5216 -0.5272  0.3905
   38MOL   H14715761   1.313   7.310   1.919  3.0296 -0.5578  1.3497
   38MOL   H14815762   1.173   7.328   2.023  0.1812  0.0511  1.6571
   38MOL   C14915763   1.811   7.337   2.411 -0.5247 -0.2285 -0.0294
   38MOL   C15015764   1.794   7.362   2.571 -0.3198  0.5272  0.2919
   38MOL   C15115765   1.935   7.362   2.641  0.3483 -0.3443  0.2576
   38MOL   O15215766   1.961   7.277   2.734  0.3960  0.2964 -0.0338
   38MOL   O15315767   2.009   7.478   2.618  0.1353 -0.1608 -0.0008
   38MOL   C15415768   2.145   7.479   2.670  0.3658 -0.6557  0.0596
   38MOL   C15515769   2.146   7.547   2.800  0.2934  0.8932 -0.3280
   38MOL   C15615770   2.270   7.552   2.889 -0.8777 -0.0419 -0.9630
   38MOL   C15715771   2.258   7.628   3.025  0.0585  0.1622 -0.5850
   38MOL   H15815772   1.758   7.416   2.358  1.8575  1.6763  0.3614
   38MOL   H15915773   1.915   7.341   2.377 -0.8535  1.3317 -0.8954
   38MOL   H16015774   1.737   7.278   2.611 -1.0188  2.0112  2.5051
   38MOL   H16115775   2.220   7.521   2.603  0.1041 -0.7102 -0.2722
   38MOL   H16215776   2.183   7.378   2.685 -3.1164 -2.2272 -1.1753
   38MOL   H16315777   2.113   7.650   2.789  2.4085  1.4187 -1.9753
   38MOL   H16415778   2.068   7.502   2.862  1.7234 -1.7487 -0.3842
   38MOL   H16515779   2.352   7.603   2.839  1.3373 -0.9997  1.6259
   38MOL   H16615780   2.296   7.448   2.905  0.9804  0.7295  1.3314
   38MOL   H16715781   2.268   7.737   3.023  1.5142  0.0303 -3.0298
   38MOL   H16815782   2.335   7.589   3.091  0.6748 -0.1051 -1.4526
   38MOL   H16915783   2.159   7.613   3.068 -0.0196  1.4426 -0.2800
   38MOL   C17015784   1.709   7.485   2.608  0.0222  0.2165 -0.6287
   38MOL   C17115785   1.630   7.486   2.743 -0.2598  0.5094 -0.8087
   38MOL   C17215786   1.585   7.625   2.774  0.5336 -0.5066  0.3057
   38MOL   O17315787   1.556   7.705   2.685  0.6297 -0.0334 -0.3782
   38MOL   O17415788   1.578   7.646   2.906  0.7729 -0.0938 -0.1816
   38MOL   C17515789   1.548   7.775   2.957  0.1003  0.4821 -0.2588
   38MOL   C17615790   1.419   7.771   3.032 -0.5767  0.1601  0.4236
   38MOL   C17715791   1.359   0.056   3.042  0.6160 -0.4045  0.4414
   38MOL   C17815792   1.229   0.054   3.122 -0.4749 -0.6419  0.3333
   38MOL   H17915793   1.634   7.502   2.531 -0.8573 -0.5723  0.0440
   38MOL   H18015794   1.775   7.572   2.605  0.5833 -0.0410  2.1749
   38MOL   H18115795   1.698   7.459   2.825 -0.3781  0.1872 -0.8134
   38MOL   H18215796   1.532   7.851   2.880 -0.4772  2.6946  1.9808
   38MOL   H18315797   1.632   7.801   3.021  1.1009  3.0651 -2.4984
   38MOL   H18415798   1.350   7.703   2.983  1.0327 -0.7348 -0.6495
   38MOL   H18515799   1.442   7.739   3.134 -0.2572 -0.2457  0.2249
   38MOL   H18615800   1.355   0.113   2.950  3.4701  3.2786  2.4970
   38MOL   H18715801   1.420   0.120   3.104  1.9081 -0.3815 -0.8329
   38MOL   H18815802   1.250   0.023   3.224  0.0290  0.6982  0.6442
   38MOL   H18915803   1.146   0.002   3.074  0.0535 -0.4321 -0.8299
   38MOL   H19015804   1.199   0.158   3.128  1.2392 -0.0429 -0.9219
   38MOL   C19115805   1.518   7.377   2.740 -0.9439  0.5882  0.0556
   38MOL   C19215806   1.413   7.371   2.855 -0.2004 -0.2338  0.2496
   38MOL   C19315807   1.281   7.304   2.807 -0.1484  0.1945 -0.0576
   38MOL   O19415808   1.169   7.354   2.834 -0.6297  0.0117  0.1148
   38MOL   O19515809   1.298   7.189   2.737  0.0522  0.2738 -0.4731
   38MOL   C19615810   1.185   7.106   2.713  0.6502  0.2901  0.0204
   38MOL   C19715811   1.188   7.068   2.565 -0.2348  0.4218  0.2829
   38MOL   C19815812   1.090   6.961   2.519  0.1631  0.0622  0.0453
   38MOL   C19915813   1.107   6.894   2.385  0.5620  0.2435  0.3624
   38MOL   H20015814   1.564   7.279   2.729 -0.1304  1.1365 -1.6334
   38MOL   H20115815   1.464   7.394   2.646 -0.5844  1.1002 -0.0601
   38MOL   H20215816   1.377   7.466   2.894  2.2148  0.3754  1.0361
   38MOL   H20315817   1.090   7.150   2.742  1.0397  0.0583  1.6704
   38MOL   H20415818   1.196   7.020   2.779 -0.0797  0.1125 -0.0812
   38MOL   H20515819   1.177   7.161   2.508  5.4066 -0.0546 -1.8676
   38MOL   H20615820   1.286   7.025   2.544  1.0462  2.1441  2.4173
   38MOL   H20715821   0.987   6.996   2.529  0.6834  1.6395 -0.0332
   38MOL   H20815822   1.091   6.878   2.589 -1.4191 -0.3236 -0.3627
   38MOL   H20915823   1.021   6.829   2.369  1.5806 -0.7359 -1.3285
   38MOL   H21015824   1.196   6.833   2.392 -0.3755 -1.0906  0.8859
   38MOL   H21115825   1.111   6.967   2.304  0.2561 -2.1782 -1.9234
   38MOL   C21215826   1.462   7.315   2.988 -0.1097  0.0149 -0.2986
   38MOL   C21315827   1.445   7.403   3.111  0.1949  0.1509 -0.3700
   38MOL   C21415828   1.297   7.410   3.174  0.2544 -0.1967 -0.8969
   38MOL   O21515829   1.241   7.517   3.199  0.2445 -0.2457  0.1451
   38MOL   O21615830   1.243   7.291   3.197 -0.1633  0.8373  0.0540
   38MOL   C21715831   1.123   7.282   3.277 -0.4081 -0.3170 -0.0068
   38MOL   C21815832   0.994   7.316   3.189  0.0223  0.4763 -0.1029
   38MOL   C21915833   0.930   7.205   3.106  0.2882 -0.0712  0.6359
   38MOL   C22015834   0.803   7.246   3.034  0.0140  0.2519  0.1829
   38MOL   H22115835   1.567   7.285   2.986 -0.0230  0.1627  1.1249
   38MOL   H22215836   1.414   7.220   3.012  0.5556 -0.1877  0.2657
   38MOL   H22315837   1.466   7.506   3.082  1.1631  0.4211  1.2127
   38MOL   H22415838   1.130   7.348   3.363 -0.6913 -0.3891  0.0744
   38MOL   H22515839   1.116   7.184   3.324 -2.5897 -0.1598  0.0590
   38MOL   H22615840   0.916   7.349   3.257 -2.7418 -1.4479 -2.2538
   38MOL   H22715841   1.021   7.392   3.116  1.5849 -0.2828 -0.3281
   38MOL   H22815842   0.915   7.115   3.165 -0.2225 -1.6215 -1.8222
   38MOL   H22915843   1.010   7.168   3.042  0.6693 -1.1394  1.7121
   38MOL   H23015844   0.808   7.345   2.989 -1.1225 -0.5775 -1.8847
   38MOL   H23115845   0.724   7.261   3.108  1.3938  2.2405  1.2904
   38MOL   H23215846   0.771   7.173   2.958  1.4716 -0.1447 -0.0588
   38MOL   C23315847   1.546   7.368   3.227  0.1679 -0.7674  0.0557
   38MOL   C23415848   1.586   7.477   3.331 -0.8758 -0.2134 -0.4231
   38MOL   C23515849   1.614   7.421   3.477 -0.3747 -0.1135 -0.5400
   38MOL   O23615850   1.556   7.464   3.580 -0.2263  0.5707  0.0166
   38MOL   O23715851   1.705   7.319   3.479  0.1369 -0.5743  0.3721
   38MOL   C23815852   1.749   7.267   3.603  0.3841 -0.2226 -0.0015
   38MOL   C23915853   1.659   7.151   3.645  0.0868  0.0616 -0.2349
   38MOL   C24015854   1.752   7.038   3.690  0.5451 -0.2066 -0.5564
   38MOL   C24115855   1.671   6.938   3.759  0.1633  0.2067 -0.0325
   38MOL   H24215856   1.635   7.320   3.186  1.3743  2.2011 -0.9368
   38MOL   H24315857   1.507   7.285   3.287 -0.0514 -0.1220  0.8146
   38MOL   H24415858   1.495   7.535   3.347 -0.4200 -0.2697  2.7642
   38MOL   H24515859   1.743   7.342   3.682 -0.4122 -1.1136  0.7920
   38MOL   H24615860   1.855   7.242   3.605  0.1848 -0.9221  2.9042
   38MOL   H24715861   1.591   7.192   3.720  0.7354  0.0224  0.3741
   38MOL   H24815862   1.594   7.116   3.564 -1.3255  1.4667  0.2505
   38MOL   H24915863   1.822   7.077   3.764  0.9980 -2.0153  0.0059
   38MOL   H25015864   1.808   6.996   3.606 -1.7281 -1.3236 -1.5614
   38MOL   H25115865   1.607   6.985   3.834  1.6059  1.1959  0.6056
   38MOL   H25215866   1.723   6.851   3.800  0.4103  0.1686 -0.4272
   38MOL   H25315867   1.596   6.890   3.696 -0.9522  1.2816  0.4326
   38MOL   C25415868   1.706   7.560   3.283  0.3561 -0.6118 -0.5722
   38MOL   C25515869   1.733   7.699   3.358  0.6222 -0.1576  0.4926
   38MOL   C25615870   1.616   7.797   3.379 -0.6655 -0.0491 -0.0708
   38MOL   O25715871   1.616   0.054   3.317 -0.2061 -0.0864 -0.0472
   38MOL   O25815872   1.531   7.750   3.468  0.8867  0.0843  0.1961
   38MOL   C25915873   1.415   7.819   3.504  0.1297 -0.0436 -0.5908
   38MOL   C26015874   1.297   7.728   3.476  0.2477  0.2263  0.0797
   38MOL   C26115875   1.166   7.796   3.490 -0.3492 -0.1947 -0.2282
   38MOL   C26215876   1.046   7.707   3.444  0.3665  0.6564  0.2412
   38MOL   H26315877   1.683   7.589   3.180 -1.7081 -2.3849 -0.6558
   38MOL   H26415878   1.803   7.511   3.293  0.5459 -0.0333  0.4535
   38MOL   H26515879   1.786   7.756   3.281  0.5924  2.0680  2.0727
   38MOL   H26615880   1.402   0.058   3.446 -2.5452 -1.7415 -2.7863
   38MOL   H26715881   1.423   7.839   3.611  0.3327 -1.2160 -0.3875
   38MOL   H26815882   1.292   7.699   3.371 -1.5659 -3.1236  1.0244
   38MOL   H26915883   1.290   7.642   3.543 -1.4867 -0.2703 -0.7180
   38MOL   H27015884   1.162   0.039   3.438  0.0267 -1.2859 -2.3214
   38MOL   H27115885   1.148   7.831   3.591  2.9604 -0.7239  0.5904
   38MOL   H27215886   1.068   7.666   3.346  0.4319 -0.3311  0.6588
   38MOL   H27315887   0.953   7.756   3.417 -0.4327 -1.0579 -0.2016
   38MOL   H27415888   1.026   7.626   3.514  1.6482  0.1624  0.0586
   38MOL   C27515889   1.821   7.694   3.482  0.2170 -0.3349  0.7506
   38MOL   C27615890   1.873   7.817   3.548  0.0185  0.8267  0.2151
   38MOL   C27715891   1.920   7.784   3.696 -0.3025 -0.2935 -0.0962
   38MOL   O27815892   2.022   7.719   3.710 -0.4807  0.3815  0.7960
   38MOL   O27915893   1.839   7.847   3.787 -0.3553 -0.2773  0.6621
   38MOL   C28015894   1.875   0.012   3.912 -1.2475  0.0936 -0.1098
   38MOL   C28115895   1.763   0.089   3.987  0.1473  0.3462 -0.0077
   38MOL   C28215896   1.633   0.020   4.022 -0.6057  0.0936 -0.5907
   38MOL   C28315897   1.560   0.089   4.133  0.0713 -0.1633  0.3916
   38MOL   H28415898   1.912   7.638   3.461  0.1694 -0.6350  1.3117
   38MOL   H28515899   1.776   7.638   3.565 -0.3554  2.0171  2.0745
   38MOL   H28615900   1.795   0.041   3.548 -0.6051  0.2128 -1.5923
   38MOL   H28715901   1.967   0.071   3.912 -1.4840  0.5190  1.9312
   38MOL   H28815902   1.897   7.770   3.962  2.1085  0.6187 -0.4797
   38MOL   H28915903   1.806   0.116   4.083 -1.9760  1.7831  0.5738
   38MOL   H29015904   1.751   0.188   3.943 -3.7117 -0.3504 -0.7355
   38MOL   H29115905   1.654   7.774   4.062 -1.5895  0.3674  0.6364
   38MOL   H29215906   1.575   7.843   3.935  0.1478 -1.0510 -0.7079
   38MOL   H29315907   1.503   0.177   4.101  0.3457  0.1356  0.7176
   38MOL   H29415908   1.637   0.124   4.202 -1.8157  1.6465  1.6568
   38MOL   H29515909   1.504   0.030   4.206 -0.9376  1.1684  0.7261
   38MOL   C29615910   1.979   0.020   3.455  0.0076 -0.5379 -0.1342
   38MOL   C29715911   2.038   0.156   3.480  0.1415 -0.0539 -0.2902
   38MOL   C29815912   1.931   0.267   3.505 -0.5698  0.0535  0.2468
   38MOL   O29915913   1.880   0.337   3.414 -0.4613  0.1685  0.5253
   38MOL   O30015914   1.893   0.269   3.636 -0.6202 -0.5717 -0.3266
   38MOL   C30115915   1.779   0.355   3.670 -0.9010 -0.1049 -0.0812
   38MOL   C30215916   1.648   0.276   3.655 -0.1197  0.2086 -0.7574
   38MOL   C30315917   1.532   0.357   3.687  0.3196 -0.3088 -0.6722
   38MOL   C30415918   1.403   0.306   3.623 -0.5601  0.7503 -0.0801
   38MOL   H30515919   1.936   0.030   3.355  1.2154  1.9169 -0.4488
   38MOL   H30615920   2.059   7.800   3.443  0.4874 -0.2109  1.0273
   38MOL   H30715921   2.086   0.180   3.385  2.6552  2.0481  1.4610
   38MOL   H30815922   1.798   0.446   3.613  0.7231 -1.0647 -1.1413
   38MOL   H30915923   1.791   0.372   3.777  1.5452  1.9523 -0.6207
   38MOL   H31015924   1.663   0.240   3.553 -1.7998  0.3267 -1.0556
   38MOL   H31115925   1.648   0.190   3.722  1.4061  1.0526  0.3505
   38MOL   H31215926   1.556   0.455   3.646 -0.3869  0.6607  1.2086
   38MOL   H31315927   1.523   0.372   3.794  0.8635  0.6933 -0.7619
   38MOL   H31415928   1.315   0.367   3.644 -2.3579 -1.6637 -0.4740
   38MOL   H31515929   1.364   0.211   3.658  1.0610 -0.3469 -1.1721
   38MOL   H31615930   1.414   0.302   3.514 -3.0838 -2.0876 -0.2755
   38MOL   C31715931   2.163   0.166   3.574 -0.6064 -0.0834  0.0793
   38MOL   C31815932   2.310   0.161   3.518  0.1635  0.0208 -0.2909
   38MOL   C31915933   2.337   0.017   3.473  0.2726  0.3391 -0.4175
   38MOL   O32015934   2.319   7.825   3.360 -0.3936 -0.1421  0.3207
   38MOL   O32115935   2.387   7.798   3.579  0.4481 -0.3550 -0.8772
   38MOL   C32215936   2.436   7.660   3.569  0.7074 -0.3203 -0.5559
   38MOL   C32315937   2.590   7.673   3.563  0.6534  0.3336 -0.7176
   38MOL   C32415938   2.653   7.530   3.528 -0.3469  0.1136  0.1579
   38MOL   C32515939   2.808   7.526   3.497 -0.2746 -0.2633  0.3444
   38MOL   H32615940   2.151   0.104   3.662 -0.6174 -1.0371 -0.5911
   38MOL   H32715941   2.163   0.267   3.617 -1.6273  0.1900 -0.5448
   38MOL   H32815942   2.367   0.175   3.609  0.2336 -1.3972 -0.1050
   38MOL   H32915943   2.385   7.600   3.494 -0.2905 -1.7126  1.2085
   38MOL   H33015944   2.413   7.618   3.667 -1.2583 -4.1815 -2.5683
   38MOL   H33115945   2.631   7.746   3.493  1.3487 -0.2032 -0.8745
   38MOL   H33215946   2.632   7.708   3.657  1.6832 -0.2049 -0.9603
   38MOL   H33315947   2.601   7.482   3.445  1.0186  2.4610 -2.1261
   38MOL   H33415948   2.639   7.466   3.615  0.0961  0.1403  0.2495
   38MOL   H33515949   2.854   7.625   3.492 -1.7174  0.5395  2.5006
   38MOL   H33615950   2.841   7.471   3.409 -0.0437 -0.4285  0.5327
   38MOL   H33715951   2.862   7.483   3.581  0.4944 -1.0235 -0.5200
   38MOL   C33815952   2.345   0.271   3.417 -0.0321 -0.7391  0.2465
   38MOL   C33915953   2.301   0.414   3.453  0.9095  0.3047  0.2200
   38MOL   C34015954   2.352   0.469   3.584 -0.4480 -0.0152  0.2625
   38MOL   O34115955   2.287   0.479   3.686 -0.3721  0.6320  0.3771
   38MOL   O34215956   2.493   0.487   3.588  0.4057  0.5215  0.3968
   38MOL   C34315957   2.560   0.494   3.711  0.3353 -1.1326  0.8174
   38MOL   C34415958   2.588   0.351   3.758  0.0058 -0.4871 -0.3026
   38MOL   C34515959   2.680   0.262   3.669  1.1424  0.1969 -0.0303
   38MOL   C34615960   2.683   0.119   3.720 -0.5292 -0.0886  0.4787
   38MOL   H34715961   2.298   0.231   3.327 -1.0511 -2.4461  1.4940
   38MOL   H34815962   2.449   0.279   3.388 -0.5201  1.0864 -1.0914
   38MOL   H34915963   2.193   0.402   3.465  0.8473 -0.4206 -1.0594
   38MOL   H35015964   2.509   0.565   3.777  0.2709 -1.5460  1.2137
   38MOL   H35115965   2.657   0.536   3.684 -0.1359 -0.8597 -0.4711
   38MOL   H35215966   2.639   0.357   3.853 -1.6832  2.8450  0.4795
   38MOL   H35315967   2.489   0.311   3.779 -1.3277  1.3712 -2.6810
   38MOL   H35415968   2.777   0.310   3.654  1.0791  0.5556  0.7031
   38MOL   H35515969   2.637   0.251   3.569  2.4934 -0.7334 -0.5387
   38MOL   H35615970   2.751   0.053   3.667 -0.7358  0.6667 -0.7579
   38MOL   H35715971   2.586   0.070   3.713 -0.2978 -0.3918 -0.7520
   38MOL   H35815972   2.706   0.125   3.826  2.7290 -0.6653 -0.1526
   38MOL   C35915973   2.319   0.515   3.343  0.1327  0.4514  0.2930
   38MOL   C36015974   2.237   0.647   3.351 -0.0459  0.2960 -0.1911
   38MOL   C36115975   2.300   0.761   3.273  0.1571 -0.8153  0.7557
   38MOL   O36215976   2.329   0.749   3.157 -0.8574 -0.2225  0.9489
   38MOL   O36315977   2.305   0.878   3.341 -0.1928  0.2731 -0.1011
   38MOL   C36415978   2.378   0.985   3.293  0.1939 -0.1477  0.6297
   38MOL   C36515979   2.449   1.056   3.405 -0.2317  0.1941  0.2286
   38MOL   C36615980   2.529   1.172   3.348 -0.8282  0.5166 -0.0156
   38MOL   C36715981   2.613   1.237   3.452  0.9096 -0.2821  0.1073
   38MOL   H36815982   2.291   0.477   3.245  0.5097  0.1137  0.3128
   38MOL   H36915983   2.422   0.550   3.332 -0.0221  1.2093  1.1669
   38MOL   H37015984   2.220   0.676   3.455 -0.2854  0.2421 -0.2145
   38MOL   H37115985   2.312   1.051   3.237 -1.0682 -0.7200  1.4285
   38MOL   H37215986   2.450   0.945   3.221 -1.3698  1.3008 -1.7977
   38MOL   H37315987   2.383   1.087   3.486 -0.2589  0.7899 -0.0270
   38MOL   H37415988   2.518   0.985   3.453 -0.8512 -0.5233  0.0723
   38MOL   H37515989   2.460   1.253   3.326 -1.2811 -0.1205 -0.9566
   38MOL   H37615990   2.589   1.143   3.261 -0.5903 -0.1940  0.3884
   38MOL   H37715991   2.667   1.325   3.418  1.5612 -1.5517 -2.3100
   38MOL   H37815992   2.683   1.164   3.492  0.3467  0.8045  3.2348
   38MOL   H37915993   2.549   1.265   3.536 -1.7837  1.4172 -2.3686
   38MOL   C38015994   2.101   0.606   3.304  0.1900 -0.0075 -0.3611
   38MOL   C38115995   1.994   0.720   3.338  0.3675 -0.8711  0.2254
   38MOL   C38215996   1.918   0.761   3.210  0.2422  0.1319  0.0046
   38MOL   O38315997   1.921   0.879   3.170 -0.1652  0.3509  0.5814
   38MOL   O38415998   1.839   0.663   3.163  0.3120 -0.5890 -0.6313
   38MOL   C38515999   1.755   0.692   3.051 -0.1051 -0.7897  0.4969
   38MOL   C38616000   1.710   0.552   3.017 -0.0690  0.4689  0.6598
   38MOL   C38716001   1.636   0.482   3.127  0.0865 -0.1603 -0.0578
   38MOL   C38816002   1.562   0.358   3.081  0.0687 -0.0659  0.4709
   38MOL   H38916003   2.060   0.520   3.359  1.9843  1.6492  3.7690
   38MOL   H39016004   2.103   0.580   3.198  1.7859  1.5703 -0.7218
   38MOL   H39116005   2.044   0.814   3.360  0.1144 -0.6126 -0.2924
   38MOL   H39216006   1.826   0.730   2.977 -1.7516 -0.0949 -0.7618
   38MOL   H39316007   1.677   0.766   3.065 -0.4078 -0.8154 -0.9974
   38MOL   H39416008   1.649   0.553   2.926 -0.0088  0.6878  0.6219
   38MOL   H39516009   1.797   0.492   2.991  0.5941  2.1651 -1.1757
   38MOL   H39616010   1.574   0.552   3.182  1.7278  1.4164 -0.1423
   38MOL   H39716011   1.706   0.459   3.208 -3.6920  1.6671  3.8986
   38MOL   H39816012   1.491   0.393   3.006 -0.0119  1.9148  1.4564
   38MOL   H39916013   1.517   0.305   3.166 -0.4485 -2.1896 -1.0674
   38MOL   H40016014   1.629   0.280   3.046 -1.6707 -1.1264 -0.6012
   38MOL   C40116015   1.892   0.692   3.454  0.7498  0.5919 -0.5724
   38MOL   C40216016   1.800   0.811   3.496 -0.6060  0.8179  0.5392
   38MOL   C40316017   1.870   0.919   3.569 -0.4275  0.0314 -0.2518
   38MOL   O40416018   1.873   1.033   3.526 -0.0191 -0.0948 -0.0389
   38MOL   O40516019   1.903   0.884   3.693 -0.1513  0.2131  0.6919
   38MOL   C40616020   1.988   0.966   3.774  0.1635  0.6053  0.3877
   38MOL   C40716021   2.129   0.947   3.720 -0.6683  0.3779 -0.1272
   38MOL   C40816022   2.187   0.813   3.753 -0.7355  0.0460  0.7023
   38MOL   C40916023   2.337   0.811   3.727 -0.8156 -0.4357 -0.8195
   38MOL   H41016024   1.951   0.656   3.538  0.6934 -0.0296 -0.7962
   38MOL   H41116025   1.828   0.610   3.423  0.5547  1.1114 -1.5786
   38MOL   H41216026   1.741   0.757   3.570  1.3940 -2.1276  0.0766
   38MOL   H41316027   1.994   0.936   3.878  1.2392  1.3130  0.5345
   38MOL   H41416028   1.966   1.072   3.767  1.7275  0.9574  0.7732
   38MOL   H41516029   2.151   0.977   3.617  1.8939 -1.3272 -0.1336
   38MOL   H41616030   2.196   1.012   3.778 -1.4035  0.5653  0.5244
   38MOL   H41716031   2.135   0.738   3.693 -1.3345  0.5556  0.5787
   38MOL   H41816032   2.163   0.794   3.858  1.2072  0.6370  1.2695
   38MOL   H41916033   2.347   0.838   3.622  1.9495 -1.6816 -0.9155
   38MOL   H42016034   2.385   0.714   3.739 -2.0050 -1.0105 -0.6450
   38MOL   H42116035   2.392   0.897   3.767  0.4523 -1.3284 -0.6253
   38MOL   H42216036   1.739   0.845   3.412 -0.6422 -0.3808  0.0697
   39MOL     C116037   2.466   6.301   3.048 -0.0039 -0.2852 -0.4238
   39MOL     C216038   2.586   6.252   3.126  0.0416 -0.0232 -0.1058
   39MOL     C316039   2.550   6.208   3.269  0.0887  0.1822 -0.1254
   39MOL     O416040   2.458   6.132   3.290  0.7447  1.0218 -0.0835
   39MOL     O516041   2.625   6.268   3.360  0.3520  0.5149  0.0983
   39MOL     C616042   2.614   6.215   3.493  0.3690 -0.0868 -0.4227
   39MOL     C716043   2.705   6.282   3.592 -0.5984  0.0694  0.1066
   39MOL     C816044   2.697   6.239   3.732 -0.3024 -0.4431 -0.0289
   39MOL     C916045   2.594   6.318   3.813 -0.6391  0.2894  0.4388
   39MOL    H1016046   2.495   6.338   2.950 -0.1441  0.0571 -0.3339
   39MOL    H1116047   2.388   6.228   3.024 -0.7646  0.6371 -0.8115
   39MOL    H1216048   2.656   6.336   3.119  0.2356 -0.3116 -1.8504
   39MOL    H1316049   2.644   6.110   3.494  1.7840  0.3014 -0.5398
   39MOL    H1416050   2.509   6.227   3.520 -0.0865 -2.0750 -1.2284
   39MOL    H1516051   2.808   6.262   3.563 -0.0915  2.7328 -0.0962
   39MOL    H1616052   2.691   6.390   3.578  0.7228  0.2976  0.3741
   39MOL    H1716053   2.794   6.241   3.783 -1.1904  0.5725  1.6545
   39MOL    H1816054   2.665   6.135   3.730 -1.4386 -0.1035  0.2212
   39MOL    H1916055   2.571   6.269   3.907  0.3790 -0.2112  0.4398
   39MOL    H2016056   2.495   6.332   3.771 -0.9714  1.3236  1.5448
   39MOL    H2116057   2.624   6.421   3.836  0.3213 -0.3094  1.9741
   39MOL    H2216058   2.414   6.381   3.100  0.0895  0.0446 -0.8408
   39MOL    C2316059   2.655   6.136   3.051 -0.2838  0.2080 -0.5504
   39MOL    C2416060   2.811   6.139   3.035  0.3467 -0.0064 -1.1265
   39MOL    C2516061   2.849   6.234   2.915 -0.3088  0.2161  0.2221
   39MOL    O2616062   2.915   6.195   2.817 -0.3223  0.3725  0.1269
   39MOL    O2716063   2.817   6.356   2.933 -0.1672  0.3292  0.5854
   39MOL    C2816064   2.803   6.448   2.824  0.3848  0.1754 -0.2756
   39MOL    C2916065   2.751   6.580   2.876  0.0238 -0.1635 -0.0973
   39MOL    C3016066   2.704   6.686   2.777  0.1929 -0.0434 -0.0720
   39MOL    C3116067   2.698   6.822   2.850 -0.1447 -0.6375  0.3257
   39MOL    H3216068   2.610   6.117   2.953 -0.9990 -0.0663 -0.1695
   39MOL    H3316069   2.640   6.039   3.098 -1.5429  0.6536 -0.0100
   39MOL    H3416070   2.852   6.046   2.996  2.1162  0.4268 -0.3251
   39MOL    H3516071   2.727   6.401   2.762  1.3087 -0.5839 -0.8508
   39MOL    H3616072   2.892   6.441   2.761 -1.0638 -1.5057 -2.2220
   39MOL    H3716073   2.676   6.562   2.953  2.7059 -0.6949  2.5171
   39MOL    H3816074   2.836   6.622   2.930 -0.1726 -1.7127  1.4679
   39MOL    H3916075   2.605   6.663   2.738 -0.7215 -0.2925  2.3068
   39MOL    H4016076   2.772   6.676   2.692 -1.6132 -1.3686 -1.3940
   39MOL    H4116077   2.636   6.814   2.939 -1.5482  0.5885 -0.5158
   39MOL    H4216078   2.658   6.898   2.782  1.0766 -1.8287 -1.8000
   39MOL    H4316079   2.801   6.853   2.867 -0.9064  0.8698  2.4282
   39MOL    C4416080   2.902   6.180   3.158  0.3126  0.1105  0.0519
   39MOL    C4516081   3.051   6.156   3.123 -0.6288  0.3288  0.4367
   39MOL    C4616082   3.138   6.275   3.173 -0.4019  0.2740 -0.6378
   39MOL    O4716083   3.187   6.278   3.285  0.0842  0.6150 -0.0882
   39MOL    O4816084   3.139   6.374   3.079 -0.5702  0.2540 -0.6176
   39MOL    C4916085   3.220   6.490   3.105 -0.0167  0.3442 -0.0663
   39MOL    C5016086   3.158   6.597   3.009 -0.5549 -0.4628  0.2389
   39MOL    C5116087   3.186   6.571   2.863  0.1524  0.2492 -0.2793
   39MOL    C5216088   3.128   6.682   2.773 -0.3376  0.0616 -0.5595
   39MOL    H5316089   2.880   6.114   3.242  1.7331  0.5299  0.7716
   39MOL    H5416090   2.881   6.285   3.176 -0.8203 -0.1523  0.2951
   39MOL    H5516091   3.064   6.167   3.016  0.9735  1.0963  0.6806
   39MOL    H5616092   3.326   6.473   3.088  0.3614  2.0298  0.5311
   39MOL    H5716093   3.195   6.523   3.206 -0.1693 -1.3459  0.4756
   39MOL    H5816094   3.049   6.591   3.017 -0.5609 -1.3146 -0.4537
   39MOL    H5916095   3.189   6.698   3.036 -0.1008 -0.4816 -0.1946
   39MOL    H6016096   3.152   6.472   2.834 -0.6014  0.6712 -0.8521
   39MOL    H6116097   3.292   6.568   2.838  0.0109 -1.6068 -0.7287
   39MOL    H6216098   3.134   6.782   2.817 -0.3521  0.0839 -0.6076
   39MOL    H6316099   3.022   6.661   2.757 -0.1565 -1.2409 -0.1486
   39MOL    H6416100   3.186   6.683   2.681  1.3662  0.0138  0.4977
   39MOL    C6516101   3.096   6.012   3.159 -0.0018 -0.2143  0.7246
   39MOL    C6616102   3.220   5.950   3.086 -0.7414 -0.2242  0.5505
   39MOL    C6716103   3.193   5.944   2.933 -0.0323  0.2314 -0.1036
   39MOL    O6816104   3.157   5.839   2.886  0.0761  0.0153  0.3717
   39MOL    O6916105   3.214   6.065   2.874 -0.6823 -0.0303  0.4340
   39MOL    C7016106   3.217   6.080   2.732  0.1782 -0.9118 -0.4467
   39MOL    C7116107   3.253   6.228   2.701  0.2406  0.2655 -1.2880
   39MOL    C7216108   3.301   6.250   2.551  0.3793  1.4625 -0.8584
   39MOL    C7316109   3.332   6.387   2.507  0.8682 -0.2556  0.0821
   39MOL    H7416110   3.007   5.950   3.145 -0.3780  0.0558  1.8830
   39MOL    H7516111   3.098   5.998   3.267 -1.3977 -0.8246  0.6807
   39MOL    H7616112   3.211   5.849   3.124  0.6301 -0.3621  0.5185
   39MOL    H7716113   3.132   6.034   2.680 -1.0418 -0.8060  1.4098
   39MOL    H7816114   3.305   6.029   2.693 -0.3194 -0.6597 -1.9241
   39MOL    H7916115   3.159   6.279   2.723  0.9039  0.5341  1.0843
   39MOL    H8016116   3.326   6.263   2.774 -0.2488 -0.7354 -0.2990
   39MOL    H8116117   3.223   6.215   2.484 -1.3488  2.1572  0.7201
   39MOL    H8216118   3.393   6.192   2.553 -0.2016  0.5352 -0.6309
   39MOL    H8316119   3.282   6.426   2.418  1.2765  1.5559  0.6327
   39MOL    H8416120   3.439   6.392   2.485  0.9401  1.5105  0.7761
   39MOL    H8516121   3.311   6.465   2.579 -0.3920  1.2006 -1.8179
   39MOL    C8616122   3.356   6.009   3.130  0.0444 -0.0173 -0.1829
   39MOL    C8716123   3.480   5.926   3.084 -0.2367  0.2358 -0.5732
   39MOL    C8816124   3.606   5.997   3.144  0.0393 -0.5734 -0.0080
   39MOL    O8916125   3.671   6.081   3.078 -0.0973 -0.3832  0.1143
   39MOL    O9016126   3.638   5.943   3.266 -0.1588  0.5677  0.1348
   39MOL    C9116127   3.758   5.971   3.343  0.2308 -0.5531 -0.4554
   39MOL    C9216128   3.756   5.902   3.483 -0.9434  0.1189  0.1365
   39MOL    C9316129   3.758   5.752   3.473  0.2492  0.0487 -0.2031
   39MOL    C9416130   3.751   5.676   3.601 -0.5568 -0.0103 -0.5027
   39MOL    H9516131   3.350   6.027   3.237 -1.2243  0.0726 -0.2671
   39MOL    H9616132   3.369   6.112   3.097  0.4445 -0.1879 -0.5604
   39MOL    H9716133   3.493   5.940   2.976 -0.0428 -1.1264 -0.7424
   39MOL    H9816134   3.758   6.079   3.363 -0.9222 -0.3849 -1.3098
   39MOL    H9916135   3.848   5.945   3.288  1.5349  0.0177  1.3584
   39MOL   H10016136   3.842   5.940   3.537 -0.3506  0.7026 -1.2124
   39MOL   H10116137   3.663   5.935   3.529  0.1650  0.5669  2.1320
   39MOL   H10216138   3.849   5.724   3.419  0.7430 -0.1366  0.7091
   39MOL   H10316139   3.668   5.721   3.420 -1.4272 -1.8429  3.5472
   39MOL   H10416140   3.832   5.708   3.667 -2.6072  0.6399  1.7708
   39MOL   H10516141   3.755   5.569   3.580 -0.9232 -0.1689  0.2099
   39MOL   H10616142   3.660   5.688   3.660  0.5875  1.4118  1.0503
   39MOL   C10716143   3.467   5.774   3.100  0.2038 -0.2745 -0.6048
   39MOL   C10816144   3.588   5.687   3.057  0.3235  0.9967  0.2246
   39MOL   C10916145   3.574   5.547   3.130 -0.0762  0.2218  0.8879
   39MOL   O11016146   3.678   5.484   3.159 -0.0692  0.1240  0.8290
   39MOL   O11116147   3.446   5.506   3.139 -0.0368 -0.6325  0.0727
   39MOL   C11216148   3.414   5.388   3.201  0.2375  0.3633 -0.2748
   39MOL   C11316149   3.405   5.279   3.092 -0.0728 -0.1880  0.7167
   39MOL   C11416150   3.374   5.137   3.144  0.2800  0.0945 -0.0975
   39MOL   C11516151   3.326   5.038   3.037  0.3219  0.1811 -0.3743
   39MOL   H11616152   3.389   5.734   3.035  0.5696 -0.7173 -0.7752
   39MOL   H11716153   3.429   5.757   3.201 -0.8923 -0.1471 -0.9893
   39MOL   H11816154   3.683   5.727   3.092  0.5368  1.7608 -1.1992
   39MOL   H11916155   3.326   5.400   3.264  1.2231  1.8925  0.8526
   39MOL   H12016156   3.489   5.358   3.274 -0.9963  0.3094  0.9716
   39MOL   H12116157   3.328   5.305   3.019  1.1878 -0.7383 -0.8118
   39MOL   H12216158   3.504   5.277   3.047 -0.0801  1.9980  0.5494
   39MOL   H12316159   3.294   5.152   3.216 -0.2935  0.5877 -0.8290
   39MOL   H12416160   3.466   5.102   3.190  0.1966  0.8708  0.6783
   39MOL   H12516161   3.406   5.032   2.963  0.5788 -1.1660  0.0027
   39MOL   H12616162   3.227   5.065   2.999  1.0542  0.8702 -1.8644
   39MOL   H12716163   3.322   4.939   3.081 -1.3814 -0.0049 -0.9122
   39MOL   C12816164   3.602   5.683   2.900  0.3613 -0.1793 -0.4965
   39MOL   C12916165   3.739   5.621   2.859 -0.1819  0.0134 -0.6806
   39MOL   C13016166   3.730   5.466   2.851  0.0250 -0.5693  0.8642
   39MOL   O13116167   3.632   5.413   2.803  0.3505 -0.0969 -0.3719
   39MOL   O13216168   3.840   5.399   2.883 -0.3049  0.0206  0.1574
   39MOL   C13316169   3.829   5.261   2.874  0.3935  0.5208 -0.2313
   39MOL   C13416170   3.955   5.205   2.792 -0.0011  0.2434 -0.3272
   39MOL   C13516171   4.087   5.240   2.866 -0.3753  0.3386  0.2437
   39MOL   C13616172   4.181   5.126   2.876  0.0165 -0.6267  0.1330
   39MOL   H13716173   3.584   5.779   2.852  0.4931 -0.1591 -0.5068
   39MOL   H13816174   3.525   5.624   2.850  0.1137 -0.7870  0.5845
   39MOL   H13916175   3.810   5.645   2.938 -0.6551  0.7251 -0.4663
   39MOL   H14016176   3.736   5.213   2.840 -0.2309  2.4358 -1.2663
   39MOL   H14116177   3.832   5.234   2.980 -1.3644  1.3199  0.0452
   39MOL   H14216178   3.951   5.103   2.754 -0.5255 -0.4915  1.5982
   39MOL   H14316179   3.961   5.255   2.696  1.0595 -0.0361 -0.4091
   39MOL   H14416180   4.064   5.295   2.957  1.2041  1.2653  0.0980
   39MOL   H14516181   4.130   5.324   2.811 -0.7901  0.1593 -0.3622
   39MOL   H14616182   4.212   5.083   2.780 -0.7022  1.1598 -0.9317
   39MOL   H14716183   4.137   5.046   2.936 -0.5064 -1.5109 -1.3925
   39MOL   H14816184   4.271   5.149   2.933  0.4243 -2.4171  0.2600
   39MOL   C14916185   3.803   5.678   2.733  0.2226  0.0812 -0.1896
   39MOL   C15016186   3.880   5.811   2.754 -0.2089 -0.2478 -1.0587
   39MOL   C15116187   4.002   5.789   2.846 -0.3962 -0.3519 -0.3553
   39MOL   O15216188   4.001   5.822   2.966  0.2213  0.1283 -0.2069
   39MOL   O15316189   4.109   5.742   2.779  0.7293 -1.3097  0.0198
   39MOL   C15416190   4.212   5.672   2.849 -0.2658 -0.2436  0.7657
   39MOL   C15516191   4.344   5.677   2.764 -0.1804 -0.5236  0.3739
   39MOL   C15616192   4.341   5.572   2.652  0.4413  0.3911 -0.1122
   39MOL   C15716193   4.458   5.585   2.560  0.4088  0.0910 -0.7567
   39MOL   H15816194   3.729   5.688   2.654 -0.9283 -4.8436  0.0846
   39MOL   H15916195   3.876   5.605   2.696  1.8739  1.6992 -0.2024
   39MOL   H16016196   3.817   5.884   2.804  0.7882  0.1904 -0.4198
   39MOL   H16116197   4.176   5.572   2.871  2.2357 -1.4374 -0.3397
   39MOL   H16216198   4.222   5.713   2.949 -1.3954 -1.5206  1.4216
   39MOL   H16316199   4.348   5.779   2.726 -2.8309  0.5284  2.7275
   39MOL   H16416200   4.434   5.667   2.824 -0.1715 -0.4977  0.3646
   39MOL   H16516201   4.253   5.586   2.590  0.3936  2.4345  0.3604
   39MOL   H16616202   4.327   5.469   2.685 -1.4159  0.4231 -0.7688
   39MOL   H16716203   4.438   5.664   2.488  0.4045  0.8915  0.1070
   39MOL   H16816204   4.482   5.501   2.495 -0.6539  0.2155 -1.3131
   39MOL   H16916205   4.546   5.616   2.616  0.3314  0.3054 -0.7551
   39MOL   C17016206   3.924   5.874   2.626 -0.3662 -0.0325 -0.5716
   39MOL   C17116207   3.805   5.922   2.537 -0.0735 -0.5804 -0.0706
   39MOL   C17216208   3.705   6.024   2.603 -0.2132  0.2217 -0.1345
   39MOL   O17316209   3.588   5.988   2.639 -0.1798 -0.3497  0.7517
   39MOL   O17416210   3.752   6.151   2.604  0.1011  0.3004 -0.6809
   39MOL   C17516211   3.667   6.252   2.659  0.7191  0.0987  0.5694
   39MOL   C17616212   3.755   6.377   2.670  0.4924  0.2947  0.5063
   39MOL   C17716213   3.680   6.490   2.734  0.0652 -0.0393  0.2250
   39MOL   C17816214   3.763   6.615   2.746 -0.1776  0.0587  1.0355
   39MOL   H17916215   3.981   5.798   2.573 -0.5511 -0.5047 -0.1067
   39MOL   H18016216   3.983   5.964   2.641 -2.4292  1.3634 -0.6348
   39MOL   H18116217   3.740   5.836   2.520  1.0768 -0.8546 -3.4121
   39MOL   H18216218   3.635   6.225   2.760 -0.9128  0.7316  0.2381
   39MOL   H18316219   3.580   6.272   2.597 -0.3832 -2.8880  1.0546
   39MOL   H18416220   3.833   6.352   2.742 -0.3236 -0.0755  1.2672
   39MOL   H18516221   3.798   6.408   2.574  0.9514  2.1631  1.2950
   39MOL   H18616222   3.640   6.451   2.828  0.1096 -2.2320 -0.6236
   39MOL   H18716223   3.587   6.505   2.679 -1.1670 -2.9435  1.4260
   39MOL   H18816224   3.725   6.681   2.824  0.8999  2.9750 -0.8110
   39MOL   H18916225   3.745   6.666   2.651  0.2275 -1.2098  0.2759
   39MOL   H19016226   3.869   6.590   2.743 -0.6508 -2.1066  1.8738
   39MOL   C19116227   3.857   5.968   2.401  0.3336 -0.9132 -0.1877
   39MOL   C19216228   3.749   6.007   2.294 -0.6637  0.2234  1.2325
   39MOL   C19316229   3.810   6.121   2.204  0.4301  0.1048  0.2459
   39MOL   O19416230   3.839   6.100   2.088  0.3703 -0.3767  0.3667
   39MOL   O19516231   3.827   6.234   2.269 -0.2985  0.4580  0.3172
   39MOL   C19616232   3.879   6.352   2.204 -0.2732 -0.6012 -0.7136
   39MOL   C19716233   4.034   6.341   2.168  0.1866  0.0117 -0.0982
   39MOL   C19816234   4.132   6.306   2.273 -0.4561 -0.5059  1.0263
   39MOL   C19916235   4.117   6.406   2.393  0.2445  0.5000 -0.4262
   39MOL   H20016236   3.927   5.891   2.367  0.3664 -0.2935 -1.5885
   39MOL   H20116237   3.921   6.053   2.427 -3.0291  2.5813 -2.7713
   39MOL   H20216238   3.669   6.056   2.350 -0.1671  0.2122  1.9512
   39MOL   H20316239   3.876   6.435   2.275 -1.5883  0.3744 -1.8935
   39MOL   H20416240   3.837   6.379   2.107 -1.5359 -0.4213 -0.1240
   39MOL   H20516241   4.032   6.265   2.090  2.6466 -2.2306  1.9886
   39MOL   H20616242   4.052   6.438   2.121  0.4576 -0.3237 -0.6906
   39MOL   H20716243   4.231   6.324   2.229 -1.3943  1.8161 -0.1944
   39MOL   H20816244   4.115   6.203   2.305 -1.2257 -1.1831 -1.4209
   39MOL   H20916245   4.020   6.393   2.441  0.3355  0.4512 -0.2550
   39MOL   H21016246   4.150   6.507   2.368  1.4196  0.7858  2.0615
   39MOL   H21116247   4.189   6.384   2.473 -2.4025  0.0250  1.8896
   39MOL   C21216248   3.706   5.877   2.218 -0.2590  0.1083 -0.2468
   39MOL   C21316249   3.569   5.865   2.159 -0.0006  0.0125 -0.3099
   39MOL   C21416250   3.460   5.879   2.263  0.0999 -0.5399 -0.2609
   39MOL   O21516251   3.391   5.981   2.272 -0.1468  0.1014  0.2725
   39MOL   O21616252   3.448   5.771   2.346 -0.2714 -0.2744  0.2732
   39MOL   C21716253   3.353   5.767   2.458 -0.4544  0.2831 -0.0214
   39MOL   C21816254   3.349   5.625   2.525  0.1414 -0.1366  0.3242
   39MOL   C21916255   3.278   5.626   2.659  0.2447  0.3687 -0.2793
   39MOL   C22016256   3.271   5.491   2.731  0.3381  0.1034  0.4294
   39MOL   H22116257   3.709   5.803   2.298  0.5478 -1.1585 -1.4132
   39MOL   H22216258   3.783   5.853   2.144 -2.2816 -2.0143 -1.7284
   39MOL   H22316259   3.565   5.761   2.128  0.9990 -1.6518  4.6368
   39MOL   H22416260   3.262   5.804   2.410 -0.7063 -2.6640 -1.8845
   39MOL   H22516261   3.380   5.840   2.534 -2.9584 -0.0581  1.2461
   39MOL   H22616262   3.300   5.562   2.451 -0.6017  0.5608  0.2141
   39MOL   H22716263   3.454   5.594   2.527 -0.6351 -2.8398  0.3216
   39MOL   H22816264   3.181   5.674   2.648  1.1335  1.9174 -1.8761
   39MOL   H22916265   3.332   5.700   2.719  1.6156  1.0359 -2.2549
   39MOL   H23016266   3.231   5.487   2.832  0.6385 -0.0770  0.5420
   39MOL   H23116267   3.367   5.440   2.718  0.1203  0.1978 -1.6529
   39MOL   H23216268   3.198   5.441   2.668 -0.2975 -2.2829  2.9715
   39MOL   C23316269   3.545   5.953   2.033  0.2033  0.6366  0.8592
   39MOL   C23416270   3.422   5.916   1.945  0.5545 -0.5602  0.0946
   39MOL   C23516271   3.403   6.031   1.841  0.3703 -0.0557  0.1749
   39MOL   O23616272   3.491   6.119   1.832  0.0011 -0.5654  0.6938
   39MOL   O23716273   3.278   6.034   1.782  0.0580 -0.1610  0.2524
   39MOL   C23816274   3.250   6.148   1.705  0.1028  0.0150 -0.3400
   39MOL   C23916275   3.103   6.141   1.647 -0.7777  0.5756 -0.4485
   39MOL   C24016276   3.003   6.153   1.760 -0.1255 -1.1974  1.6198
   39MOL   C24116277   2.859   6.117   1.716 -0.3003  0.1311 -0.2747
   39MOL   H24216278   3.636   5.946   1.973  0.0076  2.3340  0.3604
   39MOL   H24316279   3.546   6.056   2.067  0.3300  0.4356  1.4724
   39MOL   H24416280   3.331   5.917   2.004  0.5638  0.3536  0.1088
   39MOL   H24516281   3.304   6.151   1.610  0.1903  3.4050 -0.2726
   39MOL   H24616282   3.263   6.244   1.755 -0.8030 -0.2109  0.3458
   39MOL   H24716283   3.078   6.206   1.563 -0.5152 -1.8836 -2.5230
   39MOL   H24816284   3.097   6.040   1.605 -0.2057  0.5979 -0.5827
   39MOL   H24916285   3.009   6.252   1.806 -2.6604 -0.7064  0.9650
   39MOL   H25016286   3.024   6.082   1.840  1.6880  0.7854  2.9509
   39MOL   H25116287   2.857   6.014   1.681  1.5124 -0.2452  0.7164
   39MOL   H25216288   2.826   6.180   1.632  0.9038 -0.8552 -1.5009
   39MOL   H25316289   2.787   6.126   1.798 -0.4430  0.7409 -0.4626
   39MOL   C25416290   3.433   5.771   1.884 -0.0372 -0.1403 -0.3154
   39MOL   C25516291   3.312   5.685   1.926  0.2563 -0.0398 -0.0911
   39MOL   C25616292   3.173   5.728   1.855 -0.2130  0.3488 -0.2225
   39MOL   O25716293   3.080   5.769   1.925  0.6700  0.2412  0.0196
   39MOL   O25816294   3.174   5.720   1.718  0.2565  0.0616  0.0895
   39MOL   C25916295   3.058   5.747   1.637  0.0840 -0.0936 -0.2053
   39MOL   C26016296   2.937   5.663   1.664  0.0705  0.0784 -0.3347
   39MOL   C26116297   2.817   5.687   1.567  0.1589 -0.3730 -0.4220
   39MOL   C26216298   2.703   5.587   1.570  0.2918 -0.3417  0.0556
   39MOL   H26316299   3.523   5.717   1.914  0.6622  0.7236 -0.8529
   39MOL   H26416300   3.433   5.771   1.775 -2.8972  1.0842 -0.3645
   39MOL   H26516301   3.294   5.698   2.033 -1.9492 -0.4474 -0.3911
   39MOL   H26616302   3.078   5.724   1.533  1.2806 -0.9534  0.2060
   39MOL   H26716303   3.041   5.854   1.650 -0.4470 -0.0628 -1.1222
   39MOL   H26816304   2.975   5.561   1.665  1.2127  0.4930  2.0555
   39MOL   H26916305   2.899   5.687   1.763 -1.7797  1.7965 -1.4243
   39MOL   H27016306   2.854   5.688   1.464  2.3747  0.5288  0.3545
   39MOL   H27116307   2.783   5.789   1.583 -0.2915 -0.7719  1.1839
   39MOL   H27216308   2.737   5.486   1.545  0.4709 -0.7506  1.8936
   39MOL   H27316309   2.630   5.612   1.493 -0.0733 -0.4809  0.3571
   39MOL   H27416310   2.664   5.578   1.672  1.7180  0.9655  0.7312
   39MOL   C27516311   3.338   5.528   1.900  0.2045  0.4557  0.4836
   39MOL   C27616312   3.398   5.455   2.020 -0.6726  0.5981 -0.1793
   39MOL   C27716313   3.291   5.430   2.118  0.0864  0.2751 -0.3513
   39MOL   O27816314   3.301   5.462   2.236  0.0462 -0.0831 -0.0684
   39MOL   O27916315   3.185   5.372   2.064  0.1061  0.1135  0.8848
   39MOL   C28016316   3.063   5.351   2.126 -0.3487  0.8593  0.1992
   39MOL   C28116317   2.990   5.480   2.119 -0.3738 -0.0309 -0.0532
   39MOL   C28216318   2.838   5.477   2.115  0.3113 -0.3188 -0.0696
   39MOL   C28316319   2.774   5.612   2.093 -0.0570 -0.5155  0.6593
   39MOL   H28416320   3.422   5.522   1.831  1.5526  1.4897  1.9788
   39MOL   H28516321   3.262   5.467   1.852  0.3408  0.9639 -0.3861
   39MOL   H28616322   3.472   5.524   2.060  2.0419 -1.6786 -1.0742
   39MOL   H28716323   3.082   5.333   2.231 -0.1123  3.0229  0.5640
   39MOL   H28816324   3.011   5.273   2.070 -1.0304  1.2044  0.3340
   39MOL   H28916325   3.030   5.537   2.202 -0.5166 -0.2148  0.1445
   39MOL   H29016326   3.015   5.532   2.027  0.0559  1.4821  0.9091
   39MOL   H29116327   2.796   5.441   2.210  1.7328 -1.4494  0.1510
   39MOL   H29216328   2.799   5.420   2.030  0.7784  1.2218 -1.3335
   39MOL   H29316329   2.795   5.649   1.993  1.1475  0.4901  1.2828
   39MOL   H29416330   2.811   5.688   2.162 -2.4185  1.3070 -0.0355
   39MOL   H29516331   2.665   5.623   2.097 -0.0901  1.1508 -3.1737
   39MOL   C29616332   3.485   5.335   1.994  0.4752  0.4944  0.4598
   39MOL   C29716333   3.611   5.347   1.896 -0.1426  0.3905 -0.3983
   39MOL   C29816334   3.700   5.470   1.918  0.5389  0.5000  0.1480
   39MOL   O29916335   3.693   5.548   2.009 -0.5032 -0.3698  0.1292
   39MOL   O30016336   3.785   5.483   1.816 -0.4429  0.3506 -0.2006
   39MOL   C30116337   3.852   5.607   1.792  0.0583 -0.5378  0.5210
   39MOL   C30216338   3.987   5.615   1.862  0.0404 -0.2714  0.0761
   39MOL   C30316339   4.076   5.740   1.815  0.7228  0.5520 -1.0882
   39MOL   C30416340   4.054   5.854   1.914 -0.0245  0.2020 -0.5451
   39MOL   H30516341   3.421   5.265   1.940  1.3726  1.0806 -1.4366
   39MOL   H30616342   3.514   5.297   2.091 -0.4514  1.4752  1.1312
   39MOL   H30716343   3.569   5.349   1.796 -0.0679 -0.8096 -0.4526
   39MOL   H30816344   3.790   5.696   1.799  2.6478  1.5942 -2.0799
   39MOL   H30916345   3.884   5.615   1.688  0.0768  0.5413  0.6029
   39MOL   H31016346   3.983   5.625   1.971  0.7339 -3.8831  0.5124
   39MOL   H31116347   4.042   5.522   1.853  0.1975 -0.0795 -1.0119
   39MOL   H31216348   4.040   5.777   1.719 -2.5260  0.4397  0.0355
   39MOL   H31316349   4.179   5.704   1.822  0.7765  0.8923  0.0421
   39MOL   H31416350   4.066   5.822   2.017 -0.2324  0.0615 -0.5642
   39MOL   H31516351   3.965   5.914   1.892 -1.0670 -1.9812 -2.4287
   39MOL   H31616352   4.130   5.930   1.896  1.5398 -0.9784  0.9998
   39MOL   C31716353   3.709   5.227   1.907 -0.2065 -0.0814  0.3664
   39MOL   C31816354   3.660   5.103   1.830  0.8010 -0.7281  0.1163
   39MOL   C31916355   3.646   5.131   1.675  0.1690  0.5840  0.3449
   39MOL   O32016356   3.720   5.217   1.624  0.0851 -0.0603  1.0355
   39MOL   O32116357   3.568   5.046   1.605 -0.0453 -0.1139  0.8580
   39MOL   C32216358   3.565   5.063   1.462  0.6150  0.5260  0.2399
   39MOL   C32316359   3.436   5.000   1.408 -0.0052 -0.9693 -0.6980
   39MOL   C32416360   3.409   5.046   1.264 -0.5232  0.6023 -0.7672
   39MOL   C32516361   3.274   4.988   1.215  0.1970  0.6496  0.4083
   39MOL   H32616362   3.735   5.208   2.011 -1.1218 -3.2329  0.0738
   39MOL   H32716363   3.808   5.246   1.867 -0.7074 -1.4971 -1.6571
   39MOL   H32816364   3.559   5.076   1.863  0.3397 -0.6291 -1.1666
   39MOL   H32916365   3.655   5.016   1.423  1.7078  0.1407  3.0585
   39MOL   H33016366   3.573   5.169   1.436  0.8387  0.2831 -0.7046
   39MOL   H33116367   3.432   4.891   1.406  2.5484 -1.0968 -0.8729
   39MOL   H33216368   3.359   5.036   1.477  1.5642  1.3557 -0.0945
   39MOL   H33316369   3.491   5.000   1.210  0.4497 -0.4046  1.5199
   39MOL   H33416370   3.414   5.155   1.255  1.9382  0.3369 -3.0864
   39MOL   H33516371   3.188   5.038   1.260  1.3756  1.3758  1.8714
   39MOL   H33616372   3.263   4.881   1.229 -1.1877  1.0377  2.4037
   39MOL   H33716373   3.261   4.994   1.106 -0.2154 -1.6464  0.2936
   39MOL   C33816374   3.752   4.983   1.835  0.2519  0.2879 -0.0070
   39MOL   C33916375   3.772   4.916   1.972 -0.2270 -0.0726  0.4347
   39MOL   C34016376   3.637   4.858   2.023  0.5172 -0.0689  0.3693
   39MOL   O34116377   3.554   4.916   2.096  0.3298  0.3778  0.2416
   39MOL   O34216378   3.614   4.744   1.958  0.0213 -0.7950  0.0733
   39MOL   C34316379   3.501   4.663   1.968  0.6561  0.2739  0.3871
   39MOL   C34416380   3.385   4.710   1.885  0.7237  0.7499  0.3147
   39MOL   C34516381   3.416   4.698   1.738  0.4679 -0.5127  0.3681
   39MOL   C34616382   3.302   4.754   1.655  0.0423 -0.3218 -0.4349
   39MOL   H34716383   3.843   4.989   1.774  1.3591 -1.2482  1.4632
   39MOL   H34816384   3.706   4.897   1.786 -0.6319  0.0760  1.1841
   39MOL   H34916385   3.818   4.991   2.036 -0.0818  3.5157 -3.6595
   39MOL   H35016386   3.489   4.652   2.075  0.3915 -1.0371  0.2206
   39MOL   H35116387   3.523   4.560   1.942  1.9982  0.9731 -1.3647
   39MOL   H35216388   3.301   4.649   1.919  1.8101 -1.3242 -0.6302
   39MOL   H35316389   3.356   4.811   1.914 -2.0810 -0.3428  1.4912
   39MOL   H35416390   3.433   4.593   1.714  0.6179  0.0056 -1.8856
   39MOL   H35516391   3.505   4.758   1.717 -1.7952  3.1626  0.9814
   39MOL   H35616392   3.206   4.713   1.688 -0.7688  0.3371 -1.9330
   39MOL   H35716393   3.315   4.713   1.554 -2.9038 -0.6376 -0.7418
   39MOL   H35816394   3.302   4.862   1.645 -0.9977 -0.2267  0.4733
   39MOL   C35916395   3.875   4.797   1.962 -0.3192 -0.4363 -0.3539
   39MOL   C36016396   3.921   4.723   2.090 -0.1775 -0.6777  0.0470
   39MOL   C36116397   3.937   4.575   2.059  0.4497  0.6980 -0.6664
   39MOL   O36216398   3.875   4.488   2.129  0.5961 -0.4026 -0.3581
   39MOL   O36316399   4.024   4.545   1.955  0.0761 -0.2827  0.3561
   39MOL   C36416400   4.054   4.413   1.915  0.1531  0.7629  0.3604
   39MOL   C36516401   3.983   4.369   1.790 -0.2948 -0.1973  0.2951
   39MOL   C36616402   3.828   4.379   1.806 -0.5712 -0.0361  0.0703
   39MOL   C36716403   3.750   4.322   1.688 -0.2247 -0.0501  0.3015
   39MOL   H36816404   3.964   4.835   1.911 -0.4008 -2.0903 -1.7784
   39MOL   H36916405   3.847   4.715   1.896 -1.7608  0.8818 -1.4139
   39MOL   H37016406   3.846   4.735   2.168 -0.5915 -1.1754 -0.2710
   39MOL   H37116407   4.053   4.329   1.985 -0.0971  1.0745  0.7307
   39MOL   H37216408   4.159   4.413   1.887  0.7478  1.0379  2.5145
   39MOL   H37316409   4.021   4.438   1.715  0.0249 -1.9934 -1.2420
   39MOL   H37416410   4.015   4.272   1.752  0.5098  1.0337 -2.2673
   39MOL   H37516411   3.789   4.481   1.807  0.7548  0.4821  0.2797
   39MOL   H37616412   3.798   4.331   1.899  0.4142  0.3120  0.5709
   39MOL   H37716413   3.753   4.393   1.606  1.3955 -0.0547  0.3489
   39MOL   H37816414   3.645   4.313   1.716 -0.5478 -0.3053 -0.9576
   39MOL   H37916415   3.800   4.227   1.668  0.8916  0.3459  1.1262
   39MOL   C38016416   4.057   4.770   2.154 -0.7838 -0.6977 -0.4156
   39MOL   C38116417   4.070   4.922   2.178  0.3402 -0.2296 -0.3127
   39MOL   C38216418   3.978   4.969   2.287  0.0941 -0.0323  0.5628
   39MOL   O38316419   3.959   4.916   2.399  0.8065  0.4695 -0.2578
   39MOL   O38416420   3.917   5.086   2.247  0.0306  0.6474  0.1572
   39MOL   C38516421   3.835   5.156   2.346 -0.0315  0.4502  1.3827
   39MOL   C38616422   3.800   5.299   2.300 -0.6766  0.4348  0.2379
   39MOL   C38716423   3.748   5.377   2.409 -0.6625 -0.3258 -0.4736
   39MOL   C38816424   3.718   5.519   2.363  0.2555 -0.7914 -0.1767
   39MOL   H38916425   4.147   4.733   2.105 -0.0120 -1.4586  1.5178
   39MOL   H39016426   4.063   4.725   2.254 -1.6070  0.2684  0.0733
   39MOL   H39116427   4.039   4.967   2.084 -1.7757 -0.2756  0.3417
   39MOL   H39216428   3.892   5.164   2.439  0.3253 -1.5072  1.3451
   39MOL   H39316429   3.743   5.104   2.372 -0.0521 -0.6547 -0.7701
   39MOL   H39416430   3.887   5.354   2.266  1.2909 -2.0897  1.0214
   39MOL   H39516431   3.727   5.292   2.219 -0.1287 -0.7546 -0.1714
   39MOL   H39616432   3.815   5.379   2.495 -0.7843  2.5904 -0.4026
   39MOL   H39716433   3.659   5.331   2.452 -0.5796 -1.1524 -1.1651
   39MOL   H39816434   3.803   5.554   2.304 -0.1317 -0.3050 -0.4593
   39MOL   H39916435   3.710   5.594   2.442  0.5559 -1.0745  0.1210
   39MOL   H40016436   3.631   5.528   2.297 -1.6739 -0.7565  2.2831
   39MOL   C40116437   4.214   4.962   2.205  0.4530  0.4098  0.2922
   39MOL   C40216438   4.238   5.113   2.234  0.2604  0.3940  0.2592
   39MOL   C40316439   4.188   5.213   2.132  0.7505 -0.4571 -0.7724
   39MOL   O40416440   4.105   5.298   2.168 -0.4969 -0.4121  0.7511
   39MOL   O40516441   4.235   5.198   2.011  0.4803 -0.0829  0.4378
   39MOL   C40616442   4.201   5.285   1.908  0.1728  0.1033 -0.1541
   39MOL   C40716443   4.324   5.297   1.815  0.3377 -0.4012 -0.0387
   39MOL   C40816444   4.321   5.423   1.719 -0.5340 -0.3361  0.0949
   39MOL   C40916445   4.407   5.410   1.592 -0.4655  0.3239  0.3102
   39MOL   H41016446   4.272   4.926   2.120 -0.9887 -1.3014  0.0198
   39MOL   H41116447   4.256   4.909   2.290  3.0425  2.0065  0.0686
   39MOL   H41216448   4.342   5.131   2.262  0.3039  0.8739 -0.1953
   39MOL   H41316449   4.177   5.385   1.943  2.2391  0.4467  0.3356
   39MOL   H41416450   4.124   5.229   1.854 -0.6179  1.7524 -0.7721
   39MOL   H41516451   4.417   5.319   1.869  0.1960 -0.5667  0.2771
   39MOL   H41616452   4.332   5.213   1.746 -0.5971 -0.4408 -0.0992
   39MOL   H41716453   4.346   5.517   1.769 -0.2474  0.8940 -2.3167
   39MOL   H41816454   4.218   5.434   1.685 -0.3162 -0.1289 -0.5031
   39MOL   H41916455   4.362   5.334   1.528  0.0091  0.4194 -0.1429
   39MOL   H42016456   4.514   5.390   1.597 -0.5599 -0.0241  1.0275
   39MOL   H42116457   4.396   5.500   1.531 -0.3745  0.6559  0.7829
   39MOL   H42216458   4.185   5.147   2.323  1.4259 -3.1192  2.3872
   40MOL     C116459   3.420   5.370   1.032 -0.5006  0.9462 -0.7012
   40MOL     C216460   3.297   5.421   0.959 -0.3943 -0.1573 -0.2550
   40MOL     C316461   3.174   5.394   1.053 -0.3228  0.3636  0.0174
   40MOL     O416462   3.101   5.293   1.031 -0.2676 -0.3572 -0.3316
   40MOL     O516463   3.167   5.476   1.152  0.1024  0.2123 -0.5338
   40MOL     C616464   3.065   5.452   1.253 -0.4549  0.0861  0.4762
   40MOL     C716465   3.108   5.461   1.402  0.0183  0.4586  0.5676
   40MOL     C816466   3.208   5.345   1.440 -0.4203 -0.5311  0.4804
   40MOL     C916467   3.235   5.345   1.595 -0.2532  0.3546 -0.1917
   40MOL    H1016468   3.400   5.266   1.056  0.7033  0.4629 -1.7362
   40MOL    H1116469   3.517   5.390   0.986  0.0338 -0.1605 -0.0793
   40MOL    H1216470   3.284   5.357   0.872  0.5305  0.1572 -0.6333
   40MOL    H1316471   3.021   5.354   1.240 -0.7142  0.0595  1.5233
   40MOL    H1416472   2.978   5.516   1.235 -1.0040 -0.6908  0.3822
   40MOL    H1516473   3.159   5.558   1.409 -0.7401  1.1376 -2.6658
   40MOL    H1616474   3.024   5.454   1.471 -0.3572 -0.3535  0.0247
   40MOL    H1716475   3.303   5.356   1.388 -1.5358 -0.0222 -1.5153
   40MOL    H1816476   3.168   5.249   1.408 -1.0100  0.0578 -0.6032
   40MOL    H1916477   3.286   5.434   1.632 -0.0188 -0.1307  0.6698
   40MOL    H2016478   3.306   5.263   1.606 -0.3144  0.5206  1.6126
   40MOL    H2116479   3.154   5.329   1.666  0.4754  1.3516  0.8916
   40MOL    H2216480   3.435   5.425   1.125  0.6349  0.5903 -0.6679
   40MOL    C2316481   3.325   5.568   0.923  0.4682  0.5806  0.2830
   40MOL    C2416482   3.222   5.624   0.821 -0.6004 -0.0257 -0.2715
   40MOL    C2516483   3.096   5.680   0.904 -1.1114  0.3938  0.5675
   40MOL    O2616484   3.114   5.775   0.976 -0.2842 -0.6244 -0.1647
   40MOL    O2716485   2.985   5.603   0.883  0.2321 -0.1912  0.1023
   40MOL    C2816486   2.858   5.644   0.927 -0.3388 -0.0487 -0.2326
   40MOL    C2916487   2.751   5.550   0.881 -0.3978 -0.3530  0.4766
   40MOL    C3016488   2.758   5.407   0.935  0.5236 -0.6072 -0.0848
   40MOL    C3116489   2.633   5.316   0.915  0.1368  0.1898 -0.1059
   40MOL    H3216490   3.417   5.576   0.866  0.5227  1.7112  0.5307
   40MOL    H3316491   3.345   5.627   1.012 -0.1692 -0.2975  1.0313
   40MOL    H3416492   3.192   5.532   0.770  1.4811 -2.0915  2.0778
   40MOL    H3516493   2.830   5.743   0.892  1.5854  0.3705 -0.6230
   40MOL    H3616494   2.876   5.648   1.034 -1.3801 -2.7212  0.1073
   40MOL    H3716495   2.656   5.597   0.906 -0.4515  0.8764 -1.8992
   40MOL    H3816496   2.748   5.564   0.773  0.3169 -1.1305  0.3484
   40MOL    H3916497   2.758   5.415   1.044 -0.8594  2.6983 -0.2857
   40MOL    H4016498   2.847   5.352   0.903  0.7760 -0.5819  0.5610
   40MOL    H4116499   2.536   5.362   0.894  1.1650  2.3709 -0.2336
   40MOL    H4216500   2.607   5.253   0.999 -2.0421  0.1609 -0.7781
   40MOL    H4316501   2.657   5.243   0.838  1.4574 -1.0648  1.4599
   40MOL    C4416502   3.286   5.728   0.725  0.1395 -0.7279  0.2345
   40MOL    C4516503   3.187   5.762   0.612  0.2992  0.3924 -0.1231
   40MOL    C4616504   3.178   5.918   0.603  0.8265 -0.7873 -0.2511
   40MOL    O4716505   3.065   5.970   0.624 -0.0159  0.3750  0.5427
   40MOL    O4816506   3.293   5.978   0.569 -0.7313 -1.1249 -0.3561
   40MOL    C4916507   3.302   6.117   0.583 -0.0025 -0.5573  0.2156
   40MOL    C5016508   3.348   6.148   0.725 -0.4894 -0.1787  0.2549
   40MOL    C5116509   3.501   6.146   0.727  0.6467  0.0621 -0.6856
   40MOL    C5216510   3.556   6.203   0.845 -0.1036  0.2359 -0.0686
   40MOL    H5316511   3.376   5.693   0.674 -1.0644  0.3992 -2.7919
   40MOL    H5416512   3.303   5.823   0.776  0.8589 -0.8774  0.2839
   40MOL    H5516513   3.087   5.731   0.642  0.3713  1.0344  0.8315
   40MOL    H5616514   3.204   6.165   0.586  0.6058  0.6588  0.6017
   40MOL    H5716515   3.355   6.169   0.504 -2.4697  2.2007  0.2787
   40MOL    H5816516   3.301   6.246   0.738 -0.1059  0.4014 -2.4795
   40MOL    H5916517   3.309   6.075   0.796 -1.0155  0.2347  0.3992
   40MOL    H6016518   3.533   6.205   0.641  0.1537  1.7748  0.2757
   40MOL    H6116519   3.541   6.045   0.722  0.0522 -0.1755 -0.6408
   40MOL    H6216520   3.519   6.305   0.860 -0.0194  0.3355 -0.5144
   40MOL    H6316521   3.664   6.213   0.845  0.2553 -3.0541 -1.3405
   40MOL    H6416522   3.541   6.136   0.930  0.1158 -0.7964 -0.8385
   40MOL    C6516523   3.226   5.693   0.481 -0.1366 -0.1303  0.1980
   40MOL    C6616524   3.220   5.536   0.487  0.4652 -0.1562  0.0873
   40MOL    C6716525   3.090   5.480   0.535 -0.7258 -0.4375 -0.6573
   40MOL    O6816526   2.978   5.524   0.519 -0.2497 -0.6381 -0.4068
   40MOL    O6916527   3.106   5.367   0.618  0.1762 -0.7711 -0.4724
   40MOL    C7016528   2.985   5.308   0.669 -0.4384 -0.1560  0.3246
   40MOL    C7116529   2.957   5.174   0.599 -0.2962  0.0589 -0.5044
   40MOL    C7216530   3.081   5.091   0.615 -0.3448  0.3743 -0.4718
   40MOL    C7316531   3.077   4.957   0.537  0.7527 -0.6452 -0.0458
   40MOL    H7416532   3.320   5.741   0.453 -2.5290  3.3343 -2.2375
   40MOL    H7516533   3.162   5.720   0.397 -1.1191  0.3664  1.0971
   40MOL    H7616534   3.287   5.508   0.568  1.3916 -2.3407 -1.4298
   40MOL    H7716535   2.896   5.371   0.667 -0.0459  0.3667 -1.2637
   40MOL    H7816536   3.002   5.301   0.776 -0.3607 -2.0005  0.2117
   40MOL    H7916537   2.867   5.127   0.638 -0.3745  1.8819  1.6384
   40MOL    H8016538   2.939   5.187   0.493  2.1808 -0.8740 -1.0714
   40MOL    H8116539   3.095   5.059   0.718 -0.0032  0.1258 -0.5922
   40MOL    H8216540   3.177   5.136   0.590  0.6098 -1.1202  0.4080
   40MOL    H8316541   3.175   4.908   0.529  0.2843 -1.7253  0.7176
   40MOL    H8416542   3.043   4.972   0.435 -1.2847 -1.9524  0.4281
   40MOL    H8516543   3.015   4.878   0.578  0.2457 -0.2539 -0.0557
   40MOL    C8616544   3.250   5.458   0.358  0.2683 -0.2284  0.4547
   40MOL    C8716545   3.395   5.406   0.328 -0.8168 -0.2939  0.6356
   40MOL    C8816546   3.479   5.350   0.448  0.5330  0.3166  0.1570
   40MOL    O8916547   3.432   5.319   0.557  0.3055  0.0316 -0.1576
   40MOL    O9016548   3.616   5.344   0.421  0.4515  0.1275 -0.0374
   40MOL    C9116549   3.709   5.280   0.512  0.0059 -0.2516  0.0048
   40MOL    C9216550   3.852   5.335   0.484  0.3842  0.0226  0.0500
   40MOL    C9316551   3.951   5.303   0.601 -0.6482 -0.4584  0.2502
   40MOL    C9416552   4.090   5.313   0.541  0.1943 -1.1362 -0.4875
   40MOL    H9516553   3.207   5.512   0.273 -1.7413 -2.4769 -0.0289
   40MOL    H9616554   3.191   5.368   0.338 -1.3113  0.3915  2.2646
   40MOL    H9716555   3.448   5.496   0.294 -1.3677 -0.2992 -0.2567
   40MOL    H9816556   3.704   5.171   0.508  2.6776 -0.4893  2.0412
   40MOL    H9916557   3.681   5.306   0.614  0.7934 -1.1188  0.4437
   40MOL   H10016558   3.883   5.297   0.387  1.5164  0.5790  0.1898
   40MOL   H10116559   3.857   5.441   0.460  0.6888  0.1579  0.7015
   40MOL   H10216560   3.929   5.200   0.627 -1.3826 -0.3103  0.2187
   40MOL   H10316561   3.942   5.369   0.687 -0.4812  2.8690 -2.1717
   40MOL   H10416562   4.155   5.312   0.628  1.2515 -1.2827 -1.2600
   40MOL   H10516563   4.102   5.398   0.473  1.1419 -0.6495  0.2701
   40MOL   H10616564   4.110   5.222   0.483 -0.9513  0.0991 -2.9088
   40MOL   C10716565   3.399   5.304   0.210  0.0748 -0.1103 -0.6993
   40MOL   C10816566   3.331   5.337   0.075  0.4823  0.3052  0.6262
   40MOL   C10916567   3.389   5.466   0.018 -0.0854 -0.0892 -0.5263
   40MOL   O11016568   3.319   5.563   0.002 -0.3317 -0.3965 -0.1332
   40MOL   O11116569   3.527   5.459   0.014 -0.1057 -0.3317  0.2966
   40MOL   C11216570   3.608   5.566   7.825 -0.1669 -0.3081  0.2016
   40MOL   C11316571   3.757   5.539   0.017 -0.2040  0.3805 -0.1368
   40MOL   C11416572   3.849   5.648   7.820 -0.5379 -0.3372 -0.0630
   40MOL   C11516573   3.997   5.621   7.848  0.0756  0.7296  0.0674
   40MOL   H11616574   3.353   5.210   0.239  1.3548 -0.3598  0.6513
   40MOL   H11716575   3.505   5.282   0.195  0.7950  2.0800  0.7692
   40MOL   H11816576   3.224   5.356   0.085 -0.0767 -0.1709 -3.6661
   40MOL   H11916577   3.578   5.667   0.001  0.4304  0.0761 -0.5195
   40MOL   H12016578   3.592   5.569   7.717 -2.4563  1.3236  0.5446
   40MOL   H12116579   3.763   5.523   0.125 -3.7845  2.5457  0.4735
   40MOL   H12216580   3.790   5.442   7.832  2.2774  1.0600  0.1779
   40MOL   H12316581   3.828   5.736   0.029 -1.2213  0.9869 -2.1407
   40MOL   H12416582   3.824   5.677   7.718 -1.1885 -0.9665 -0.0832
   40MOL   H12516583   4.039   5.524   7.823  0.0364  1.5281 -3.2799
   40MOL   H12616584   4.011   5.642   0.101 -0.0649 -1.0737  0.4543
   40MOL   H12716585   4.065   5.687   7.794 -1.2406  1.1580 -1.0813
   40MOL   C12816586   3.344   5.225   7.819 -0.3906 -0.4880  0.2156
   40MOL   C12916587   3.219   5.187   7.728 -0.1110 -0.0136 -0.3182
   40MOL   C13016588   3.105   5.131   7.818 -0.0087 -0.1159  0.7342
   40MOL   O13116589   3.109   5.133   0.085 -0.2911 -0.5207 -0.6728
   40MOL   O13216590   3.010   5.083   7.737 -0.3958 -0.2632  0.0825
   40MOL   C13316591   2.890   5.031   7.788  0.0595 -0.2636  0.2581
   40MOL   C13416592   2.831   4.920   7.694  0.1735 -0.6810 -0.4334
   40MOL   C13516593   2.701   4.877   7.751  0.5193  0.1507  0.0957
   40MOL   C13616594   2.582   4.969   7.711 -0.0443  0.0010 -0.6681
   40MOL   H13716595   3.378   5.129   0.004 -0.5956 -1.0837 -1.0676
   40MOL   H13816596   3.427   5.251   7.754 -0.5793  0.5459  0.3851
   40MOL   H13916597   3.246   5.106   7.661 -2.8832 -1.1946 -0.0776
   40MOL   H14016598   2.829   5.116   7.819 -0.7068  0.1391 -2.2736
   40MOL   H14116599   2.921   4.978   0.025  0.6594 -0.4159 -0.0316
   40MOL   H14216600   2.825   4.947   7.588  1.5953 -0.5752 -0.4932
   40MOL   H14316601   2.911   4.847   7.705  0.7265  0.2004  1.5304
   40MOL   H14416602   2.702   4.862   0.006  0.1184  0.9497  0.2068
   40MOL   H14516603   2.679   4.772   7.727  2.3467 -0.5396  1.3538
   40MOL   H14616604   2.482   4.930   7.730  0.1004  0.4743  1.1420
   40MOL   H14716605   2.579   4.964   7.602 -0.1409 -0.3356 -0.6521
   40MOL   H14816606   2.586   5.072   7.745  2.3641  0.1521 -1.3539
   40MOL   C14916607   3.168   5.296   7.630  0.7796 -0.4630 -0.8017
   40MOL   C15016608   3.266   5.326   7.514  0.0064 -0.4246  0.4303
   40MOL   C15116609   3.276   5.206   7.415 -0.4187 -0.4156 -0.1136
   40MOL   O15216610   3.179   5.179   7.344 -0.5023 -0.1455 -0.1433
   40MOL   O15316611   3.386   5.144   7.425  0.0748  0.4287 -0.2635
   40MOL   C15416612   3.424   5.053   7.325  0.0231  0.1537  0.2976
   40MOL   C15516613   3.553   5.085   7.257 -0.6239  0.6717 -0.3787
   40MOL   C15616614   3.582   4.993   7.138  0.6277 -0.7445 -0.6455
   40MOL   C15716615   3.676   5.045   7.034  0.7465 -0.5915  0.1334
   40MOL   H15816616   3.136   5.382   7.688 -0.8330 -0.3700 -1.8102
   40MOL   H15916617   3.075   5.259   7.587  0.7508  0.0964 -1.2241
   40MOL   H16016618   3.366   5.341   7.556 -0.3754  0.5092  1.0353
   40MOL   H16116619   3.353   5.036   7.244  0.7366  3.1511 -1.0508
   40MOL   H16216620   3.445   4.955   7.368  0.0682  1.0664  2.3618
   40MOL   H16316621   3.544   5.188   7.221  1.2991  1.4336  1.2145
   40MOL   H16416622   3.639   5.077   7.323 -0.7662 -1.2881 -0.4073
   40MOL   H16516623   3.486   4.966   7.095 -0.0317 -0.3915  0.5803
   40MOL   H16616624   3.608   4.894   7.178  0.8625 -0.2207  0.5257
   40MOL   H16716625   3.695   4.965   6.963 -0.4998  0.7471 -1.7829
   40MOL   H16816626   3.770   5.073   7.081  0.6578 -0.9502  0.5297
   40MOL   H16916627   3.632   5.128   6.978  1.3983 -0.5810 -0.3559
   40MOL   C17016628   3.236   5.461   7.436 -0.5907  0.3959 -0.8554
   40MOL   C17116629   3.294   5.593   7.500 -0.2293  0.1985 -0.6053
   40MOL   C17216630   3.441   5.612   7.466  0.5598 -0.7479  0.0926
   40MOL   O17316631   3.503   5.543   7.388 -0.0188 -0.4436 -0.1182
   40MOL   O17416632   3.498   5.718   7.527  1.2525 -0.5285 -0.6699
   40MOL   C17516633   3.630   5.765   7.505 -0.1756 -0.3201  0.3905
   40MOL   C17616634   3.656   5.862   7.386 -0.5410 -1.1188  0.1090
   40MOL   C17716635   3.792   5.945   7.391  0.2697  0.0373 -0.6471
   40MOL   C17816636   3.790   6.052   7.294 -0.0590  0.3415  0.1312
   40MOL   H17916637   3.127   5.457   7.432 -0.6388  2.0034 -1.6472
   40MOL   H18016638   3.275   5.454   7.334  1.3223  0.0885 -0.1216
   40MOL   H18116639   3.296   5.574   7.607 -0.1176  1.3354 -0.4050
   40MOL   H18216640   3.689   5.680   7.469  0.0938 -0.7223  1.7449
   40MOL   H18316641   3.663   5.803   7.601  0.4008 -0.6120  0.3146
   40MOL   H18416642   3.638   5.808   7.294 -0.6393 -2.4655  0.9063
   40MOL   H18516643   3.574   5.932   7.398  1.0965  0.9165 -0.2581
   40MOL   H18616644   3.879   5.882   7.404  0.1170 -0.7368 -3.1418
   40MOL   H18716645   3.786   5.996   7.487  1.1823 -3.0451  1.0933
   40MOL   H18816646   3.797   6.012   7.193  1.7542 -0.3730  0.5106
   40MOL   H18916647   3.882   6.109   7.306  0.3534  0.5114 -3.2767
   40MOL   H19016648   3.708   6.123   7.298 -1.8489 -1.5871 -0.9467
   40MOL   C19116649   3.216   5.721   7.455 -0.1316 -0.4186 -0.2249
   40MOL   C19216650   3.082   5.745   7.520 -0.0862  0.0262 -0.5076
   40MOL   C19316651   3.066   5.702   7.665  0.0123 -0.8365 -0.5549
   40MOL   O19416652   3.009   5.603   7.695  0.0352  0.0429  0.6323
   40MOL   O19516653   3.120   5.791   7.759  0.2083  0.3401  0.1171
   40MOL   C19616654   3.110   5.766   0.048 -0.0214 -0.2608  0.5286
   40MOL   C19716655   2.982   5.822   0.111  0.1974 -0.4424  0.0327
   40MOL   C19816656   2.990   5.976   0.121  0.3461  0.1941  0.6153
   40MOL   C19916657   2.860   6.046   0.145  0.2157 -0.1628 -1.0237
   40MOL   H20016658   3.214   5.719   7.346 -0.1499 -0.7114 -0.2192
   40MOL   H20116659   3.279   5.810   7.460  1.5138 -1.4515 -1.9880
   40MOL   H20216660   3.017   5.671   7.474  0.7876 -0.1041 -1.5428
   40MOL   H20316661   3.196   5.809   0.098 -0.0341 -2.4075  2.4717
   40MOL   H20416662   3.104   5.659   0.066 -1.7032 -0.2099  0.3581
   40MOL   H20516663   2.894   5.792   0.055 -0.0632  1.0526 -0.3849
   40MOL   H20616664   2.975   5.783   0.213  1.5834 -0.9062 -0.0306
   40MOL   H20716665   3.019   6.012   0.022 -2.8572  0.8517 -0.1219
   40MOL   H20816666   3.061   6.006   0.197  0.2555  0.6967  0.5024
   40MOL   H20916667   2.782   6.012   0.078  0.8939  0.3057 -2.0575
   40MOL   H21016668   2.870   6.154   0.138 -0.8565  0.0191 -0.0933
   40MOL   H21116669   2.826   6.027   0.247 -0.4631  0.6645 -1.0910
   40MOL   C21216670   3.032   5.888   7.498 -0.8171  1.3913 -0.0591
   40MOL   C21316671   3.030   5.950   7.355 -0.1396  0.6698 -0.1989
   40MOL   C21416672   3.165   6.010   7.309 -0.0191  0.1136  0.9759
   40MOL   O21516673   3.244   5.945   7.235 -0.1895  0.0592 -0.9375
   40MOL   O21616674   3.179   6.136   7.335 -0.7948 -0.4133  0.3475
   40MOL   C21716675   3.272   6.209   7.260  0.0711  0.3489 -0.4352
   40MOL   C21816676   3.412   6.199   7.315  0.3745 -0.1800  0.2928
   40MOL   C21916677   3.432   6.258   7.454  0.2233 -0.7249 -0.4890
   40MOL   C22016678   3.584   6.267   7.504 -0.4512  0.0279 -0.2507
   40MOL   H22116679   3.105   5.945   7.555  1.7697 -2.5658  0.7397
   40MOL   H22216680   2.936   5.917   7.542 -0.8955  1.9297 -0.5689
   40MOL   H22316681   2.959   6.032   7.369 -0.4056  0.4711 -0.3866
   40MOL   H22416682   3.241   6.313   7.268 -0.5059  0.0860  0.7481
   40MOL   H22516683   3.271   6.176   7.156  3.4241  1.8783 -1.0376
   40MOL   H22616684   3.460   6.101   7.314  0.4445 -0.2589  3.9572
   40MOL   H22716685   3.456   6.266   7.241  0.2685  1.7250  1.8777
   40MOL   H22816686   3.379   6.199   7.528 -2.1514  0.2073 -1.4032
   40MOL   H22916687   3.378   6.353   7.447 -0.3747 -1.1272 -1.3849
   40MOL   H23016688   3.578   6.342   7.583  0.4784 -0.3106  0.1476
   40MOL   H23116689   3.653   6.294   7.424 -2.1393  0.3634 -1.6269
   40MOL   H23216690   3.608   6.171   7.550 -0.6734  0.6014  1.1098
   40MOL   C23316691   2.963   5.849   7.257  0.0260  0.4582  0.1019
   40MOL   C23416692   2.936   5.901   7.107  0.4801 -0.1783 -0.0031
   40MOL   C23516693   2.899   5.777   7.014 -0.5242  0.7331 -0.0912
   40MOL   O23616694   2.783   5.759   6.985 -0.0941  0.1061  0.0802
   40MOL   O23716695   3.005   5.715   6.967  0.0418 -0.3444  0.1181
   40MOL   C23816696   2.987   5.602   6.885  0.0262 -0.5698 -0.4409
   40MOL   C23916697   2.987   5.639   6.728 -0.1539 -0.4359  0.2661
   40MOL   C24016698   3.125   5.695   6.693 -0.3449  0.0138 -0.3763
   40MOL   C24116699   3.145   5.737   6.549 -0.2603 -0.0152  0.3071
   40MOL   H24216700   2.873   5.799   7.291  0.8865 -0.6583  0.7760
   40MOL   H24316701   3.020   5.756   7.254 -0.4066  0.1435  1.3532
   40MOL   H24416702   3.026   5.939   7.059  0.7284  1.0420  1.3963
   40MOL   H24516703   2.892   5.555   6.910 -0.7842  0.2352 -1.9672
   40MOL   H24616704   3.062   5.530   6.918  0.1111  0.1826  1.0689
   40MOL   H24716705   2.974   5.547   6.671  1.1477 -0.3732 -0.1516
   40MOL   H24816706   2.909   5.714   6.720 -0.6161 -0.8470  0.9205
   40MOL   H24916707   3.202   5.618   6.708  1.1259  0.9318 -2.9035
   40MOL   H25016708   3.143   5.770   6.770 -4.7185  0.6351  0.1626
   40MOL   H25116709   3.244   5.781   6.535 -0.0976 -0.4594  0.0384
   40MOL   H25216710   3.066   5.805   6.520  0.4502  0.1910 -1.1720
   40MOL   H25316711   3.154   5.652   6.481  1.2866 -0.3986  0.9466
   40MOL   C25416712   2.830   6.018   7.100 -0.0807 -0.3125  0.1738
   40MOL   C25516713   2.889   6.164   7.087 -0.0660  0.3034  0.0051
   40MOL   C25616714   2.985   6.181   6.969  0.2753 -0.7016  0.1309
   40MOL   O25716715   3.107   6.178   6.986  0.0394  0.4665  0.6686
   40MOL   O25816716   2.925   6.208   6.852 -0.1200  0.2502  0.3917
   40MOL   C25916717   3.001   6.204   6.736  0.0789  0.0338  0.4447
   40MOL   C26016718   3.051   6.342   6.694 -0.4282  0.7314 -0.0512
   40MOL   C26116719   2.935   6.436   6.680 -0.0163 -0.4371 -0.4458
   40MOL   C26216720   2.968   6.579   6.641 -0.8261  0.1943 -0.0795
   40MOL   H26316721   2.768   6.006   7.189 -1.2208  0.9328 -0.4370
   40MOL   H26416722   2.758   5.999   7.020  1.0231  1.6903 -1.3427
   40MOL   H26516723   2.942   6.171   7.183 -0.5352  0.8474  0.2286
   40MOL   H26616724   2.946   6.148   6.660  1.6006 -1.4345  0.3826
   40MOL   H26716725   3.087   6.137   6.746  0.5614  0.4179 -1.0492
   40MOL   H26816726   3.116   6.391   6.766  0.2826  1.7426 -1.3510
   40MOL   H26916727   3.118   6.332   6.609 -0.0144 -0.4395  0.4013
   40MOL   H27016728   2.883   6.440   6.776 -0.4944  1.5716 -0.7619
   40MOL   H27116729   2.860   6.395   6.613  0.5344 -4.2237  1.1517
   40MOL   H27216730   2.879   6.641   6.626 -0.1921  1.2250  0.3842
   40MOL   H27316731   3.019   6.597   6.546  0.4913 -0.1295  0.5548
   40MOL   H27416732   3.038   6.625   6.711 -1.3968 -0.5205  0.9758
   40MOL   C27516733   2.788   6.280   7.089  0.9549 -0.2973  1.0360
   40MOL   C27616734   2.849   6.423   7.070 -0.2872  0.1502 -0.1474
   40MOL   C27716735   2.752   6.537   7.060  0.1025  0.6645 -0.2392
   40MOL   O27816736   2.689   6.568   7.163 -0.2514  0.2009  0.0292
   40MOL   O27916737   2.740   6.594   6.939 -0.1712 -0.2141 -0.2269
   40MOL   C28016738   2.624   6.667   6.904  0.5226 -0.1816  0.4678
   40MOL   C28116739   2.610   6.655   6.755  0.1028 -0.6194  0.1137
   40MOL   C28216740   2.474   6.686   6.705 -0.2552  0.2817  0.1794
   40MOL   C28316741   2.459   6.690   6.547 -0.1686  0.8808  0.1798
   40MOL   H28416742   2.738   6.271   7.186  3.0055 -2.9796  1.9002
   40MOL   H28516743   2.714   6.271   7.010 -0.2050  0.7744  1.9765
   40MOL   H28616744   2.898   6.424   6.973  0.4705  0.3080  0.2386
   40MOL   H28716745   2.634   6.772   6.932  0.3661 -0.0572  0.0471
   40MOL   H28816746   2.543   6.613   6.953  1.1299 -0.9047  0.6908
   40MOL   H28916747   2.681   6.728   6.715  0.6836 -0.2686  1.7526
   40MOL   H29016748   2.647   6.567   6.703 -2.1223  0.0759 -2.8003
   40MOL   H29116749   2.441   6.784   6.739  1.1312  1.1309 -0.8857
   40MOL   H29216750   2.406   6.610   6.743  1.2945 -2.1999 -1.8759
   40MOL   H29316751   2.471   6.586   6.515 -1.3202  0.7266  0.2043
   40MOL   H29416752   2.534   6.754   6.502 -0.5784  0.5163 -1.0520
   40MOL   H29516753   2.357   6.723   6.524 -0.0318  1.3399  0.2289
   40MOL   C29616754   2.954   6.453   7.180  0.2268 -0.2969 -0.1244
   40MOL   C29716755   3.052   6.578   7.155 -0.1268 -0.6325  0.0916
   40MOL   C29816756   3.133   6.614   7.283 -0.2150  0.7969  0.8135
   40MOL   O29916757   3.201   6.530   7.344  0.0056 -0.5832 -0.4409
   40MOL   O30016758   3.109   6.740   7.316 -0.4519  0.6061  0.0528
   40MOL   C30116759   3.169   6.803   7.432  0.3268 -0.1067 -0.5394
   40MOL   C30216760   3.093   6.766   7.555  0.0843  0.8148  0.3277
   40MOL   C30316761   3.159   6.808   7.682  0.1800  0.8275 -0.1415
   40MOL   C30416762   3.065   6.796   7.799  0.6286 -0.5590  0.8233
   40MOL   H30516763   3.017   6.365   7.190  0.5868 -0.1004 -0.6394
   40MOL   H30616764   2.905   6.447   7.277  0.9397 -0.3229  0.2304
   40MOL   H30716765   2.983   6.659   7.128 -0.5047 -1.3183 -1.0304
   40MOL   H30816766   3.182   6.912   7.433 -2.4146  0.2436  1.5288
   40MOL   H30916767   3.269   6.763   7.451  1.3240  1.7209 -1.7751
   40MOL   H31016768   2.991   6.806   7.558  0.2487  1.3555 -0.8977
   40MOL   H31116769   3.074   6.659   7.553  0.4987  0.7374 -3.2837
   40MOL   H31216770   3.183   6.915   7.684 -0.8427  1.1254 -2.2128
   40MOL   H31316771   3.248   6.748   7.702  0.4670  0.4548 -2.4172
   40MOL   H31416772   3.107   6.829   0.041  2.5867  0.5415 -0.3966
   40MOL   H31516773   3.029   6.695   7.819 -0.9972 -0.3189 -0.7553
   40MOL   H31616774   2.980   6.864   7.787  1.5177  0.6175  1.1365
   40MOL   C31716775   3.144   6.567   7.038 -0.2923  0.6578  0.7987
   40MOL   C31816776   3.260   6.678   7.022 -0.3334  0.1923  0.6070
   40MOL   C31916777   3.354   6.622   6.918  0.2809 -0.6418 -0.0264
   40MOL   O32016778   3.328   6.607   6.799  0.1016  0.0636  0.3397
   40MOL   O32116779   3.472   6.589   6.977  0.9363 -0.4902  0.2231
   40MOL   C32216780   3.582   6.538   6.902 -0.3082 -0.0932  0.2086
   40MOL   C32316781   3.632   6.405   6.960 -0.3049  0.5826  0.0177
   40MOL   C32416782   3.756   6.354   6.886  0.0330 -1.2367 -0.7078
   40MOL   C32516783   3.772   6.206   6.902  0.5356  0.2728  0.6974
   40MOL   H32616784   3.073   6.562   6.956  1.5810  1.8132 -0.9477
   40MOL   H32716785   3.196   6.472   7.054  0.9231  1.0472 -0.6729
   40MOL   H32816786   3.321   6.674   7.112 -0.5616 -2.0365  0.7035
   40MOL   H32916787   3.656   6.618   6.901  0.1025 -0.4379  1.6961
   40MOL   H33016788   3.549   6.515   6.800 -0.2922 -2.1724  0.6443
   40MOL   H33116789   3.667   6.407   7.064  2.8191 -2.3230 -0.8916
   40MOL   H33216790   3.561   6.323   6.952  0.0463  0.2728  0.0426
   40MOL   H33316791   3.846   6.408   6.916 -0.3217 -0.6165 -0.7468
   40MOL   H33416792   3.751   6.376   6.779  0.6341 -0.6257 -0.6173
   40MOL   H33516793   3.681   6.166   6.858  1.4434 -1.3728  0.2946
   40MOL   H33616794   3.763   6.196   7.010 -0.1749  0.6846  0.6753
   40MOL   H33716795   3.855   6.156   6.851  0.5498 -0.4749  1.4598
   40MOL   C33816796   3.214   6.821   6.982  1.2550 -0.1757  0.0049
   40MOL   C33916797   3.238   6.944   7.079  0.3423  0.0363  0.0189
   40MOL   C34016798   3.392   6.960   7.103 -0.3032 -0.0496 -0.1467
   40MOL   O34116799   3.441   6.932   7.213 -0.5400  0.0886 -0.1802
   40MOL   O34216800   3.454   7.017   6.996  0.0685 -0.0478  0.3542
   40MOL   C34316801   3.589   7.040   6.999 -0.8432  0.1221  0.0597
   40MOL   C34416802   3.628   7.185   7.025 -0.0634  0.3597  0.1798
   40MOL   C34516803   3.776   7.206   7.029  0.5336  0.2072  0.2256
   40MOL   C34616804   3.820   7.352   7.024  0.4286 -0.0377  0.1384
   40MOL   H34716805   3.107   6.816   6.965  1.2170 -0.2185  0.2653
   40MOL   H34816806   3.245   6.846   6.881 -1.0209  0.7964 -0.4874
   40MOL   H34916807   3.201   6.928   7.180 -1.1054 -3.8985 -1.0654
   40MOL   H35016808   3.637   7.013   6.905  0.4401 -0.5451  0.8920
   40MOL   H35116809   3.639   6.979   7.074 -1.5387 -0.0214  0.4160
   40MOL   H35216810   3.582   7.248   6.949 -0.3183  0.6914  0.6032
   40MOL   H35316811   3.586   7.220   7.119  0.4561 -0.1763  0.6124
   40MOL   H35416812   3.812   7.161   6.936 -2.0920 -1.1612 -0.1764
   40MOL   H35516813   3.819   7.150   7.112 -0.5594  0.9097  1.2772
   40MOL   H35616814   3.928   7.354   7.007  0.3893 -0.4411 -0.1736
   40MOL   H35716815   3.807   7.395   7.123 -0.2124 -1.6854  0.7822
   40MOL   H35816816   3.771   7.412   6.947 -1.7613 -1.0355  0.7200
   40MOL   C35916817   3.173   7.075   7.019  0.4250 -0.0129  0.0369
   40MOL   C36016818   3.162   7.192   7.122 -0.9755 -0.0379  0.3143
   40MOL   C36116819   3.127   7.321   7.052 -0.0741  0.2887 -0.0413
   40MOL   O36216820   3.006   7.367   7.045 -0.9927  0.4456  0.4864
   40MOL   O36316821   3.234   7.375   6.999  0.8808  0.5790  0.4166
   40MOL   C36416822   3.235   7.514   6.960  0.9585 -0.3744  0.7705
   40MOL   C36516823   3.372   7.530   6.901  0.0228 -0.0432 -0.3575
   40MOL   C36616824   3.399   7.447   6.773 -0.3642 -0.2146  0.2649
   40MOL   C36716825   3.531   7.467   6.708 -1.0028  0.0007  0.8367
   40MOL   H36816826   3.074   7.057   6.976  1.9495 -1.6461 -2.9296
   40MOL   H36916827   3.214   7.100   6.921 -1.8298 -0.5986 -1.0984
   40MOL   H37016828   3.264   7.203   7.157 -0.1495 -0.5764 -1.8456
   40MOL   H37116829   3.226   7.583   7.043  0.8768  1.2239 -0.5498
   40MOL   H37216830   3.151   7.537   6.894  2.1062  0.6069 -0.3682
   40MOL   H37316831   3.407   7.633   6.889 -0.1119  0.0902  0.3715
   40MOL   H37416832   3.445   7.488   6.969 -0.6042 -0.2878  0.1708
   40MOL   H37516833   3.324   7.474   6.699 -0.1258  0.3168  0.2117
   40MOL   H37616834   3.383   7.340   6.783 -1.8054 -0.0049  0.2686
   40MOL   H37716835   3.548   7.574   6.697  0.4096 -0.0087  2.7322
   40MOL   H37816836   3.529   7.424   6.608 -0.6502 -1.3427  1.3926
   40MOL   H37916837   3.612   7.425   6.767 -0.8041  0.8570  1.1682
   40MOL   C38016838   3.073   7.166   7.247  0.3531  0.2963 -0.2886
   40MOL   C38116839   2.918   7.143   7.215 -0.3951  0.3464 -0.4923
   40MOL   C38216840   2.881   6.994   7.225  0.5275 -0.6784 -0.6052
   40MOL   O38316841   2.883   6.931   7.123  0.5697  0.2057  0.2525
   40MOL   O38416842   2.826   6.967   7.342 -0.0881  0.0203 -0.1198
   40MOL   C38516843   2.777   6.841   7.357 -0.0207 -0.3306 -0.4047
   40MOL   C38616844   2.679   6.825   7.472 -0.4494 -0.7951  0.1175
   40MOL   C38716845   2.564   6.930   7.487  0.2939  1.1428 -0.2536
   40MOL   C38816846   2.455   6.914   7.602  0.1598  0.7352  0.2848
   40MOL   H38916847   3.090   7.241   7.325 -0.1258 -0.5014  0.5966
   40MOL   H39016848   3.117   7.080   7.298 -1.8509  0.2967  1.7000
   40MOL   H39116849   2.894   7.171   7.112 -1.5851 -0.9324 -0.5658
   40MOL   H39216850   2.854   6.764   7.350 -0.1390 -0.2026 -3.4819
   40MOL   H39316851   2.715   6.812   7.272 -0.2006 -0.8394 -0.1028
   40MOL   H39416852   2.636   6.726   7.459 -0.1635 -1.2755  2.5002
   40MOL   H39516853   2.732   6.832   7.567  0.8623 -0.5398 -0.6382
   40MOL   H39616854   2.515   6.922   7.390  0.8430 -0.4132 -0.4179
   40MOL   H39716855   2.623   7.020   7.504  2.1128 -0.2128  0.9050
   40MOL   H39816856   2.350   6.922   7.577  0.6233 -1.5142 -2.6315
   40MOL   H39916857   2.473   6.987   7.681  2.2411 -0.7895  1.2634
   40MOL   H40016858   2.468   6.822   7.658 -1.5739 -0.5634 -1.3950
   40MOL   C40116859   2.832   7.245   7.296 -1.3160 -0.0115  0.3000
   40MOL   C40216860   2.685   7.257   7.242  0.3260 -0.2895 -0.4275
   40MOL   C40316861   2.601   7.356   7.313  0.7410 -0.6416  0.1281
   40MOL   O40416862   2.522   7.427   7.250  0.1146 -0.4968  0.6857
   40MOL   O40516863   2.600   7.343   7.451 -0.4571  0.5104  0.0024
   40MOL   C40616864   2.496   7.408   7.531  0.2627 -0.1775 -0.5702
   40MOL   C40716865   2.391   7.302   7.572  0.4295 -0.0528  0.3145
   40MOL   C40816866   2.323   7.243   7.445  0.9152  0.1647 -0.2466
   40MOL   C40916867   2.190   7.185   7.490 -0.0300 -1.0232 -0.1492
   40MOL   H41016868   2.877   7.343   7.283 -1.6531 -0.0832 -1.6241
   40MOL   H41116869   2.842   7.228   7.403 -0.3854  1.5987  0.4840
   40MOL   H41216870   2.640   7.158   7.236 -0.0807 -0.0692 -1.1125
   40MOL   H41316871   2.450   7.493   7.482 -0.5137 -0.0336  0.4030
   40MOL   H41416872   2.526   7.443   7.630 -1.3949  2.6748 -1.0290
   40MOL   H41516873   2.426   7.228   7.644 -0.8650 -1.5239 -0.5347
   40MOL   H41616874   2.320   7.344   7.643  1.3542 -1.8943  2.3730
   40MOL   H41716875   2.390   7.177   7.391 -1.4992 -1.3230 -1.5243
   40MOL   H41816876   2.304   7.320   7.370  0.8941  0.6640  0.2645
   40MOL   H41916877   2.155   7.104   7.425  0.7395 -0.4452 -1.2886
   40MOL   H42016878   2.112   7.259   7.508 -1.9968 -3.4188  1.5396
   40MOL   H42116879   2.201   7.141   7.589 -0.7384  1.4134  1.0518
   40MOL   H42216880   2.701   7.287   7.138 -1.2605  1.7448 -0.1272
   41MOL     C116881   2.762   4.738   6.834 -0.4669 -0.2360  0.3912
   41MOL     C216882   2.848   4.651   6.925 -0.3179  0.6052  0.2403
   41MOL     C316883   2.939   4.738   7.009 -0.4909 -0.3842  0.3373
   41MOL     O416884   3.059   4.731   6.995  0.0296 -0.3283  0.0835
   41MOL     O516885   2.870   4.821   7.086 -0.5880  0.8267  0.1164
   41MOL     C616886   2.934   4.899   7.181 -0.0335  0.0583 -0.2243
   41MOL     C716887   2.843   5.016   7.212 -0.1564 -0.5244  0.4696
   41MOL     C816888   2.715   4.978   7.284  0.5840 -0.2233 -0.2704
   41MOL     C916889   2.639   5.103   7.331 -0.3401  0.4992  0.3620
   41MOL    H1016890   2.688   4.675   6.785 -2.2240  0.4521  2.0838
   41MOL    H1116891   2.713   4.827   6.875 -0.5821  0.2065 -0.6822
   41MOL    H1216892   2.892   4.572   6.865  1.7196  0.1180  2.3197
   41MOL    H1316893   3.030   4.938   7.147  0.4155 -0.2758  0.6397
   41MOL    H1416894   2.945   4.826   7.262 -0.1013 -0.5452 -0.7609
   41MOL    H1516895   2.903   5.090   7.266 -0.3321  0.6198 -0.8665
   41MOL    H1616896   2.815   5.067   7.120  1.4625 -0.6798 -0.1339
   41MOL    H1716897   2.727   4.908   7.367  2.5763  0.3622 -0.0493
   41MOL    H1816898   2.655   4.922   7.213  2.7214 -2.5864 -0.2752
   41MOL    H1916899   2.626   5.161   7.240 -2.6213 -0.6804 -0.0964
   41MOL    H2016900   2.689   5.166   7.405 -1.7838  1.8611  0.2005
   41MOL    H2116901   2.540   5.079   7.370  0.1480  0.5957  1.6852
   41MOL    H2216902   2.816   4.770   6.745  0.5206 -2.7658  0.0534
   41MOL    C2316903   2.772   4.582   7.038  0.8091  0.8819 -0.0095
   41MOL    C2416904   2.708   4.451   6.985  0.1479 -0.0776  0.5033
   41MOL    C2516905   2.814   4.346   6.981 -0.0517 -0.1463  0.1814
   41MOL    O2616906   2.854   4.287   7.085  0.9138  0.2386  0.8222
   41MOL    O2716907   2.855   4.331   6.862 -0.0854  0.1685  0.4314
   41MOL    C2816908   2.957   4.230   6.823 -0.0755  0.1705  0.2048
   41MOL    C2916909   2.906   4.095   6.766  0.1523  0.3985 -0.2804
   41MOL    C3016910   2.834   4.020   6.871  0.5314  0.6179 -0.3633
   41MOL    C3116911   2.797   3.877   6.827 -0.4125 -0.1766 -0.1188
   41MOL    H3216912   2.694   4.645   7.081  1.7202  0.9791  1.5640
   41MOL    H3316913   2.829   4.556   7.127  0.3210  0.3835  0.1629
   41MOL    H3416914   2.669   4.481   6.888 -1.8098  0.7639  1.5113
   41MOL    H3516915   3.032   4.225   6.902 -0.4256 -0.2263  0.5122
   41MOL    H3616916   3.012   4.270   6.738 -0.9983  0.2637 -0.3517
   41MOL    H3716917   2.841   4.107   6.680 -0.0018 -0.1166 -0.2353
   41MOL    H3816918   2.996   4.038   6.741  0.2486 -0.1652  1.2783
   41MOL    H3916919   2.737   4.068   6.886 -0.2251 -0.4585 -1.6960
   41MOL    H4016920   2.889   4.018   6.965 -1.9113  2.8268  1.2155
   41MOL    H4116921   2.748   3.824   6.909  0.3936 -0.7449  0.0116
   41MOL    H4216922   2.887   3.821   6.799 -0.6876 -1.1106  0.8250
   41MOL    H4316923   2.728   3.867   6.743 -0.5483 -1.7830  0.1554
   41MOL    C4416924   2.593   4.393   7.063  0.2349 -0.7370 -0.5958
   41MOL    C4516925   2.455   4.471   7.061 -0.4633  0.1673  0.1115
   41MOL    C4616926   2.410   4.513   6.925  0.2212  1.0463  0.0648
   41MOL    O4716927   2.377   4.627   6.899  0.4432 -0.4702  0.7123
   41MOL    O4816928   2.399   4.417   6.833 -0.9419 -0.2998  0.9619
   41MOL    C4916929   2.366   4.434   6.697 -0.8239 -0.7775  0.4636
   41MOL    C5016930   2.403   4.315   6.606  0.2453  0.2459  0.5225
   41MOL    C5116931   2.554   4.277   6.622  0.8895 -0.4339 -0.0727
   41MOL    C5216932   2.584   4.153   6.536 -0.4349  0.2599 -0.7320
   41MOL    H5316933   2.625   4.376   7.166  0.8984  1.3208 -0.4397
   41MOL    H5416934   2.562   4.304   7.009 -2.1705 -1.7046  2.2409
   41MOL    H5516935   2.468   4.565   7.115 -1.7799  0.0480  0.6633
   41MOL    H5616936   2.430   4.518   6.670 -1.0941 -0.2565  1.4488
   41MOL    H5716937   2.264   4.462   6.673 -0.2968  0.9223  0.1702
   41MOL    H5816938   2.352   4.223   6.634  0.6810 -0.9083 -2.2120
   41MOL    H5916939   2.375   4.329   6.501 -0.1676 -0.8758  0.4772
   41MOL    H6016940   2.577   4.249   6.724 -1.5086  1.3359  0.9848
   41MOL    H6116941   2.621   4.353   6.582  1.5686 -1.1866 -0.4065
   41MOL    H6216942   2.592   4.171   6.429  0.2132  3.3829 -0.2167
   41MOL    H6316943   2.498   4.088   6.552 -0.9938  1.0997 -0.2823
   41MOL    H6416944   2.675   4.099   6.562  0.3833  2.5457  1.3336
   41MOL    C6516945   2.335   4.393   7.134  0.0400 -0.4508 -0.2603
   41MOL    C6616946   2.268   4.501   7.230 -0.2103  0.9020  0.3439
   41MOL    C6716947   2.116   4.493   7.212  0.3996 -0.2436 -0.4288
   41MOL    O6816948   2.029   4.484   7.301 -0.0491 -1.2178  0.6680
   41MOL    O6916949   2.081   4.512   7.078  0.0372 -0.7102 -0.2368
   41MOL    C7016950   1.946   4.487   7.035  0.4851  0.0053 -0.1882
   41MOL    C7116951   1.943   4.478   6.894 -0.0105  0.9847  0.2655
   41MOL    C7216952   2.007   4.352   6.846  0.4084 -0.1071 -0.2269
   41MOL    C7316953   1.981   4.324   6.694 -0.2232  0.5638  0.2289
   41MOL    H7416954   2.380   4.301   7.173  0.5730 -0.3747 -0.6864
   41MOL    H7516955   2.263   4.363   7.057 -0.2877  0.0346 -0.1406
   41MOL    H7616956   2.297   4.602   7.199 -0.0828  0.7004 -0.1896
   41MOL    H7716957   1.873   4.562   7.066  2.3458  2.3419 -1.2490
   41MOL    H7816958   1.919   4.395   7.088 -1.2079  1.3274  1.3290
   41MOL    H7916959   1.838   4.475   6.865  0.0081 -0.9924  0.3720
   41MOL    H8016960   2.000   4.555   6.842 -0.4149  1.0934 -0.0147
   41MOL    H8116961   1.972   4.264   6.900 -2.0681  0.7943 -0.2697
   41MOL    H8216962   2.115   4.363   6.852  0.5269 -0.6465 -1.1471
   41MOL    H8316963   2.024   4.408   6.640  1.5156 -1.5057 -1.7703
   41MOL    H8416964   1.878   4.310   6.663 -0.6995  0.9455  1.6212
   41MOL    H8516965   2.029   4.232   6.659 -1.4750  0.0669 -0.2120
   41MOL    C8616966   2.321   4.490   7.374  0.6915 -0.2140  0.5122
   41MOL    C8716967   2.277   4.602   7.473 -1.4323  0.2066  0.1675
   41MOL    C8816968   2.326   4.563   7.615 -1.0463 -0.0503 -0.1095
   41MOL    O8916969   2.374   4.452   7.641 -0.8611 -1.2358 -0.3883
   41MOL    O9016970   2.315   4.661   7.704 -0.7246  0.4455 -0.3493
   41MOL    C9116971   2.342   4.646   7.839 -0.0366  0.0447 -0.4670
   41MOL    C9216972   2.256   4.731   0.079 -0.0969  0.0953  0.0520
   41MOL    C9316973   2.278   4.718   0.234  0.0514  0.5984  0.0852
   41MOL    C9416974   2.421   4.767   0.284  0.4100  0.4665 -0.8030
   41MOL    H9516975   2.428   4.470   7.381  1.4929  3.4498  0.1325
   41MOL    H9616976   2.272   4.400   7.410 -0.0051  0.7278  1.9596
   41MOL    H9716977   2.169   4.603   7.461 -1.2451  1.5697 -1.5635
   41MOL    H9816978   2.442   4.685   0.003  0.3575 -0.0299 -2.4919
   41MOL    H9916979   2.344   4.540   0.014  0.5275  0.3694  0.7227
   41MOL   H10016980   2.260   4.833   0.041 -6.7125 -0.1035 -1.9082
   41MOL   H10116981   2.151   4.706   0.061 -0.1166  1.6086 -2.0486
   41MOL   H10216982   2.256   4.614   0.260  1.1769  0.8097  1.9466
   41MOL   H10316983   2.190   4.763   0.280 -0.2949  1.2832 -1.2214
   41MOL   H10416984   2.503   4.705   0.249  0.6621  0.7535 -0.7230
   41MOL   H10516985   2.440   4.773   0.391 -1.8508  2.2002 -0.4526
   41MOL   H10616986   2.435   4.859   0.227  1.4786  0.2200 -0.9479
   41MOL   C10716987   2.328   4.736   7.419 -0.4957  0.3460  0.6690
   41MOL   C10816988   2.221   4.810   7.337  0.0824 -0.5873  0.0643
   41MOL   C10916989   2.141   4.889   7.444 -0.5486  0.5840  0.0731
   41MOL   O11016990   2.036   4.847   7.480  0.4764  0.8225  0.5532
   41MOL   O11116991   2.210   5.001   7.482  0.0864 -0.1284 -0.4693
   41MOL   C11216992   2.149   5.089   7.565 -0.5339 -0.2646  0.3893
   41MOL   C11316993   2.227   5.216   7.566  0.0820 -1.2593 -0.2501
   41MOL   C11416994   2.210   5.300   7.434  0.4088  0.0613  0.5963
   41MOL   C11516995   2.267   5.447   7.441  0.1877 -0.3397  0.2217
   41MOL   H11616996   2.424   4.714   7.373 -0.8177 -1.5891  0.8838
   41MOL   H11716997   2.366   4.803   7.496 -1.3865  0.5274  0.9537
   41MOL   H11816998   2.157   4.740   7.285 -1.2178  2.0590 -2.0224
   41MOL   H11916999   2.133   5.043   7.662 -0.3985  0.3644  0.7122
   41MOL   H12017000   2.046   5.108   7.534 -0.3747  0.0899  0.0753
   41MOL   H12117001   2.205   5.275   7.655 -0.7645 -2.4396  0.3245
   41MOL   H12217002   2.331   5.192   7.586  1.0192  1.4891 -1.5211
   41MOL   H12317003   2.102   5.303   7.422  0.1304  0.2794  2.9261
   41MOL   H12417004   2.247   5.240   7.351 -0.7047  0.9712 -0.5691
   41MOL   H12517005   2.212   5.512   7.509 -1.1364 -0.3804 -0.7912
   41MOL   H12617006   2.253   5.501   7.348 -0.8778  1.4240  1.3818
   41MOL   H12717007   2.374   5.453   7.457  0.2598 -1.3249  0.1608
   41MOL   C12817008   2.279   4.907   7.226 -0.2213  0.1514 -0.0401
   41MOL   C12917009   2.161   4.964   7.135 -0.4596 -0.7068  0.6635
   41MOL   C13017010   2.199   5.104   7.078 -0.1531 -0.1412  0.5047
   41MOL   O13117011   2.123   5.202   7.088  0.5587 -0.1434  0.2254
   41MOL   O13217012   2.323   5.109   7.030  0.7162 -0.0218 -0.3275
   41MOL   C13317013   2.381   5.236   6.980 -0.3771  0.3361 -0.2935
   41MOL   C13417014   2.381   5.253   6.829  0.3789  0.5733  0.9391
   41MOL   C13517015   2.249   5.297   6.766 -0.9465  0.3343 -0.4452
   41MOL   C13617016   2.260   5.379   6.634  0.9784  0.0688  0.2644
   41MOL   H13717017   2.332   4.839   7.160  0.5174  1.1769 -0.5186
   41MOL   H13817018   2.341   4.990   7.259 -1.8833  0.5616  2.1673
   41MOL   H13917019   2.084   4.988   7.208  1.5579  2.5192  1.8126
   41MOL   H14017020   2.487   5.229   7.003 -0.6587  0.5022  1.0887
   41MOL   H14117021   2.345   5.324   7.034 -2.1123 -0.4213 -0.1862
   41MOL   H14217022   2.450   5.333   6.801 -0.5139  0.1287 -2.7151
   41MOL   H14317023   2.419   5.164   6.781  0.6684  1.3896 -0.3582
   41MOL   H14417024   2.205   5.364   6.840 -0.0409 -1.2915  1.5901
   41MOL   H14517025   2.180   5.213   6.760 -0.9089  0.2238  0.6801
   41MOL   H14617026   2.298   5.480   6.648 -1.3327  1.2566 -1.6024
   41MOL   H14717027   2.171   5.385   6.571 -0.3689 -1.8281  1.9365
   41MOL   H14817028   2.340   5.333   6.576  1.0842 -0.1569  0.5867
   41MOL   C14917029   2.107   4.869   7.033 -0.1955  0.1568 -0.1386
   41MOL   C15017030   1.965   4.885   6.966  0.2799  0.2708 -0.5729
   41MOL   C15117031   1.847   4.838   7.055  0.6118  0.0218 -0.0645
   41MOL   O15217032   1.751   4.768   7.010 -0.2106 -0.5372 -0.1811
   41MOL   O15317033   1.851   4.884   7.185 -0.2604  0.0401  0.2384
   41MOL   C15417034   1.738   4.905   7.268  0.4316  0.4037  0.7644
   41MOL   C15517035   1.704   5.053   7.262  0.3358 -0.1470 -0.0592
   41MOL   C15617036   1.809   5.148   7.316 -0.2941  0.1799 -0.2334
   41MOL   C15717037   1.748   5.293   7.352 -0.0708  0.0808  0.1364
   41MOL   H15817038   2.108   4.770   7.078 -1.1125 -0.3886 -1.2955
   41MOL   H15917039   2.179   4.853   6.952 -0.2741  3.4978 -0.9358
   41MOL   H16017040   1.958   4.814   6.884 -0.0578 -0.7205  0.2967
   41MOL   H16117041   1.753   4.863   7.367  1.4187  0.5934  0.7023
   41MOL   H16217042   1.658   4.851   7.218  1.0107  0.5788 -0.3795
   41MOL   H16317043   1.678   5.087   7.162 -0.9489 -0.6777  0.0830
   41MOL   H16417044   1.610   5.061   7.317  1.1008  0.8952  1.1300
   41MOL   H16517045   1.895   5.154   7.249 -0.9333 -1.2623 -1.2067
   41MOL   H16617046   1.862   5.119   7.406 -1.0368 -0.8649 -0.1193
   41MOL   H16717047   1.820   5.368   7.384  0.0876 -0.5491  1.2673
   41MOL   H16817048   1.676   5.273   7.432  1.1323 -0.7259  1.0355
   41MOL   H16917049   1.695   5.339   7.268  1.8994  3.5240  0.7059
   41MOL   C17017050   1.938   5.024   6.899  0.5771  0.2762 -0.0328
   41MOL   C17117051   1.845   5.031   6.773  0.2337  0.0300  0.0524
   41MOL   C17217052   1.706   5.057   6.824 -0.6399 -0.0137  0.1015
   41MOL   O17317053   1.620   4.983   6.783  0.3424 -0.0525 -0.5114
   41MOL   O17417054   1.680   5.171   6.877 -0.2448  0.0027 -0.3988
   41MOL   C17517055   1.550   5.197   6.925  0.9183  0.4568  0.1323
   41MOL   C17617056   1.562   5.337   6.994  0.3384  0.6531 -0.5223
   41MOL   C17717057   1.435   5.370   7.073 -0.0463 -0.8718 -0.7720
   41MOL   C17817058   1.424   5.514   7.133  0.3632 -0.4451  0.4534
   41MOL   H17917059   2.039   5.043   6.862  1.1718 -1.6648  0.5367
   41MOL   H18017060   1.914   5.104   6.968 -1.5657 -0.9352  0.6862
   41MOL   H18117061   1.841   4.939   6.716  1.8985 -0.3244  0.4710
   41MOL   H18217062   1.534   5.115   6.996  0.2630  0.6613  0.2265
   41MOL   H18317063   1.471   5.192   6.850  0.2949  0.2653  0.7979
   41MOL   H18417064   1.645   5.321   7.063  0.2966 -0.4370 -0.7147
   41MOL   H18517065   1.582   5.421   6.928  1.1161  0.7616 -0.1617
   41MOL   H18617066   1.430   5.291   7.147  0.7485 -0.8192 -0.6567
   41MOL   H18717067   1.355   5.346   7.003 -0.9704 -1.0130  0.3250
   41MOL   H18817068   1.383   5.582   7.059 -0.3409 -1.2266  0.1120
   41MOL   H18917069   1.520   5.546   7.174 -1.1306  1.9768  2.1593
   41MOL   H19017070   1.360   5.493   7.218 -0.9333  1.0850 -0.1177
   41MOL   C19117071   1.896   5.148   6.685  0.0707  0.6904 -0.1302
   41MOL   C19217072   1.818   5.185   6.554 -0.3489 -0.0816  1.0210
   41MOL   C19317073   1.733   5.308   6.566  0.1280  0.0046  0.1027
   41MOL   O19417074   1.770   5.414   6.624  0.2147  0.8970 -0.5093
   41MOL   O19517075   1.614   5.288   6.511  0.2893  0.1395 -0.0893
   41MOL   C19617076   1.514   5.396   6.507  0.1057 -0.2613 -1.3604
   41MOL   C19717077   1.411   5.367   6.404  1.0259 -0.3162  0.4228
   41MOL   C19817078   1.463   5.367   6.262  0.5955 -0.2238  0.0594
   41MOL   C19917079   1.353   5.366   6.151 -0.6338  0.0895  0.3386
   41MOL   H20017080   1.999   5.130   6.654 -0.2361  1.7928 -1.8453
   41MOL   H20117081   1.911   5.238   6.744 -0.1010 -0.2213  1.3503
   41MOL   H20217082   1.737   5.112   6.551 -2.0287  1.7402  0.8985
   41MOL   H20317083   1.565   5.491   6.496 -0.0883  0.0090 -0.0376
   41MOL   H20417084   1.468   5.400   6.606 -0.7024 -1.1807 -1.6921
   41MOL   H20517085   1.366   5.271   6.430  0.8613 -0.2754  0.2976
   41MOL   H20617086   1.331   5.439   6.422  0.2150 -0.8424 -0.9220
   41MOL   H20717087   1.534   5.286   6.248  0.1991 -0.6309  0.3956
   41MOL   H20817088   1.508   5.466   6.256 -1.0557  0.6565  1.5838
   41MOL   H20917089   1.258   5.396   6.195  0.2256  0.2717  2.1024
   41MOL   H21017090   1.340   5.266   6.109 -1.5565 -0.6958  2.4646
   41MOL   H21117091   1.383   5.436   6.073  1.4238 -0.3260  0.7187
   41MOL   C21217092   1.894   5.176   6.419  0.1706 -0.5302 -0.6258
   41MOL   C21317093   1.821   5.131   6.291  0.1894  0.3949 -0.9365
   41MOL   C21417094   1.886   5.202   6.172  0.4940  0.2065  0.0225
   41MOL   O21517095   1.987   5.269   6.184 -0.7105  0.2630  0.3947
   41MOL   O21617096   1.820   5.183   6.055 -0.5844 -0.3288  0.0788
   41MOL   C21717097   1.872   5.249   5.939 -0.5466  0.7730  0.3442
   41MOL   C21817098   1.942   5.143   5.853 -0.0546 -0.1760 -0.1301
   41MOL   C21917099   1.848   5.038   5.788  0.3934 -0.1064  0.3465
   41MOL   C22017100   1.901   4.931   5.701 -0.4484 -0.3482 -0.1377
   41MOL   H22117101   1.981   5.115   6.441  0.5419 -0.4769 -1.9376
   41MOL   H22217102   1.932   5.278   6.409  2.7116 -1.4363 -0.5030
   41MOL   H22317103   1.723   5.180   6.291  1.0706  2.2309  0.6461
   41MOL   H22417104   1.939   5.330   5.965  0.9994 -0.7367  1.1670
   41MOL   H22517105   1.792   5.294   5.880 -0.2496  0.4134 -0.3287
   41MOL   H22617106   2.020   5.179   5.786 -0.3511  0.7450  0.0228
   41MOL   H22717107   1.998   5.083   5.925  1.7249  0.8490 -0.6106
   41MOL   H22817108   1.765   5.092   5.742  0.1112  0.1539  1.1330
   41MOL   H22917109   1.799   4.989   5.872 -2.2681  3.2247  0.8511
   41MOL   H23017110   1.990   4.887   5.745  0.4869 -0.1019 -1.7676
   41MOL   H23117111   1.927   4.965   5.601 -0.5016 -0.4412 -0.1841
   41MOL   H23217112   1.844   4.839   5.689 -3.1896  0.9874  1.9326
   41MOL   C23317113   1.807   4.978   6.266 -0.5135 -0.1171  0.3036
   41MOL   C23417114   1.720   4.907   6.374 -0.2346 -0.3763 -0.3980
   41MOL   C23517115   1.569   4.935   6.375  0.3342  0.1932  0.0064
   41MOL   O23617116   1.506   4.978   6.273  0.1398  0.1159 -0.6712
   41MOL   O23717117   1.510   4.903   6.488  0.1956 -0.1909 -0.1661
   41MOL   C23817118   1.377   4.950   6.499  0.4274  0.5297  0.2473
   41MOL   C23917119   1.270   4.843   6.492  0.3215  0.5255  0.6842
   41MOL   C24017120   1.249   4.777   6.349  0.1963  0.0615 -0.0064
   41MOL   C24117121   1.140   4.671   6.349 -0.3648 -0.2476  0.3645
   41MOL   H24217122   1.906   4.934   6.260 -0.3728  0.5469 -2.7873
   41MOL   H24317123   1.748   4.974   6.174  0.2320 -0.6353 -0.1532
   41MOL   H24417124   1.763   4.919   6.473 -1.0126  1.2692 -0.2424
   41MOL   H24517125   1.345   5.025   6.427  1.6035 -0.4104 -1.2930
   41MOL   H24617126   1.378   5.006   6.593 -3.6303  3.0602 -1.0973
   41MOL   H24717127   1.290   4.762   6.562 -2.9868 -0.8381  0.1529
   41MOL   H24817128   1.170   4.882   6.514  0.9349  1.9352  1.0294
   41MOL   H24917129   1.348   4.740   6.326 -0.1305 -1.3578  0.7976
   41MOL   H25017130   1.224   4.853   6.274  0.3519  0.6517  0.5341
   41MOL   H25117131   1.039   4.712   6.355 -0.0109  1.2310 -2.6012
   41MOL   H25217132   1.146   4.592   6.424  1.9070 -1.1508 -0.7251
   41MOL   H25317133   1.131   4.629   6.249 -4.5763  1.3500 -0.0337
   41MOL   C25417134   1.731   4.759   6.359  0.2552  0.0907  0.2624
   41MOL   C25517135   1.871   4.693   6.370 -0.4839 -0.0472  0.7050
   41MOL   C25617136   1.946   4.712   6.505 -0.0802 -0.2336  0.4684
   41MOL   O25717137   1.900   4.660   6.606 -0.1360 -0.2617 -0.1390
   41MOL   O25817138   2.050   4.790   6.498 -0.2034  0.4010 -0.7048
   41MOL   C25917139   2.130   4.799   6.613  0.4342 -0.3102 -0.3208
   41MOL   C26017140   2.242   4.905   6.599  0.8475  0.1856 -0.3413
   41MOL   C26117141   2.361   4.857   6.511 -0.4537 -0.1094 -0.4157
   41MOL   C26217142   2.497   4.932   6.535  0.2303 -0.5674  0.1968
   41MOL   H26317143   1.696   4.748   6.256 -1.3660  1.2826  0.6667
   41MOL   H26417144   1.670   4.695   6.422  1.5612 -0.1904  1.2847
   41MOL   H26517145   1.939   4.746   6.305 -0.8211  3.0267  2.7380
   41MOL   H26617146   2.166   4.698   6.632  1.6860  0.7211  3.3131
   41MOL   H26717147   2.063   4.820   6.696  1.9357  3.4868  0.0042
   41MOL   H26817148   2.204   4.998   6.558  0.6748  0.1969 -0.1539
   41MOL   H26917149   2.274   4.935   6.698 -0.9079  1.5143 -0.1557
   41MOL   H27017150   2.338   4.866   6.405 -0.6368 -0.7500 -0.4317
   41MOL   H27117151   2.370   4.753   6.542 -1.6417 -0.3875 -0.9598
   41MOL   H27217152   2.570   4.887   6.468 -3.3142 -1.4871 -3.2466
   41MOL   H27317153   2.528   4.933   6.640  0.4289 -0.5641  0.1373
   41MOL   H27417154   2.478   5.038   6.520 -2.3139 -0.9543  0.5353
   41MOL   C27517155   1.874   4.540   6.340 -0.2495 -0.2996 -0.8610
   41MOL   C27617156   2.007   4.506   6.281  0.3497  0.2003 -0.6297
   41MOL   C27717157   2.075   4.398   6.361  0.3928 -1.1251 -0.0840
   41MOL   O27817158   2.154   4.423   6.452 -0.2775 -0.4741 -0.0038
   41MOL   O27917159   2.050   4.283   6.313 -0.7931 -0.0097  0.7118
   41MOL   C28017160   2.083   4.168   6.392  0.2510  0.2529 -0.2956
   41MOL   C28117161   1.955   4.093   6.418  0.1204  0.4847  0.1514
   41MOL   C28217162   1.950   3.970   6.511 -0.8685 -1.0838  0.1418
   41MOL   C28317163   1.830   3.886   6.472  0.4567 -0.4884  0.1762
   41MOL   H28417164   1.803   4.514   6.261 -1.6730 -1.2681  0.7020
   41MOL   H28517165   1.844   4.480   6.426 -0.4418  0.9511 -0.0363
   41MOL   H28617166   2.065   4.592   6.313  1.4791 -1.6523  2.5945
   41MOL   H28717167   2.134   4.196   6.484  0.2086  0.1408 -0.2385
   41MOL   H28817168   2.151   4.098   6.344  0.6617 -0.1698  0.8929
   41MOL   H28917169   1.880   4.169   6.443 -0.0186  1.4284 -2.9815
   41MOL   H29017170   1.918   4.064   6.320 -2.5357  1.5067  0.7933
   41MOL   H29117171   1.961   3.996   6.617 -0.1186 -0.2746 -0.1236
   41MOL   H29217172   2.035   3.908   6.481 -0.5507 -0.8094  0.4529
   41MOL   H29317173   1.742   3.949   6.481  0.7033  0.1700 -1.7602
   41MOL   H29417174   1.806   3.804   6.539 -0.4616 -0.0618  0.3766
   41MOL   H29517175   1.829   3.844   6.372  0.7443  0.4373 -0.2219
   41MOL   C29617176   1.992   4.477   6.126  0.8797  0.7595  0.1299
   41MOL   C29717177   1.980   4.600   6.036 -0.0898 -0.1661 -0.7167
   41MOL   C29817178   2.108   4.684   6.062 -1.3607  0.3193 -0.7622
   41MOL   O29917179   2.101   4.804   6.082 -0.9773 -0.5420  0.0117
   41MOL   O30017180   2.223   4.612   6.036 -0.5929  0.2271  0.1917
   41MOL   C30117181   2.346   4.676   6.048  0.3621 -0.6464  0.0615
   41MOL   C30217182   2.405   4.612   6.177 -0.4448 -0.2448  0.4053
   41MOL   C30317183   2.540   4.677   6.210 -0.1145  0.2023  0.2812
   41MOL   C30417184   2.606   4.626   6.336  0.2721 -0.3357 -0.0949
   41MOL   H30517185   1.915   4.401   6.118  0.6907  0.7371  1.8546
   41MOL   H30617186   2.080   4.418   6.099  0.2510 -1.4836  2.8078
   41MOL   H30717187   1.897   4.661   6.070 -0.3827 -0.9705  0.0166
   41MOL   H30817188   2.338   4.785   6.059  2.1193 -0.2703 -2.0595
   41MOL   H30917189   2.413   4.662   5.964 -0.2113  0.3432 -0.5782
   41MOL   H31017190   2.336   4.625   6.261 -1.7814  1.1757 -0.8748
   41MOL   H31117191   2.415   4.504   6.171 -1.6945 -0.3080 -0.9133
   41MOL   H31217192   2.544   4.786   6.208  1.8835  0.1519  0.8475
   41MOL   H31317193   2.596   4.660   6.118 -1.8660 -1.4394 -0.5255
   41MOL   H31417194   2.661   4.532   6.328  1.0066  0.0246  0.6231
   41MOL   H31517195   2.527   4.623   6.412 -1.5536  1.4045 -1.8434
   41MOL   H31617196   2.676   4.697   6.380  0.3853 -0.2917 -0.3461
   41MOL   C31717197   1.979   4.559   5.890  0.5583 -0.1908  0.0918
   41MOL   C31817198   1.847   4.481   5.848  0.1541 -0.3003 -0.4747
   41MOL   C31917199   1.780   4.547   5.730  0.1832  0.0868  0.0941
   41MOL   O32017200   1.663   4.574   5.724  0.6910 -0.4955  0.1128
   41MOL   O32117201   1.866   4.571   5.631 -0.6625  0.8787  0.3511
   41MOL   C32217202   1.830   4.617   5.498  0.2475 -0.1119 -0.3058
   41MOL   C32317203   1.827   4.503   5.397 -0.2336 -0.0733 -0.7120
   41MOL   C32417204   1.971   4.447   5.377  0.4654 -0.0047  0.1899
   41MOL   C32517205   2.079   4.528   5.300  0.5895  0.0299  0.1749
   41MOL   H32617206   2.063   4.492   5.870  0.0502 -0.3487 -1.6508
   41MOL   H32717207   1.998   4.646   5.828  0.3811  1.2926  2.0834
   41MOL   H32817208   1.762   4.500   5.915  0.9475  1.3218  0.0872
   41MOL   H32917209   1.900   4.695   5.471  0.8222  0.1981  1.9433
   41MOL   H33017210   1.736   4.669   5.515  0.2224  0.0095 -0.8292
   41MOL   H33117211   1.772   4.420   5.441  0.5153 -0.5806 -0.7423
   41MOL   H33217212   1.793   4.526   5.296 -3.0045  1.3521  0.4687
   41MOL   H33317213   1.958   4.359   5.315  0.6399 -0.2846  0.5487
   41MOL   H33417214   2.013   4.426   5.475  2.2663  1.0824 -0.3080
   41MOL   H33517215   2.094   4.625   5.348 -2.6387 -0.1233  1.6551
   41MOL   H33617216   2.053   4.532   5.194  1.3597 -0.0523 -0.0145
   41MOL   H33717217   2.175   4.478   5.298  0.4297 -0.2277 -1.3947
   41MOL   C33817218   1.860   4.329   5.829 -0.0112 -0.2822  0.1788
   41MOL   C33917219   1.721   4.260   5.794  0.0491 -0.1927  0.3926
   41MOL   C34017220   1.744   4.121   5.732 -0.7416  0.5798 -0.5438
   41MOL   O34117221   1.730   4.020   5.799 -0.0985 -0.0270 -0.1979
   41MOL   O34217222   1.787   4.124   5.602 -0.8415 -0.0424 -0.8805
   41MOL   C34317223   1.819   4.003   5.541  0.5717  0.2712 -0.0549
   41MOL   C34417224   1.694   3.982   5.453 -0.0234 -0.1663  0.1042
   41MOL   C34517225   1.730   3.877   5.343  0.2577 -0.5708 -0.2648
   41MOL   C34617226   1.698   3.732   5.399  0.7637  0.0824  0.0026
   41MOL   H34717227   1.896   4.281   5.920  2.4522 -2.0042 -1.6378
   41MOL   H34817228   1.934   4.319   5.750 -1.9638  0.0058 -1.7357
   41MOL   H34917229   1.668   4.317   5.718  0.7662 -0.7115 -0.5010
   41MOL   H35017230   1.831   3.916   5.605 -0.4963 -1.5631 -2.2903
   41MOL   H35117231   1.904   4.025   5.476 -0.2938  2.7731 -0.4271
   41MOL   H35217232   1.598   3.963   5.501 -0.0540 -1.8266 -0.5911
   41MOL   H35317233   1.678   4.076   5.401  0.9452 -0.0142  0.0705
   41MOL   H35417234   1.837   3.888   5.328 -0.0166  0.9884 -1.2239
   41MOL   H35517235   1.689   3.891   5.243  0.7505  2.2162 -0.1061
   41MOL   H35617236   1.592   3.709   5.401  1.3296 -3.3090 -3.6126
   41MOL   H35717237   1.744   3.715   5.496  1.4729 -1.4884 -0.5919
   41MOL   H35817238   1.737   3.655   5.332  1.0905  0.3958 -0.1697
   41MOL   C35917239   1.617   4.253   5.911 -0.1491  0.0179 -0.5478
   41MOL   C36017240   1.475   4.296   5.885  0.1755  0.0460 -0.0484
   41MOL   C36117241   1.410   4.212   5.773 -0.4660  0.2442  0.5220
   41MOL   O36217242   1.376   4.264   5.663 -0.0698 -0.5395  0.0962
   41MOL   O36317243   1.398   4.082   5.803  0.3058 -0.0741 -0.0150
   41MOL   C36417244   1.353   3.987   5.714  0.3030  0.0159 -0.1911
   41MOL   C36517245   1.312   3.861   5.799 -0.7827 -0.4485 -0.5271
   41MOL   C36617246   1.254   3.755   5.712  0.2589  0.0627  0.1172
   41MOL   C36717247   1.346   3.689   5.610 -0.6721 -0.2449 -0.2100
   41MOL   H36817248   1.663   4.310   5.992 -0.1516 -2.5397  1.3282
   41MOL   H36917249   1.608   4.153   5.952  2.0547  0.5919  1.4880
   41MOL   H37017250   1.467   4.397   5.845 -1.7985  0.4004  1.1588
   41MOL   H37117251   1.437   3.973   5.646  1.3818 -0.0170  1.1437
   41MOL   H37217252   1.276   4.035   5.652 -1.8431 -0.2618  2.1902
   41MOL   H37317253   1.396   3.822   5.857 -1.3947 -1.8221 -0.5456
   41MOL   H37417254   1.229   3.891   5.863 -0.4610 -1.4262  0.3775
   41MOL   H37517255   1.176   3.802   5.653  0.3343  0.8259  0.6309
   41MOL   H37617256   1.207   3.689   5.785  1.0093  0.4567  0.9606
   41MOL   H37717257   1.307   3.594   5.574 -2.3599  0.0880  0.7025
   41MOL   H37817258   1.447   3.670   5.646 -0.7831  0.2336  0.3431
   41MOL   H37917259   1.364   3.749   5.521  0.5677 -0.0011  0.1864
   41MOL   C38017260   1.376   4.295   6.001  0.8327 -0.3626 -0.6913
   41MOL   C38117261   1.419   4.372   6.130 -0.5212  0.2767  0.1681
   41MOL   C38217262   1.470   4.517   6.110  0.3569  0.4607 -0.0447
   41MOL   O38317263   1.579   4.546   6.154 -0.0580 -0.1164  0.1594
   41MOL   O38417264   1.385   4.604   6.051  0.2320  0.3031 -0.5801
   41MOL   C38517265   1.422   4.740   6.042 -0.4522 -0.1668  0.2365
   41MOL   C38617266   1.340   4.800   5.932 -0.5083  0.3986 -0.1993
   41MOL   C38717267   1.379   4.944   5.898 -0.0656  0.3089 -0.1645
   41MOL   C38817268   1.512   4.957   5.817  0.1489 -0.2292  0.0577
   41MOL   H38917269   1.355   4.193   6.032  1.7752 -0.2758  0.3080
   41MOL   H39017270   1.282   4.338   5.968  0.8595 -0.1600 -0.5063
   41MOL   H39117271   1.506   4.316   6.164  1.1792  1.9665 -1.2453
   41MOL   H39217272   1.527   4.737   6.013 -1.0644 -1.2257 -1.9457
   41MOL   H39317273   1.418   4.795   6.136 -1.1533  0.5579 -0.2215
   41MOL   H39417274   1.357   4.737   5.845 -2.3238 -0.5878  0.1322
   41MOL   H39517275   1.234   4.803   5.955 -0.6959  2.7947 -1.1891
   41MOL   H39617276   1.379   5.014   5.982  1.2190  0.3161 -0.1737
   41MOL   H39717277   1.298   4.984   5.836 -2.1045  0.1047  2.3003
   41MOL   H39817278   1.497   4.899   5.726 -0.4179  2.8472 -1.8834
   41MOL   H39917279   1.593   4.903   5.866  0.9535  0.6522 -0.3132
   41MOL   H40017280   1.529   5.061   5.790 -0.8982 -0.1631 -0.3852
   41MOL   C40117281   1.328   4.344   6.243  0.0850 -0.0729 -0.6830
   41MOL   C40217282   1.391   4.367   6.380 -0.9113  0.1567  0.4454
   41MOL   C40317283   1.482   4.258   6.449 -0.2629  0.4771 -0.0770
   41MOL   O40417284   1.596   4.238   6.419  0.5941  0.1860  0.2586
   41MOL   O40517285   1.418   4.205   6.539 -0.3135  0.6986  0.0292
   41MOL   C40617286   1.475   4.095   6.612  0.9400  0.0734 -0.3506
   41MOL   C40717287   1.367   4.028   6.708 -0.2101  0.0409 -0.1966
   41MOL   C40817288   1.415   3.904   6.789  0.3844 -1.2425 -0.4188
   41MOL   C40917289   1.305   3.837   6.880 -0.2123 -0.6359 -0.7563
   41MOL   H41017290   1.304   4.239   6.228 -0.9476  0.0490  0.0616
   41MOL   H41117291   1.239   4.404   6.227  0.5878  0.0657 -3.1647
   41MOL   H41217292   1.317   4.393   6.455 -0.0636  2.9367  0.3616
   41MOL   H41317293   1.566   4.121   6.667  1.6143 -0.2016 -1.3327
   41MOL   H41417294   1.503   4.026   6.533 -0.7367 -1.7848  0.6442
   41MOL   H41517295   1.337   4.104   6.779  0.5195 -1.5506  1.8520
   41MOL   H41617296   1.284   4.008   6.640  0.5765 -0.2566 -1.0948
   41MOL   H41717297   1.494   3.943   6.853 -0.4282 -2.3580  1.2819
   41MOL   H41817298   1.463   3.830   6.726 -0.5752 -1.9262 -0.3679
   41MOL   H41917299   1.241   3.765   6.829  0.2699 -2.0916  0.6470
   41MOL   H42017300   1.242   3.910   6.930  1.1203 -0.3516  0.5483
   41MOL   H42117301   1.356   3.790   6.964 -0.3594  2.5326  1.2071
   41MOL   H42217302   1.453   4.456   6.377  0.6171 -0.8593  0.9496
   42MOL     C117303   4.294   7.807   6.517  0.3180  0.2550 -0.0873
   42MOL     C217304   4.318   0.092   6.467 -0.4995  0.3711  0.3998
   42MOL     C317305   4.346   0.182   6.580  0.5683 -0.5759  0.7098
   42MOL     O417306   4.294   0.295   6.576 -0.2301  0.1254 -0.1838
   42MOL     O517307   4.431   0.135   6.670 -0.2514  0.0445 -0.6731
   42MOL     C617308   4.469   0.207   6.792  0.3556 -0.8628 -0.1912
   42MOL     C717309   4.424   0.117   6.908 -0.0258  0.4992 -0.0409
   42MOL     C817310   4.514   0.000   6.919 -0.1504  0.1510  0.7381
   42MOL     C917311   4.480   7.768   7.043 -0.0273  0.3217 -0.4048
   42MOL    H1017312   4.374   7.742   6.481 -1.0242 -1.3010 -0.3202
   42MOL    H1117313   4.275   7.792   6.623  1.7604 -0.3129  0.1118
   42MOL    H1217314   4.222   0.119   6.421  0.7904  0.6821 -2.2328
   42MOL    H1317315   4.439   0.310   6.809  1.6031 -0.6113  0.5138
   42MOL    H1417316   4.576   0.219   6.780  0.1547 -0.5713 -1.7480
   42MOL    H1517317   4.427   0.164   7.006 -0.2271 -0.4825  0.4429
   42MOL    H1617318   4.320   0.088   6.894  0.0731 -1.1056  2.3221
   42MOL    H1717319   4.611   0.046   6.935  0.3801 -0.4022 -0.7598
   42MOL    H1817320   4.520   7.789   6.830 -0.7417  0.9152  0.1394
   42MOL    H1917321   4.389   7.709   7.032 -0.1528  0.7139 -1.6153
   42MOL    H2017322   4.462   7.830   7.130  0.2862  1.5251 -1.1848
   42MOL    H2117323   4.561   7.696   7.055  0.4954  1.0050  0.1937
   42MOL    H2217324   4.199   7.767   6.481  0.0733 -0.1899  1.0431
   42MOL    C2317325   4.435   0.085   6.356  0.7190 -0.3619 -0.1110
   42MOL    C2417326   4.479   0.216   6.295 -0.1649 -0.0434  0.6873
   42MOL    C2517327   4.620   0.199   6.238  0.0939 -0.7216  0.0678
   42MOL    O2617328   4.634   0.195   6.121  0.3334  0.2535 -0.1698
   42MOL    O2717329   4.720   0.188   6.323 -0.1265  0.4774 -0.5976
   42MOL    C2817330   4.857   0.167   6.284  0.3158 -0.8561 -0.6126
   42MOL    C2917331   4.919   0.056   6.377 -0.1054  0.3485  0.1066
   42MOL    C3017332   4.874   7.776   6.327  0.1363 -0.2114  0.1953
   42MOL    C3117333   4.891   7.653   6.412 -0.1876 -0.5904 -0.2533
   42MOL    H3217334   4.385   0.028   6.277  2.5168 -2.6343  0.3581
   42MOL    H3317335   4.515   0.015   6.377 -0.3073 -0.5436  3.5269
   42MOL    H3417336   4.488   0.286   6.378 -0.7875 -1.2850  1.8246
   42MOL    H3517337   4.911   0.257   6.314 -1.0882 -0.5601  1.0346
   42MOL    H3617338   4.864   0.145   6.177 -0.8484 -0.8839 -0.6889
   42MOL    H3717339   5.027   0.066   6.362 -0.1971  0.1190 -0.7418
   42MOL    H3817340   4.895   0.069   6.483 -2.3809 -1.4963 -0.1384
   42MOL    H3917341   4.929   7.757   6.235  2.2073 -0.6302  1.4924
   42MOL    H4017342   4.770   7.775   6.294 -0.0347 -1.5851  0.7680
   42MOL    H4117343   4.841   7.672   6.507  1.6642  1.4343  0.3437
   42MOL    H4217344   4.993   7.637   6.448 -0.0740 -2.1449 -1.1941
   42MOL    H4317345   4.852   7.560   6.371  0.5001 -0.3375 -1.5129
   42MOL    C4417346   4.378   0.278   6.194  0.0566 -0.3612 -0.1242
   42MOL    C4517347   4.410   0.415   6.125  0.2232 -0.0689 -0.2244
   42MOL    C4617348   4.307   0.437   6.013  1.0498  0.3992 -0.4298
   42MOL    O4717349   4.207   0.374   5.997  0.5192  0.0084  0.2600
   42MOL    O4817350   4.346   0.532   5.927 -0.7723  0.1381  0.4597
   42MOL    C4917351   4.270   0.574   5.811  0.0797 -0.3979  0.3694
   42MOL    C5017352   4.166   0.676   5.848  0.4443  0.4026  0.2433
   42MOL    C5117353   4.218   0.803   5.922 -0.4821  0.3042  0.3889
   42MOL    C5217354   4.107   0.912   5.950 -0.0370  0.4456  0.6869
   42MOL    H5317355   4.278   0.289   6.235  0.2203 -0.9829  0.4486
   42MOL    H5417356   4.365   0.205   6.114  0.0067 -0.7046  0.1942
   42MOL    H5517357   4.507   0.415   6.076  0.1121 -1.9667 -0.4795
   42MOL    H5617358   4.229   0.482   5.768 -0.6396  0.4621 -0.8137
   42MOL    H5717359   4.333   0.607   5.729 -0.4885  1.5075  0.6676
   42MOL    H5817360   4.110   0.701   5.758  1.1840 -2.0119 -0.9302
   42MOL    H5917361   4.100   0.636   5.925  0.4308  2.2563  1.2372
   42MOL    H6017362   4.284   0.859   5.855 -1.3577 -1.7734 -2.3045
   42MOL    H6117363   4.281   0.787   6.010  0.1665  0.3241 -0.0694
   42MOL    H6217364   4.150   1.004   5.989 -0.0749  0.0967  1.5532
   42MOL    H6317365   4.048   0.880   6.036  1.6256  0.4138  1.8392
   42MOL    H6417366   4.048   0.929   5.860 -1.3273 -0.2374  1.3800
   42MOL    C6517367   4.403   0.525   6.227 -0.0954  0.0542 -0.5284
   42MOL    C6617368   4.522   0.622   6.214  0.3728 -0.2277  0.1364
   42MOL    C6717369   4.507   0.727   6.332  0.2148  0.8904  0.3535
   42MOL    O6817370   4.501   0.695   6.452  0.1343 -0.4492  0.2028
   42MOL    O6917371   4.511   0.857   6.281 -0.2132  0.4241  0.0952
   42MOL    C7017372   4.493   0.966   6.363 -0.0092 -0.1383  0.4325
   42MOL    C7117373   4.476   1.098   6.283 -0.0081  0.5796 -0.2631
   42MOL    C7217374   4.357   1.093   6.183 -0.5433 -0.6078 -0.3581
   42MOL    C7317375   4.308   1.239   6.146 -0.4308 -0.1229  0.3352
   42MOL    H7417376   4.403   0.478   6.325  2.9936  3.2163  1.0762
   42MOL    H7517377   4.305   0.573   6.221 -0.6608 -1.0097  0.0098
   42MOL    H7617378   4.518   0.680   6.122  0.9922 -0.8819 -0.3033
   42MOL    H7717379   4.577   0.970   6.433  0.9395  0.0540 -0.6865
   42MOL    H7817380   4.408   0.954   6.430  1.1864  1.0202  2.2248
   42MOL    H7917381   4.458   1.177   6.355 -2.5556  0.0440 -0.2706
   42MOL    H8017382   4.573   1.112   6.234 -0.8067 -2.4048 -2.8544
   42MOL    H8117383   4.266   1.048   6.222 -2.1423  1.7696 -1.2175
   42MOL    H8217384   4.378   1.025   6.101 -0.7814 -0.1801 -0.7799
   42MOL    H8317385   4.221   1.235   6.080 -1.4126  2.2687  1.4240
   42MOL    H8417386   4.386   1.304   6.105 -1.0572 -0.1931 -1.0095
   42MOL    H8517387   4.277   1.295   6.234  2.4002  2.5785 -0.3074
   42MOL    C8617388   4.669   0.567   6.215 -0.6245 -0.0911 -0.3169
   42MOL    C8717389   4.775   0.664   6.162 -0.5101 -0.8548  0.1498
   42MOL    C8817390   4.905   0.609   6.225  0.1389  0.5591 -0.6464
   42MOL    O8917391   4.918   0.489   6.240  0.3216  0.4238 -0.5826
   42MOL    O9017392   5.011   0.697   6.221  0.2345 -0.4734  0.5488
   42MOL    C9117393   5.146   0.654   6.242  0.1148  0.5195 -0.1100
   42MOL    C9217394   5.208   0.728   6.357 -0.0966  0.4993  0.7766
   42MOL    C9317395   5.348   0.667   6.378  0.1220  0.2253 -0.3389
   42MOL    C9417396   5.410   0.692   6.512  0.5478 -0.4134 -0.1993
   42MOL    H9517397   4.672   0.471   6.163 -2.8496  0.2049 -1.0470
   42MOL    H9617398   4.690   0.554   6.321 -3.0928  1.4741  0.4097
   42MOL    H9717399   4.773   0.763   6.208 -2.2748  0.2342 -2.1800
   42MOL    H9817400   5.203   0.678   6.152  1.6460  1.0113  0.9758
   42MOL    H9917401   5.161   0.546   6.249 -1.8941  0.2995  1.2739
   42MOL   H10017402   5.219   0.836   6.346  2.1454  0.2315  0.1577
   42MOL   H10117403   5.144   0.715   6.444  0.1241 -2.6910  0.4988
   42MOL   H10217404   5.423   0.686   6.302  0.9499  0.0216  0.4264
   42MOL   H10317405   5.339   0.559   6.381  0.6612  0.2095  1.2405
   42MOL   H10417406   5.355   0.652   6.598 -0.8179  0.8151 -0.4893
   42MOL   H10517407   5.418   0.800   6.523 -1.8200 -0.3943  1.9085
   42MOL   H10617408   5.510   0.649   6.514  0.8817  0.3855  0.6618
   42MOL   C10717409   4.766   0.700   6.015 -0.1325 -0.2855  0.2736
   42MOL   C10817410   4.686   0.829   5.985 -0.0669 -0.1934  0.3088
   42MOL   C10917411   4.768   0.958   6.001 -0.2718  0.2751  0.0665
   42MOL   O11017412   4.886   0.961   6.031 -0.2422 -0.1751 -0.0522
   42MOL   O11117413   4.695   1.066   5.990  0.8281  0.1778 -0.3971
   42MOL   C11217414   4.762   1.190   6.016 -0.7048  0.1308 -0.2935
   42MOL   C11317415   4.683   1.313   5.958 -0.3455 -0.4953  0.2205
   42MOL   C11417416   4.746   1.452   5.971 -0.2584  0.0367 -0.5108
   42MOL   C11517417   4.657   1.562   5.914  0.4139 -0.2859 -0.7132
   42MOL   H11617418   4.732   0.606   5.972 -2.0515  0.1996  0.6947
   42MOL   H11717419   4.867   0.711   5.977  0.0204  0.2470  0.8235
   42MOL   H11817420   4.612   0.846   6.063  1.4372  2.3216  1.2492
   42MOL   H11917421   4.859   1.178   5.969 -1.6781 -0.3005 -2.2490
   42MOL   H12017422   4.782   1.202   6.122 -1.0963  1.4028 -0.3514
   42MOL   H12117423   4.667   1.305   5.850  1.8054 -0.2685 -0.1278
   42MOL   H12217424   4.584   1.315   6.005 -0.2681  2.3843  0.3230
   42MOL   H12317425   4.837   1.454   5.912  0.2558 -0.1558  0.2781
   42MOL   H12417426   4.757   1.476   6.077 -0.8848 -3.2479  0.3532
   42MOL   H12517427   4.647   1.539   5.808  1.9025 -2.3433 -0.4396
   42MOL   H12617428   4.706   1.658   5.929 -0.7425  0.0419  1.1600
   42MOL   H12717429   4.563   1.573   5.968 -0.9972 -3.3115 -2.4285
   42MOL   C12817430   4.607   0.815   5.849 -0.1328 -0.2347 -0.2258
   42MOL   C12917431   4.677   0.804   5.710 -0.2951  1.1633  0.5270
   42MOL   C13017432   4.764   0.673   5.703  0.1652  1.0566 -0.8911
   42MOL   O13117433   4.880   0.675   5.670 -0.2279 -0.1995 -0.2291
   42MOL   O13217434   4.695   0.561   5.734 -0.1203  0.1649  0.1838
   42MOL   C13317435   4.760   0.436   5.739  0.4682  0.2505  0.3789
   42MOL   C13417436   4.691   0.323   5.817 -0.6336 -0.4981 -0.1469
   42MOL   C13517437   4.764   0.186   5.802  0.1354  0.7338  0.1943
   42MOL   C13617438   4.909   0.180   5.858  0.0010 -0.4196  0.0039
   42MOL   H13717439   4.533   0.893   5.837 -1.4334 -1.4435 -0.2189
   42MOL   H13817440   4.551   0.723   5.868 -3.5307  1.9708  0.8595
   42MOL   H13917441   4.745   0.889   5.706  2.6488 -1.0202  1.9228
   42MOL   H14017442   4.865   0.437   5.769 -0.1180  0.5580  2.5298
   42MOL   H14117443   4.765   0.400   5.636  0.1405  0.3911  0.3131
   42MOL   H14217444   4.678   0.348   5.922  1.4934  0.4680 -0.0837
   42MOL   H14317445   4.598   0.324   5.761  0.8394  1.1083 -2.6694
   42MOL   H14417446   4.758   0.158   5.697 -1.2139  0.0647  0.4299
   42MOL   H14517447   4.710   0.108   5.857  0.2500  1.0225  0.7224
   42MOL   H14617448   4.971   0.269   5.843 -0.8233  0.4011  1.3780
   42MOL   H14717449   4.950   0.089   5.815 -2.4136 -0.6474 -1.9302
   42MOL   H14817450   4.910   0.169   5.966 -0.9942  0.6407  0.1235
   42MOL   C14917451   4.574   0.830   5.588  0.2021 -0.8237 -0.3934
   42MOL   C15017452   4.506   0.966   5.563 -0.5116 -0.1893 -0.3359
   42MOL   C15117453   4.601   1.079   5.561 -0.8219 -0.2216  0.3466
   42MOL   O15217454   4.595   1.167   5.648 -0.0650 -0.0951 -0.2967
   42MOL   O15317455   4.679   1.085   5.450  0.3939  0.4912  0.1832
   42MOL   C15417456   4.782   1.180   5.442  0.2222  0.1823 -0.2984
   42MOL   C15517457   4.746   1.292   5.334 -0.3490  0.4085  0.4993
   42MOL   C15617458   4.643   1.392   5.375  0.0274  0.1596  0.3149
   42MOL   C15717459   4.675   1.495   5.489  0.0547 -0.3337  0.4656
   42MOL   H15817460   4.504   0.748   5.571 -0.2143 -1.5083  4.0801
   42MOL   H15917461   4.636   0.825   5.498  0.3628  0.0360 -0.3292
   42MOL   H16017462   4.431   0.975   5.642  0.5184 -2.7039  0.9898
   42MOL   H16117463   4.870   1.129   5.401  1.3878  1.5480  0.4598
   42MOL   H16217464   4.816   1.220   5.537 -0.9472 -0.8882  0.5805
   42MOL   H16317465   4.824   1.365   5.311 -1.6939  0.9280 -2.5912
   42MOL   H16417466   4.732   1.252   5.234  2.0425  0.1792  0.2153
   42MOL   H16517467   4.566   1.324   5.411  0.5981 -0.3969  0.4978
   42MOL   H16617468   4.601   1.435   5.284  0.1098  0.3598  0.3716
   42MOL   H16717469   4.769   1.547   5.469  0.2540 -1.1454 -0.7523
   42MOL   H16817470   4.692   1.438   5.581  1.1460  0.1294  0.5642
   42MOL   H16917471   4.594   1.566   5.500  0.4502 -0.0296  1.4769
   42MOL   C17017472   4.423   0.954   5.429  0.1025 -0.3553 -0.2847
   42MOL   C17117473   4.287   0.883   5.435  0.3512  0.3855  0.8310
   42MOL   C17217474   4.190   0.947   5.532  0.1411 -0.9395 -0.9104
   42MOL   O17317475   4.116   0.878   5.600 -1.0175 -0.3520 -0.4538
   42MOL   O17417476   4.202   1.081   5.532 -0.1197  0.2545 -0.4760
   42MOL   C17517477   4.132   1.153   5.628  0.4907 -0.4986  0.6351
   42MOL   C17617478   4.218   1.235   5.725  0.0706 -0.4232 -0.2297
   42MOL   C17717479   4.281   1.355   5.664  0.2273  0.2263  0.2400
   42MOL   C17817480   4.389   1.436   5.741  0.4046 -0.3603  0.3855
   42MOL   H17917481   4.484   0.901   5.356  0.7185 -2.2609  1.5771
   42MOL   H18017482   4.399   1.056   5.398  0.6272 -0.1649 -0.0528
   42MOL   H18117483   4.308   0.778   5.456  0.8658  0.3461  0.1201
   42MOL   H18217484   4.073   1.089   5.693  2.6939 -0.9388  2.2700
   42MOL   H18317485   4.058   1.221   5.586  1.5963  1.2509  1.4752
   42MOL   H18417486   4.165   1.262   5.816 -0.3154  0.1313 -0.6148
   42MOL   H18517487   4.298   1.170   5.760 -0.9229 -1.0602  0.8911
   42MOL   H18617488   4.195   1.415   5.635  0.2004  1.5158  2.8303
   42MOL   H18717489   4.324   1.320   5.571  0.8331 -0.1242  0.6468
   42MOL   H18817490   4.364   1.453   5.845 -2.3628 -2.5058  0.1415
   42MOL   H18917491   4.411   1.520   5.675 -0.1230 -0.0452  0.6033
   42MOL   H19017492   4.474   1.367   5.743  1.4143  0.8399 -0.4917
   42MOL   C19117493   4.227   0.863   5.293 -0.1320 -0.0041 -0.6895
   42MOL   C19217494   4.090   0.792   5.288  0.5092  0.5326  0.3121
   42MOL   C19317495   3.986   0.893   5.242  0.3303 -0.3696 -0.3990
   42MOL   O19417496   3.903   0.940   5.320 -0.1310  0.6421  0.1275
   42MOL   O19517497   3.992   0.921   5.110 -0.1947 -0.3035  0.1114
   42MOL   C19617498   3.896   1.002   5.043  0.6455 -0.1111  0.0808
   42MOL   C19717499   3.760   0.935   5.009  0.0880  0.1200  0.0483
   42MOL   C19817500   3.749   0.893   4.867  0.0750 -0.2485  0.5683
   42MOL   C19917501   3.607   0.842   4.842 -0.5430  0.6715 -0.2689
   42MOL   H20017502   4.297   0.808   5.231 -0.6321 -1.9077  0.4136
   42MOL   H20117503   4.227   0.967   5.259  0.7501 -0.2750 -1.5070
   42MOL   H20217504   4.059   0.756   5.386 -0.8499 -0.9534 -0.6445
   42MOL   H20317505   3.943   1.028   4.948 -1.2436 -1.2489 -1.1930
   42MOL   H20417506   3.880   1.095   5.096  1.5845  0.1568 -0.0938
   42MOL   H20517507   3.738   0.851   5.074 -3.0958  0.3542 -0.6545
   42MOL   H20617508   3.681   1.009   5.021  1.4041  1.6793 -0.6083
   42MOL   H20717509   3.829   0.823   4.840 -0.9058 -0.7876 -0.9903
   42MOL   H20817510   3.763   0.974   4.796  0.4922 -0.7943  0.0184
   42MOL   H20917511   3.589   0.848   4.735 -1.1407 -1.5248 -0.3164
   42MOL   H21017512   3.524   0.895   4.889 -0.9675 -0.3642  0.1787
   42MOL   H21117513   3.584   0.739   4.870 -2.2667  1.3799  1.0150
   42MOL   C21217514   4.092   0.657   5.200 -0.3010 -0.7185  0.3152
   42MOL   C21317515   4.188   0.541   5.238 -0.2438  0.0886  0.1409
   42MOL   C21417516   4.172   0.498   5.381  0.4727 -0.0392 -0.5312
   42MOL   O21517517   4.271   0.466   5.452  0.4040  0.0783  0.3101
   42MOL   O21617518   4.042   0.495   5.418 -0.1660 -0.1500  0.1144
   42MOL   C21717519   4.010   0.451   5.544  0.4444  0.0020  0.5252
   42MOL   C21817520   3.877   0.495   5.603  0.1756  0.0166  0.2818
   42MOL   C21917521   3.854   0.457   5.756  0.4596  0.9292  0.0003
   42MOL   C22017522   3.702   0.458   5.788  0.3559  0.0870 -0.2015
   42MOL   H22117523   4.097   0.691   5.096 -1.2953 -0.7951  0.2366
   42MOL   H22217524   3.993   0.613   5.213  0.2025 -1.9028  0.2012
   42MOL   H22317525   4.295   0.560   5.233  0.0211 -1.0153  1.3070
   42MOL   H22417526   4.089   0.465   5.618  1.3983 -2.1691 -0.0379
   42MOL   H22517527   3.995   0.343   5.539 -0.1260  0.1634 -1.6473
   42MOL   H22617528   3.858   0.601   5.588  0.7144  0.1522  0.5231
   42MOL   H22717529   3.808   0.436   5.543 -0.8154  1.1682  0.2817
   42MOL   H22817530   3.893   0.531   5.826 -1.2865  0.6951  1.2340
   42MOL   H22917531   3.896   0.364   5.793  1.4013  1.2790 -0.1629
   42MOL   H23017532   3.660   0.554   5.760  0.2929 -0.4471 -2.0728
   42MOL   H23117533   3.673   0.436   5.890  0.4874 -0.6976 -0.3239
   42MOL   H23217534   3.655   0.379   5.728 -0.6351  2.3399 -2.4871
   42MOL   C23317535   4.165   0.412   5.156 -0.0376 -0.8663  0.1437
   42MOL   C23417536   4.206   0.410   5.009  0.3420 -0.3188  0.2029
   42MOL   C23517537   4.357   0.413   4.984  0.3059 -0.2467 -0.1017
   42MOL   O23617538   4.423   0.332   4.914  0.1665  0.0963  0.2930
   42MOL   O23717539   4.418   0.522   5.038 -0.7296  0.0345  0.2355
   42MOL   C23817540   4.557   0.526   5.041 -0.1664  0.2309  0.0863
   42MOL   C23917541   4.596   0.591   5.171  0.2973 -0.2979  0.2390
   42MOL   C24017542   4.739   0.564   5.208  0.4073 -0.5828 -0.3541
   42MOL   C24117543   4.770   0.601   5.348 -0.6302 -0.3130 -0.5768
   42MOL   H24217544   4.058   0.396   5.174 -0.1564 -0.2927 -0.0246
   42MOL   H24317545   4.207   0.323   5.201  2.0205  0.4491  0.8769
   42MOL   H24417546   4.169   0.504   4.967  0.1219 -0.0289  1.0238
   42MOL   H24517547   4.608   0.578   4.960  0.2347  0.2287  0.3398
   42MOL   H24617548   4.604   0.428   5.035  1.5804  0.9066  2.2917
   42MOL   H24717549   4.579   0.698   5.164  2.3122 -0.1035 -2.8483
   42MOL   H24817550   4.527   0.556   5.248  0.5890 -1.7711 -0.1486
   42MOL   H24917551   4.800   0.621   5.138  1.8196  0.3966  1.6269
   42MOL   H25017552   4.762   0.458   5.194 -1.7711 -0.9081 -1.6383
   42MOL   H25117553   4.689   0.578   5.416 -0.4181 -1.1528 -0.6032
   42MOL   H25217554   4.804   0.702   5.372  1.3547 -0.9926 -0.3732
   42MOL   H25317555   4.861   0.551   5.381  1.8183  3.4919 -1.2493
   42MOL   C25417556   4.137   0.307   4.913 -0.6958 -0.6622 -0.3154
   42MOL   C25517557   3.996   0.252   4.944 -0.2196 -0.6950  0.1061
   42MOL   C25617558   3.896   0.361   4.922 -0.1887 -0.7967  0.2943
   42MOL   O25717559   3.868   0.394   4.807 -0.0877 -0.0482 -0.1955
   42MOL   O25817560   3.848   0.412   5.034 -0.1401 -0.3893 -0.1266
   42MOL   C25917561   3.793   0.545   5.033 -0.0207  0.0751 -0.1778
   42MOL   C26017562   3.664   0.559   5.120  0.5820 -0.0749  0.1563
   42MOL   C26117563   3.687   0.585   5.267  0.3819 -0.4984 -0.3386
   42MOL   C26217564   3.556   0.570   5.349  0.6394  0.8320 -0.5094
   42MOL   H26317565   4.198   0.217   4.911  1.4973  0.6530  3.0863
   42MOL   H26417566   4.146   0.340   4.810 -0.7367 -0.2909 -0.2006
   42MOL   H26517567   3.988   0.223   5.049 -1.3048 -1.4632 -0.1759
   42MOL   H26617568   3.767   0.567   4.930  1.6683  0.2849 -0.5774
   42MOL   H26717569   3.864   0.622   5.062  1.3895 -0.9092 -0.9109
   42MOL   H26817570   3.599   0.637   5.080 -1.5505 -1.5665  0.6356
   42MOL   H26917571   3.615   0.465   5.096  0.7786 -0.2108  0.2879
   42MOL   H27017572   3.729   0.684   5.284 -1.4628  0.2139  0.1927
   42MOL   H27117573   3.763   0.513   5.296  0.6818 -1.1992 -2.7837
   42MOL   H27217574   3.516   0.474   5.318 -0.0337  1.5593 -1.9591
   42MOL   H27317575   3.487   0.652   5.328  0.7725  0.0474 -4.2019
   42MOL   H27417576   3.578   0.567   5.456 -0.2162 -0.7649 -0.3550
   42MOL   C27517577   3.950   0.133   4.852 -0.0420 -0.6647 -0.2471
   42MOL   C27617578   4.047   0.010   4.853 -0.3570  0.0049 -0.8518
   42MOL   C27717579   4.063   7.811   4.998  0.1389 -0.0367  0.8442
   42MOL   O27817580   3.971   7.796   5.075 -0.3895 -0.4952 -0.1964
   42MOL   O27917581   4.190   7.803   5.031 -0.6474 -0.8047  0.5223
   42MOL   C28017582   4.227   7.781   5.165 -0.0241  0.0131  0.4924
   42MOL   C28117583   4.379   7.783   5.179  0.0681 -0.1364  0.5430
   42MOL   C28217584   4.430   7.726   5.312 -0.5198  0.0989  0.2056
   42MOL   C28317585   4.372   7.585   5.350 -0.2030  0.5478  0.4102
   42MOL   H28417586   3.948   0.169   4.749  0.3876 -1.2842 -0.4758
   42MOL   H28517587   3.845   0.105   4.864  0.1227 -0.6338  1.4292
   42MOL   H28617588   4.144   0.050   4.822 -0.2617  0.8162  0.4357
   42MOL   H28717589   4.203   7.676   5.179  0.7443 -0.4072 -1.1629
   42MOL   H28817590   4.178   7.846   5.237 -0.8180  0.3759 -0.3553
   42MOL   H28917591   4.432   7.723   5.105  0.6511 -0.4197  1.1920
   42MOL   H29017592   4.416   0.032   5.169 -3.1193  1.1410  1.1331
   42MOL   H29117593   4.419   7.795   5.395 -0.4473  0.3851 -0.0229
   42MOL   H29217594   4.536   7.708   5.296 -0.4437  1.1055 -0.4903
   42MOL   H29317595   4.412   7.511   5.281  2.8518  1.7239  0.8482
   42MOL   H29417596   4.263   7.579   5.341  0.1291 -3.2280 -2.0766
   42MOL   H29517597   4.404   7.559   5.450 -0.6450 -0.1906  0.3568
   42MOL   C29617598   4.001   7.752   4.756  0.0987 -0.0986 -0.8839
   42MOL   C29717599   4.103   7.633   4.744  0.3386  0.7660 -0.2093
   42MOL   C29817600   4.038   7.515   4.662 -0.6342  0.1408 -0.6910
   42MOL   O29917601   4.027   7.402   4.696 -0.0061  0.2013  0.0821
   42MOL   O30017602   3.981   7.556   4.548 -0.0522 -0.1237  0.1391
   42MOL   C30117603   3.909   7.470   4.460  0.3047 -0.2493 -0.0994
   42MOL   C30217604   3.984   7.470   4.326  0.3079  0.4159  1.0465
   42MOL   C30317605   4.133   7.435   4.343  0.2398  0.2538  0.2886
   42MOL   C30417606   4.199   7.436   4.214 -0.1929  0.3515  0.3746
   42MOL   H30517607   3.987   7.785   4.653 -0.8593 -0.6334 -0.9323
   42MOL   H30617608   3.908   7.712   4.799  2.3606 -2.2991  2.1743
   42MOL   H30717609   4.123   7.587   4.841 -1.7079 -2.0502 -1.0601
   42MOL   H30817610   3.809   7.512   4.453 -0.6884 -2.6434 -0.7425
   42MOL   H30917611   3.890   7.366   4.485 -2.0254  0.1970  0.1296
   42MOL   H31017612   3.938   7.386   4.273  1.0241  0.4296  0.3953
   42MOL   H31117613   3.972   7.561   4.266 -0.8069 -0.0854  0.4920
   42MOL   H31217614   4.148   7.339   4.392  3.0617  1.0119  0.9725
   42MOL   H31317615   4.182   7.513   4.402  0.0723  1.6415 -1.3719
   42MOL   H31417616   4.304   7.462   4.222 -0.1217  0.3068 -0.3066
   42MOL   H31517617   4.146   7.489   4.134 -1.3745 -2.0147 -0.4697
   42MOL   H31617618   4.193   7.333   4.177  0.6252  0.2400  0.5397
   42MOL   C31717619   4.238   7.684   4.676  0.1296 -0.5978  0.1735
   42MOL   C31817620   4.337   7.557   4.677  0.0159  0.2267  0.3996
   42MOL   C31917621   4.454   7.586   4.574  0.6986  0.6550 -1.0375
   42MOL   O32017622   4.466   7.695   4.515 -0.0924  0.0438  0.0033
   42MOL   O32117623   4.540   7.480   4.561 -0.0248  0.2216 -0.2875
   42MOL   C32217624   4.643   7.471   4.459  0.0745 -0.1409  1.2821
   42MOL   C32317625   4.582   7.406   4.331 -0.0287 -0.1211  0.5163
   42MOL   C32417626   4.686   7.396   4.210  0.9209 -0.0264 -0.3612
   42MOL   C32517627   4.635   7.314   4.097  0.0496  0.3461 -0.8785
   42MOL   H32617628   4.283   7.768   4.728 -0.2668  0.2541 -0.8607
   42MOL   H32717629   4.227   7.720   4.574  0.3971  0.0760  0.3843
   42MOL   H32817630   4.287   7.473   4.628  2.7462 -0.4069 -1.4240
   42MOL   H32917631   4.722   7.421   4.515  2.0106  0.0914 -1.1406
   42MOL   H33017632   4.683   7.568   4.430  1.9071 -0.8484  1.3773
   42MOL   H33117633   4.528   7.312   4.345 -1.5603  0.5993 -0.3128
   42MOL   H33217634   4.498   7.470   4.302  0.6139  0.6754  0.4123
   42MOL   H33317635   4.775   7.346   4.249  0.7729 -0.3424 -0.4213
   42MOL   H33417636   4.727   7.492   4.180 -0.2566 -0.4649 -3.5866
   42MOL   H33517637   4.600   7.216   4.128  0.2214  0.1605 -1.2589
   42MOL   H33617638   4.709   7.286   4.022  2.4385  2.1469  0.7803
   42MOL   H33717639   4.554   7.367   4.045  0.1558  0.9309 -0.4477
   42MOL   C33817640   4.401   7.523   4.816  0.0711  0.6994 -0.4831
   42MOL   C33917641   4.387   7.379   4.863  0.7902  0.3707 -0.0342
   42MOL   C34017642   4.470   7.276   4.780 -0.5710 -0.4175 -0.3133
   42MOL   O34117643   4.592   7.269   4.788 -0.2813  0.1835 -0.5480
   42MOL   O34217644   4.391   7.204   4.691  0.3220  0.2856  0.0938
   42MOL   C34317645   4.445   7.118   4.591 -0.0809 -0.3268 -0.2768
   42MOL   C34417646   4.334   7.066   4.496 -0.1105  0.9642  0.4770
   42MOL   C34517647   4.378   6.941   4.425 -0.1315  0.5673  0.1406
   42MOL   C34617648   4.264   6.871   4.348  0.5755  0.1047 -0.0672
   42MOL   H34717649   4.367   7.591   4.894  0.4393 -0.2942  0.5560
   42MOL   H34817650   4.510   7.529   4.813  0.1932 -1.6347 -1.7182
   42MOL   H34917651   4.284   7.351   4.842  1.0084 -0.0475 -0.5492
   42MOL   H35017652   4.489   7.036   4.646  0.9401 -0.3879 -1.1728
   42MOL   H35117653   4.523   7.166   4.533  0.2081 -1.0471 -0.4832
   42MOL   H35217654   4.249   7.043   4.560 -0.7349  0.3570 -0.5445
   42MOL   H35317655   4.297   7.146   4.431 -0.5123 -0.1255 -0.6507
   42MOL   H35417656   4.424   6.873   4.496 -1.2520 -0.4446 -0.0939
   42MOL   H35517657   4.460   6.964   4.356 -1.4400 -1.6045 -2.2451
   42MOL   H35617658   4.188   6.817   4.404  0.9110  0.7223  1.0017
   42MOL   H35717659   4.305   6.795   4.282  1.7733  1.0453 -0.4247
   42MOL   H35817660   4.206   6.945   4.292 -0.2777 -1.2640 -1.0437
   42MOL   C35917661   4.406   7.360   5.016 -1.0033 -0.0673  0.3740
   42MOL   C36017662   4.310   7.259   5.086  0.7895 -0.2578  0.0023
   42MOL   C36117663   4.160   7.311   5.089  0.6982 -0.4572  0.1030
   42MOL   O36217664   4.071   7.268   5.019 -0.2665  0.0251 -0.2216
   42MOL   O36317665   4.153   7.412   5.175 -0.3454  1.0834  0.2923
   42MOL   C36417666   4.023   7.464   5.216  0.3090 -0.3571 -0.0852
   42MOL   C36517667   3.984   7.412   5.359  0.4757 -0.2804  0.4881
   42MOL   C36617668   3.839   7.455   5.413 -0.3313 -0.4949 -1.0347
   42MOL   C36717669   3.807   7.610   5.397  0.5760  0.6297  0.5570
   42MOL   H36817670   4.382   7.456   5.062 -0.8261 -0.1418  0.6268
   42MOL   H36917671   4.511   7.348   5.042  0.0993 -0.1968 -3.8203
   42MOL   H37017672   4.335   7.269   5.191  0.7248  1.9841 -0.1674
   42MOL   H37117673   3.938   7.447   5.149 -0.0554  2.6328 -0.4505
   42MOL   H37217674   4.039   7.572   5.216  0.5509 -0.3946 -0.0570
   42MOL   H37317675   3.996   7.304   5.362  0.0571 -0.3605 -0.5122
   42MOL   H37417676   4.065   7.448   5.423  0.8954  0.8090 -0.6399
   42MOL   H37517677   3.832   7.417   5.515 -0.9704 -1.4135 -1.4060
   42MOL   H37617678   3.766   7.403   5.350 -1.2248 -1.2791  0.6158
   42MOL   H37717679   3.809   7.635   5.291 -0.8224  0.9414  0.6023
   42MOL   H37817680   3.867   7.684   5.450  0.6554  1.5318 -0.7523
   42MOL   H37917681   3.704   7.628   5.425  0.2477  1.0559 -0.8633
   42MOL   C38017682   4.318   7.108   5.047 -0.2037 -0.0920  0.2915
   42MOL   C38117683   4.447   7.039   5.084  0.4330  0.1507 -0.7417
   42MOL   C38217684   4.488   7.039   5.237  0.2244  0.0132 -0.0019
   42MOL   O38317685   4.609   7.061   5.268  0.1881  0.3739  0.6137
   42MOL   O38417686   4.385   7.021   5.326  0.1705 -0.2016 -0.0761
   42MOL   C38517687   4.421   7.047   5.459  0.3641  0.1871  0.0665
   42MOL   C38617688   4.398   7.200   5.505 -0.6508  0.0045 -0.5675
   42MOL   C38717689   4.429   7.229   5.655  0.3798  0.3528  0.2700
   42MOL   C38817690   4.376   7.362   5.702  0.5866 -0.0151 -0.5850
   42MOL   H38917691   4.278   7.109   4.946  0.8581  1.5606 -0.1155
   42MOL   H39017692   4.241   7.057   5.104 -0.6883  1.1279  0.7373
   42MOL   H39117693   4.525   7.099   5.037  0.8890 -0.8400 -1.2753
   42MOL   H39217694   4.521   7.021   5.494 -0.6518 -1.8479  1.5913
   42MOL   H39317695   4.360   6.973   5.512 -0.3894 -0.2939 -1.4567
   42MOL   H39417696   4.455   7.269   5.442  0.3640 -2.9911 -3.0081
   42MOL   H39517697   4.296   7.235   5.486 -0.3850 -0.3829 -2.8739
   42MOL   H39617698   4.535   7.206   5.665  0.2584 -0.3308  0.0377
   42MOL   H39717699   4.374   7.154   5.712 -1.4624  1.7722  0.3841
   42MOL   H39817700   4.390   7.376   5.810 -1.3253  0.5280 -0.3917
   42MOL   H39917701   4.267   7.356   5.693  0.4643 -1.5727  1.2959
   42MOL   H40017702   4.428   7.438   5.645 -1.8344  2.3043  0.1832
   42MOL   C40117703   4.462   6.906   5.012 -0.1959  0.4020  0.9563
   42MOL   C40217704   4.362   6.796   5.059 -0.0868 -0.5063 -0.4862
   42MOL   C40317705   4.378   6.662   4.979 -0.8621 -0.6431 -0.1356
   42MOL   O40417706   4.476   6.584   4.998 -0.2815  0.0653 -0.0517
   42MOL   O40517707   4.285   6.647   4.884 -0.2571  0.1086  0.1330
   42MOL   C40617708   4.277   6.530   4.803 -0.4068  0.0865  0.1652
   42MOL   C40717709   4.148   6.510   4.724 -0.5678 -0.2712  0.4563
   42MOL   C40817710   4.131   6.617   4.617  0.5889  0.7776 -0.4232
   42MOL   C40917711   3.990   6.605   4.558  0.0999  0.2130  0.3386
   42MOL   H41017712   4.561   6.859   5.012 -0.0269  0.7437 -1.1191
   42MOL   H41117713   4.436   6.918   4.907 -1.1476  3.3388  1.4630
   42MOL   H41217714   4.263   6.842   5.050 -0.4695 -1.4983 -1.4586
   42MOL   H41317715   4.286   6.448   4.874 -0.0306  1.7806  2.1175
   42MOL   H41417716   4.361   6.539   4.734  2.3391 -2.6332  2.9948
   42MOL   H41517717   4.155   6.419   4.665  1.1765 -1.1414  1.9231
   42MOL   H41617718   4.064   6.487   4.790 -0.8457  0.0461  0.2149
   42MOL   H41717719   4.204   6.604   4.538  0.8815  1.8325 -0.3286
   42MOL   H41817720   4.143   6.719   4.652  1.9669  0.5107 -0.0938
   42MOL   H41917721   3.955   6.692   4.502  0.3034  0.6032  0.8186
   42MOL   H42017722   3.923   6.571   4.637  1.2705 -2.7263  0.1505
   42MOL   H42117723   3.988   6.527   4.482 -0.4212  0.2661  0.2937
   42MOL   H42217724   4.375   6.774   5.165  1.0495  1.5910 -0.1649
   43MOL     C117725   3.458   4.198   3.629 -0.1541  0.0421  0.2449
   43MOL     C217726   3.407   4.074   3.696 -0.6850  0.6327 -0.6467
   43MOL     C317727   3.504   3.956   3.678  0.2564  0.6332 -0.1338
   43MOL     O417728   3.604   3.939   3.747 -0.1198 -0.0313  0.0748
   43MOL     O517729   3.462   3.880   3.569  0.1223  0.8823  0.2435
   43MOL     C617730   3.521   3.761   3.534  0.3647  0.1203  0.4750
   43MOL     C717731   3.478   3.719   3.394 -0.1164  0.2794 -0.4455
   43MOL     C817732   3.328   3.673   3.383 -0.6501 -0.2801  0.0239
   43MOL     C917733   3.292   3.631   3.242  0.0775  0.4074  0.2690
   43MOL    H1017734   3.369   4.260   3.620 -0.5635 -0.5589  0.0703
   43MOL    H1117735   3.540   4.249   3.679  0.9678 -0.3236 -1.1824
   43MOL    H1217736   3.320   4.041   3.639 -1.6627  1.2839  0.4569
   43MOL    H1317737   3.494   3.685   3.607  0.1144  2.4892  2.9280
   43MOL    H1417738   3.629   3.776   3.539  0.4537 -0.1543 -0.5404
   43MOL    H1517739   3.495   3.798   3.320  1.8001 -0.0394 -0.3766
   43MOL    H1617740   3.542   3.638   3.358  1.0153 -0.0899  2.2672
   43MOL    H1717741   3.265   3.749   3.429  2.6272  2.1711  0.6630
   43MOL    H1817742   3.316   3.590   3.453 -1.3415 -0.0889  0.1315
   43MOL    H1917743   3.345   3.539   3.216 -2.7019 -1.3506  0.6134
   43MOL    H2017744   3.302   3.704   3.161 -0.4646 -0.2270 -0.3795
   43MOL    H2117745   3.187   3.602   3.251  0.0815  0.8730  2.0525
   43MOL    H2217746   3.488   4.182   3.525  0.9639  0.3736  0.5074
   43MOL    C2317747   3.381   4.108   3.852  0.4737  0.3582 -0.6048
   43MOL    C2417748   3.252   4.199   3.883 -0.2709  0.1263 -0.0878
   43MOL    C2517749   3.144   4.095   3.906 -0.3712  0.1791 -0.5427
   43MOL    O2617750   3.080   4.083   4.015 -0.3586 -0.3701 -0.3541
   43MOL    O2717751   3.127   4.011   3.802 -0.4858 -0.1883  0.6629
   43MOL    C2817752   3.026   3.911   3.793 -0.3719 -0.2545 -0.1470
   43MOL    C2917753   3.084   3.777   3.849 -0.3519 -0.4507 -0.2705
   43MOL    C3017754   3.208   3.716   3.780 -0.5132 -0.1836  0.1580
   43MOL    C3117755   3.286   3.603   3.843 -0.3699  0.0821  0.5110
   43MOL    H3217756   3.472   4.152   3.891  1.2524 -1.0995 -0.7339
   43MOL    H3317757   3.379   4.013   3.906 -1.3610  0.2532 -0.8172
   43MOL    H3417758   3.218   4.259   3.799 -0.5648  1.3952  0.9181
   43MOL    H3517759   3.003   3.880   3.691 -0.2259  1.5828 -0.7514
   43MOL    H3617760   2.934   3.918   3.852 -1.0238 -0.4495 -1.1373
   43MOL    H3717761   3.121   3.792   3.950 -0.7059 -1.0836 -0.0436
   43MOL    H3817762   2.996   3.714   3.865  0.9452 -1.8374  1.6048
   43MOL    H3917763   3.284   3.793   3.793  0.2676 -0.9250  0.0337
   43MOL    H4017764   3.183   3.712   3.674  0.1197 -0.2666  0.0077
   43MOL    H4117765   3.299   3.621   3.950 -1.3859 -1.0618  0.8412
   43MOL    H4217766   3.385   3.594   3.799 -0.7122 -2.0947  0.0972
   43MOL    H4317767   3.232   3.509   3.833 -1.4609  0.6875  0.6182
   43MOL    C4417768   3.271   4.293   4.006  0.7686 -0.0223  0.0537
   43MOL    C4517769   3.395   4.387   4.017  0.6900  0.0752 -0.5155
   43MOL    C4617770   3.427   4.466   3.886 -0.2065 -0.1201  0.4822
   43MOL    O4717771   3.543   4.477   3.858 -0.1835  0.1609 -0.6700
   43MOL    O4817772   3.327   4.520   3.826  0.1669 -0.2071  0.6110
   43MOL    C4917773   3.346   4.561   3.695  0.3228  0.5140  0.3835
   43MOL    C5017774   3.216   4.624   3.643  0.4293 -0.1465  0.1544
   43MOL    C5117775   3.108   4.529   3.591  0.1375  0.0778  0.0271
   43MOL    C5217776   2.961   4.579   3.601 -0.2423 -0.4449 -0.0421
   43MOL    H5317777   3.265   4.241   4.102  4.0498 -1.4447 -0.4161
   43MOL    H5417778   3.182   4.356   4.010  1.5398  1.1182 -0.2720
   43MOL    H5517779   3.476   4.319   4.046 -0.4855  0.0129  2.8520
   43MOL    H5617780   3.367   4.483   3.623 -3.2274 -1.5485  1.4484
   43MOL    H5717781   3.431   4.629   3.695  0.2570  0.6109  1.4696
   43MOL    H5817782   3.174   4.698   3.711  2.7062  0.8743  0.4812
   43MOL    H5917783   3.242   4.685   3.557  1.3010  0.7860  1.0759
   43MOL    H6017784   3.108   4.438   3.650  1.5809  0.1579  0.1728
   43MOL    H6117785   3.135   4.489   3.493 -0.6731  0.3931 -0.3275
   43MOL    H6217786   2.889   4.498   3.586  1.3315 -1.8697 -0.0698
   43MOL    H6317787   2.951   4.665   3.535 -1.1388 -0.8222 -0.4138
   43MOL    H6417788   2.943   4.616   3.702  0.0548  2.2789 -0.9430
   43MOL    C6517789   3.388   4.489   4.134  0.1057 -0.0801 -0.1692
   43MOL    C6617790   3.413   4.434   4.278  0.3540 -0.6779 -0.2657
   43MOL    C6717791   3.550   4.383   4.304 -0.1550 -0.0322 -0.3107
   43MOL    O6817792   3.590   4.270   4.285 -0.2268  0.6242 -0.2965
   43MOL    O6917793   3.627   4.486   4.333 -0.1042 -0.2049  0.2911
   43MOL    C7017794   3.768   4.482   4.344 -0.1694 -0.2000  0.4687
   43MOL    C7117795   3.815   4.536   4.213  0.3943  0.1172 -0.9335
   43MOL    C7217796   3.968   4.560   4.216 -0.9616  0.2862 -1.0403
   43MOL    C7317797   4.010   4.650   4.100  0.1858  0.0793  0.3528
   43MOL    H7417798   3.291   4.538   4.127 -0.1657 -0.7604 -1.4489
   43MOL    H7517799   3.454   4.574   4.113 -0.3843 -0.4444 -3.5621
   43MOL    H7617800   3.346   4.348   4.276 -0.6557  0.1176 -2.6049
   43MOL    H7717801   3.806   4.380   4.353  1.1311  0.3225  1.0410
   43MOL    H7817802   3.805   4.524   4.438 -0.1761  1.1630 -0.1341
   43MOL    H7917803   3.789   4.478   4.125  1.8809 -0.0092 -1.3031
   43MOL    H8017804   3.764   4.630   4.191  0.2320 -0.0391 -1.2242
   43MOL    H8117805   4.019   4.464   4.218 -1.3666  0.0845 -0.0970
   43MOL    H8217806   3.990   4.610   4.310  1.1536  0.6127 -1.6972
   43MOL    H8317807   3.939   4.732   4.095  0.2129  0.0581 -0.5866
   43MOL    H8417808   3.996   4.592   4.009 -0.3579 -1.0841  1.1689
   43MOL    H8517809   4.112   4.688   4.086 -0.3249  0.8066 -1.5090
   43MOL    C8617810   3.351   4.521   4.389 -0.7420  0.4013  0.4082
   43MOL    C8717811   3.372   4.477   4.534  0.0566  0.7365  1.1116
   43MOL    C8817812   3.380   4.586   4.634 -0.7758 -0.5268  0.3041
   43MOL    O8917813   3.476   4.594   4.709 -0.8754 -0.5703 -0.5992
   43MOL    O9017814   3.292   4.678   4.619 -0.2122 -0.0230  1.0046
   43MOL    C9117815   3.292   4.786   4.712 -0.5821 -0.1281  0.1636
   43MOL    C9217816   3.165   4.775   4.799  0.3088  0.5781  0.7522
   43MOL    C9317817   3.029   4.773   4.732 -0.4311 -0.4363  0.2549
   43MOL    C9417818   2.913   4.714   4.817 -0.2023  0.5393 -0.9525
   43MOL    H9517819   3.243   4.531   4.385 -0.8651 -0.6691  1.0372
   43MOL    H9617820   3.380   4.625   4.373  1.9546 -0.3604  0.0864
   43MOL    H9717821   3.472   4.434   4.539  0.7865  2.0598 -1.4270
   43MOL    H9817822   3.298   4.877   4.654  0.8413  0.2072  0.8150
   43MOL    H9917823   3.383   4.791   4.771 -0.7082  0.1675  0.3361
   43MOL   H10017824   3.179   4.685   4.858 -0.2847 -1.5366 -2.2689
   43MOL   H10117825   3.167   4.857   4.872 -1.0719  1.9677 -0.7151
   43MOL   H10217826   3.037   4.715   4.640  1.3684  0.8335 -0.4141
   43MOL   H10317827   3.002   4.871   4.692 -0.2665 -0.6224 -0.3192
   43MOL   H10417828   2.823   4.691   4.760 -0.2147  0.9409 -1.0944
   43MOL   H10517829   2.899   4.784   4.900  0.7860  2.1996 -2.1621
   43MOL   H10617830   2.953   4.622   4.860  0.0542  0.7634 -0.7059
   43MOL   C10717831   3.278   4.363   4.595 -0.1105  0.3140  0.2490
   43MOL   C10817832   3.120   4.395   4.592 -0.0644  0.5247 -0.0709
   43MOL   C10917833   3.058   4.344   4.458  0.1624 -0.4928  0.3940
   43MOL   O11017834   2.991   4.421   4.385 -0.4368  0.1158  0.3003
   43MOL   O11117835   3.089   4.216   4.438 -0.2761  0.2465  0.6386
   43MOL   C11217836   3.042   4.158   4.317 -0.2461  0.1255  0.6303
   43MOL   C11317837   2.907   4.081   4.321 -0.1714  0.5111 -0.3390
   43MOL   C11417838   2.784   4.166   4.360 -0.3319  0.4541 -0.1584
   43MOL   C11517839   2.661   4.081   4.371  0.2889 -0.0283 -0.3463
   43MOL   H11617840   3.300   4.343   4.700 -0.2845 -0.8769  0.0686
   43MOL   H11717841   3.289   4.266   4.545 -0.3357  0.2954  0.2335
   43MOL   H11817842   3.091   4.499   4.577  0.3295  0.6829  0.2423
   43MOL   H11917843   3.116   4.093   4.272  1.0552  2.1593 -0.2388
   43MOL   H12017844   3.028   4.238   4.244  1.1543 -0.0426  0.1728
   43MOL   H12117845   2.888   4.030   4.226  0.7632  0.6344 -0.5986
   43MOL   H12217846   2.924   4.000   4.392  0.1086 -1.3387 -2.4476
   43MOL   H12317847   2.763   4.255   4.300  1.2711 -0.8411 -2.6845
   43MOL   H12417848   2.800   4.206   4.460  1.0052 -0.0663 -0.1672
   43MOL   H12517849   2.588   4.130   4.436  1.7818  0.4301  1.0236
   43MOL   H12617850   2.677   3.989   4.427  0.4641  0.0367 -0.2897
   43MOL   H12717851   2.614   4.056   4.276  0.3048  1.1056 -0.6693
   43MOL   C12817852   3.032   4.359   4.717  0.4110 -0.0137  0.3582
   43MOL   C12917853   3.027   4.205   4.765  0.0070  0.2679  0.3365
   43MOL   C13017854   3.146   4.160   4.840  0.1526  0.3217  0.1234
   43MOL   O13117855   3.219   4.072   4.795 -1.0716  0.2354  0.3876
   43MOL   O13217856   3.161   4.231   4.953  0.4576  0.4298 -0.0755
   43MOL   C13317857   3.273   4.218   5.038 -0.1470 -0.6304 -0.1858
   43MOL   C13417858   3.274   4.327   5.142 -0.0510 -0.7126 -0.1499
   43MOL   C13517859   3.377   4.305   5.252  0.2010 -0.0750  0.5639
   43MOL   C13617860   3.318   4.242   5.375  0.0670 -0.3291  0.1791
   43MOL   H13717861   2.936   4.408   4.701 -0.1289 -1.6483 -1.5463
   43MOL   H13817862   3.076   4.412   4.802  1.7022 -1.1631  0.4374
   43MOL   H13917863   3.023   4.144   4.675 -1.0525  0.8706 -0.0433
   43MOL   H14017864   3.359   4.225   4.972  0.2564  0.0412  0.4102
   43MOL   H14117865   3.278   4.117   5.081  3.4089 -1.8371 -3.1490
   43MOL   H14217866   3.296   4.418   5.086 -1.1130 -0.8889 -0.8785
   43MOL   H14317867   3.174   4.334   5.184  1.0248 -1.5050  2.6221
   43MOL   H14417868   3.423   4.394   5.294 -1.8625  0.3452  1.9796
   43MOL   H14517869   3.458   4.238   5.221  0.6782  0.5300  0.4955
   43MOL   H14617870   3.226   4.295   5.402  0.9658 -0.3585  3.5068
   43MOL   H14717871   3.397   4.248   5.449  0.8012 -2.3758 -0.3991
   43MOL   H14817872   3.297   4.138   5.353 -0.9644 -0.1757  0.4106
   43MOL   C14917873   2.895   4.167   4.839 -0.6530 -0.5820 -0.0970
   43MOL   C15017874   2.870   4.017   4.841  0.4012 -0.5739  0.1217
   43MOL   C15117875   2.792   3.981   4.971  0.1450  0.3425  0.3650
   43MOL   O15217876   2.839   3.901   5.054 -0.2815 -0.1719 -0.4425
   43MOL   O15317877   2.672   4.046   4.975  0.5348 -0.2042 -0.2643
   43MOL   C15417878   2.569   4.002   5.054 -0.7004 -0.6229 -0.0300
   43MOL   C15517879   2.439   4.061   5.002  0.3508 -0.4815  0.1270
   43MOL   C15617880   2.309   3.993   5.062 -0.2026  0.2981 -0.0037
   43MOL   C15717881   2.184   4.074   5.023 -0.0434 -0.3803 -0.5953
   43MOL   H15817882   2.808   4.222   4.806 -0.6195 -0.9481 -0.7975
   43MOL   H15917883   2.900   4.195   4.944  2.9947 -4.0404  0.8190
   43MOL   H16017884   2.963   3.961   4.841  0.0863 -1.1433  2.3024
   43MOL   H16117885   2.595   4.020   5.159  2.3195  1.2334 -1.0335
   43MOL   H16217886   2.567   3.893   5.052  1.0142 -0.7063  1.4975
   43MOL   H16317887   2.450   4.169   5.010 -0.5510 -0.4139  0.4681
   43MOL   H16417888   2.433   4.050   4.894  0.1778 -0.4735  0.1364
   43MOL   H16517889   2.328   4.002   5.170 -0.9538 -0.9300  0.2318
   43MOL   H16617890   2.296   3.887   5.041 -3.1876  0.7605 -0.6288
   43MOL   H16717891   2.207   4.108   4.922 -1.0506  2.7655  0.1904
   43MOL   H16817892   2.170   4.163   5.084  1.0968 -1.9193  1.9576
   43MOL   H16917893   2.100   4.005   5.031 -0.1493 -0.1540  0.2871
   43MOL   C17017894   2.792   3.969   4.712  0.6655  0.2022 -0.1399
   43MOL   C17117895   2.810   3.815   4.694  0.6607 -0.9143  0.0580
   43MOL   C17217896   2.697   3.751   4.620 -0.1109 -0.2217  0.8500
   43MOL   O17317897   2.707   3.709   4.506  0.0415  0.1784 -0.1386
   43MOL   O17417898   2.586   3.736   4.689 -0.4098 -0.7183 -0.5038
   43MOL   C17517899   2.489   3.644   4.645 -0.0487  0.2742 -0.9506
   43MOL   C17617900   2.424   3.584   4.772  1.1887  0.2157  0.2550
   43MOL   C17717901   2.518   3.497   4.852 -0.5916  0.2659 -0.1094
   43MOL   C17817902   2.482   3.484   5.002 -0.5126  0.5214 -0.0715
   43MOL   H17917903   2.843   4.013   4.626  0.9623 -0.0821 -0.1120
   43MOL   H18017904   2.688   3.999   4.712 -0.0662 -2.2858  0.0701
   43MOL   H18117905   2.802   3.771   4.793  0.2373  0.2402  0.5317
   43MOL   H18217906   2.527   3.563   4.582 -0.0937  0.5899 -1.3790
   43MOL   H18317907   2.414   3.704   4.594  0.1424  0.7483 -0.6692
   43MOL   H18417908   2.393   3.660   4.844 -0.1689 -0.0353 -0.0517
   43MOL   H18517909   2.338   3.525   4.740  0.5416 -0.1964  2.6642
   43MOL   H18617910   2.618   3.541   4.852 -0.3666 -0.2343  1.0100
   43MOL   H18717911   2.516   3.402   4.798 -1.0719 -0.7978  1.7354
   43MOL   H18817912   2.559   3.415   5.036  0.1948 -1.6444 -5.5634
   43MOL   H18917913   2.379   3.453   5.020  0.2356 -1.1249  1.5328
   43MOL   H19017914   2.499   3.579   5.052  1.2384  1.0651 -1.6559
   43MOL   C19117915   2.949   3.785   4.629 -0.1757  0.4537  0.6057
   43MOL   C19217916   2.988   3.639   4.630  0.5389  0.5091  0.6352
   43MOL   C19317917   3.105   3.618   4.530  0.3819  0.5078 -0.5973
   43MOL   O19417918   3.123   3.512   4.469 -0.7703 -0.4172  0.8622
   43MOL   O19517919   3.190   3.722   4.528 -0.2925 -0.2243 -0.4048
   43MOL   C19617920   3.296   3.728   4.442 -1.0021 -0.0119 -0.5226
   43MOL   C19717921   3.271   3.864   4.376 -0.0492  1.0416  0.3305
   43MOL   C19817922   3.381   3.929   4.284 -0.0735 -0.2274 -1.1572
   43MOL   C19917923   3.442   3.832   4.178 -0.5308 -0.4622  0.0175
   43MOL   H20017924   3.033   3.845   4.664  2.6052 -2.5361 -0.7122
   43MOL   H20117925   2.939   3.806   4.523 -2.1607  1.3867  0.9466
   43MOL   H20217926   2.917   3.567   4.588  1.5976 -1.1416  1.5803
   43MOL   H20317927   3.290   3.651   4.365 -1.7372 -0.3722 -0.1028
   43MOL   H20417928   3.391   3.731   4.497 -0.4804 -1.0298 -1.3409
   43MOL   H20517929   3.176   3.862   4.323  1.0301 -2.1030 -1.5934
   43MOL   H20617930   3.272   3.944   4.450 -0.1746  0.1947  1.2653
   43MOL   H20717931   3.462   3.972   4.343 -0.7981  0.1128 -0.3912
   43MOL   H20817932   3.355   4.019   4.229 -0.1646  1.4274  1.4632
   43MOL   H20917933   3.362   3.790   4.117  1.0393 -3.5995 -0.0103
   43MOL   H21017934   3.480   3.745   4.232 -0.6702  0.2344  1.2420
   43MOL   H21117935   3.522   3.880   4.121 -0.5972 -0.6301 -0.2179
   43MOL   C21217936   3.042   3.602   4.775  0.0058 -0.0231  0.5680
   43MOL   C21317937   2.936   3.523   4.855 -0.1179  0.2659 -0.0208
   43MOL   C21417938   2.902   3.391   4.787 -0.3127 -0.6771  1.2559
   43MOL   O21517939   2.794   3.379   4.732 -0.0909 -0.3108 -0.1928
   43MOL   O21617940   3.000   3.301   4.779 -0.4129 -0.5577  0.4721
   43MOL   C21717941   2.985   3.181   4.704 -0.2298  0.6142 -0.0309
   43MOL   C21817942   2.983   3.211   4.549 -0.3321  0.6825  0.2247
   43MOL   C21917943   2.957   3.085   4.469 -0.4457 -0.3469 -0.1496
   43MOL   C22017944   2.923   3.127   4.319 -0.1985 -0.1222  0.4307
   43MOL   H22117945   3.072   3.690   4.832 -0.0442  0.1069  0.3940
   43MOL   H22217946   3.126   3.533   4.767 -1.3137 -1.6133  0.1589
   43MOL   H22317947   2.847   3.586   4.852  0.6513  1.4045  0.6533
   43MOL   H22417948   2.885   3.143   4.726 -0.4583  1.4081  0.3375
   43MOL   H22517949   3.050   3.102   4.739 -0.2808 -0.5207 -2.4192
   43MOL   H22617950   2.904   3.278   4.516 -0.1031  0.2676 -1.2205
   43MOL   H22717951   3.080   3.250   4.519 -1.3925  1.6225 -2.1642
   43MOL   H22817952   2.871   3.029   4.505 -0.4988  1.0912  2.0236
   43MOL   H22917953   3.050   3.029   4.476 -1.3389 -1.6181  2.0466
   43MOL   H23017954   2.973   3.218   4.286  1.1520 -0.9033  0.2368
   43MOL   H23117955   2.817   3.139   4.297  0.2017 -0.1391 -1.6183
   43MOL   H23217956   2.945   3.042   4.253 -3.1314  1.6796 -3.0777
   43MOL   C23317957   2.993   3.503   4.997  0.3879 -0.0713 -0.2543
   43MOL   C23417958   2.890   3.467   5.117  0.5768  0.5940  0.1004
   43MOL   C23517959   2.943   3.345   5.193  0.2847  0.5230 -0.0050
   43MOL   O23617960   2.898   3.233   5.175  0.2307  0.4227  0.2241
   43MOL   O23717961   3.039   3.381   5.278  0.0009 -0.3260 -0.6014
   43MOL   C23817962   3.114   3.284   5.351 -0.6070  0.9356  0.5123
   43MOL   C23917963   3.261   3.291   5.315  0.7349  0.0695 -0.4173
   43MOL   C24017964   3.329   3.429   5.323 -0.1252  0.0826  0.0299
   43MOL   C24117965   3.321   3.479   5.461 -0.4596 -0.1652 -0.1016
   43MOL   H24217966   3.046   3.593   5.029 -1.0105  0.2947  1.1247
   43MOL   H24317967   3.075   3.433   4.985 -0.5461 -0.7878 -2.7030
   43MOL   H24417968   2.804   3.425   5.065  0.7652  0.9524 -0.5069
   43MOL   H24517969   3.069   3.185   5.336 -0.9092  1.4455 -2.2453
   43MOL   H24617970   3.096   3.291   5.458 -1.2106  1.4229  0.3810
   43MOL   H24717971   3.306   3.209   5.370 -0.5843 -0.4478 -0.1050
   43MOL   H24817972   3.263   3.269   5.208 -0.7596 -0.0074 -0.4312
   43MOL   H24917973   3.283   3.494   5.249 -2.5747 -0.9925  0.5626
   43MOL   H25017974   3.428   3.409   5.281  0.2104 -0.8107  1.1981
   43MOL   H25117975   3.363   3.413   5.537  0.7664  1.0766  0.3221
   43MOL   H25217976   3.217   3.496   5.490 -0.5883 -1.3038  0.1191
   43MOL   H25317977   3.377   3.573   5.461  0.1824 -0.5473 -0.3616
   43MOL   C25417978   2.852   3.590   5.199 -0.0915  0.2763  0.1931
   43MOL   C25517979   2.724   3.579   5.284 -0.0354  0.2765 -0.0281
   43MOL   C25617980   2.727   3.478   5.400 -0.3262  0.1950 -0.6863
   43MOL   O25717981   2.635   3.399   5.424 -0.6184 -0.3753  0.4138
   43MOL   O25817982   2.835   3.495   5.479 -0.5789  0.2698 -0.0758
   43MOL   C25917983   2.869   3.406   5.586  0.1147 -0.0686  0.7618
   43MOL   C26017984   2.797   3.458   5.714  0.0070 -0.3468 -0.4028
   43MOL   C26117985   2.648   3.417   5.743 -0.0913 -0.4830 -0.8279
   43MOL   C26217986   2.592   3.428   5.887  0.5219  0.7229  0.1134
   43MOL   H26317987   2.825   3.663   5.123 -0.4406  0.8298  0.8487
   43MOL   H26417988   2.938   3.626   5.254 -1.0760 -1.1119  2.7728
   43MOL   H26517989   2.644   3.542   5.220  1.4069 -1.7303 -0.7351
   43MOL   H26617990   2.974   3.403   5.614  0.2892  1.5408  0.3332
   43MOL   H26717991   2.842   3.304   5.562 -0.9147  0.0581  1.3706
   43MOL   H26817992   2.857   3.431   5.801  1.3576  0.3720 -1.0848
   43MOL   H26917993   2.816   3.565   5.715 -1.3080 -0.0629 -2.5468
   43MOL   H27017994   2.639   3.312   5.718  1.0601 -0.1003 -2.9242
   43MOL   H27117995   2.575   3.467   5.680 -1.2563 -1.1408 -0.0251
   43MOL   H27217996   2.660   3.383   5.959  0.2477 -0.8050 -0.5762
   43MOL   H27317997   2.492   3.385   5.893  0.9710 -0.7820 -2.2888
   43MOL   H27417998   2.568   3.530   5.918 -1.1492  0.4423 -0.2431
   43MOL   C27517999   2.686   3.716   5.330 -0.3293  0.0181 -0.1629
   43MOL   C27618000   2.560   3.727   5.423 -0.4111  0.2068  0.2645
   43MOL   C27718001   2.571   3.848   5.519 -0.5998 -0.1759  0.0951
   43MOL   O27818002   2.502   3.947   5.504 -0.9143  0.6566 -0.2321
   43MOL   O27918003   2.663   3.821   5.615 -0.7106  0.5897  0.1957
   43MOL   C28018004   2.672   3.905   5.736 -0.5272  0.0367 -0.5092
   43MOL   C28118005   2.665   3.804   5.853 -0.1873 -0.0299 -0.3365
   43MOL   C28218006   2.687   3.879   5.986 -0.2040  0.0599  0.3209
   43MOL   C28318007   2.665   3.781   6.095 -0.5618  0.4131  0.3383
   43MOL   H28418008   2.678   3.783   5.244  0.6483  0.5658  0.1708
   43MOL   H28518009   2.769   3.762   5.382  1.1499 -1.4481 -1.1545
   43MOL   H28618010   2.544   3.635   5.479  2.4977 -0.5838 -0.0931
   43MOL   H28718011   2.587   3.972   5.751 -0.2394  0.0104  1.3534
   43MOL   H28818012   2.770   3.945   5.760 -0.0708 -2.1957  1.5959
   43MOL   H28918013   2.565   3.763   5.847  0.0486 -0.8064  0.8535
   43MOL   H29018014   2.730   3.719   5.834 -0.9919 -0.4799 -1.0853
   43MOL   H29118015   2.625   3.967   6.003  1.5995  1.7356 -1.5390
   43MOL   H29218016   2.786   3.926   5.993 -0.7209  0.9187  2.3938
   43MOL   H29318017   2.559   3.754   6.093 -0.3474 -0.4984  0.7641
   43MOL   H29418018   2.703   3.805   6.194  1.7914 -2.1740  0.1303
   43MOL   H29518019   2.720   3.692   6.063 -0.6347  0.2210  0.7524
   43MOL   C29618020   2.436   3.746   5.329  0.3943 -0.1398  0.7588
   43MOL   C29718021   2.301   3.737   5.399 -0.5700  0.5356 -0.5372
   43MOL   C29818022   2.190   3.770   5.296  0.5743 -0.3367 -0.0893
   43MOL   O29918023   2.120   3.872   5.313 -0.0586  0.4908  0.1845
   43MOL   O30018024   2.174   3.686   5.197 -0.3526 -0.0409  0.0816
   43MOL   C30118025   2.071   3.685   5.102 -0.5171  0.2875 -0.1132
   43MOL   C30218026   2.093   3.576   4.992  0.5756 -0.3837  0.6376
   43MOL   C30318027   1.970   3.553   4.909 -0.6318 -0.5364  0.0701
   43MOL   C30418028   2.005   3.429   4.819 -0.2903 -0.4095  0.2611
   43MOL   H30518029   2.437   3.675   5.246 -1.1069 -0.3474  0.9135
   43MOL   H30618030   2.437   3.842   5.277 -1.4429 -0.6306 -0.2575
   43MOL   H30718031   2.298   3.814   5.476 -0.1867  0.1609 -0.1437
   43MOL   H30818032   2.066   3.788   5.069 -0.8483  0.9874  2.0517
   43MOL   H30918033   1.975   3.656   5.144 -0.3941 -0.4550 -0.3259
   43MOL   H31018034   2.182   3.604   4.936  0.0805 -0.5476 -0.2326
   43MOL   H31118035   2.113   3.480   5.039 -0.4472 -0.8636  0.1105
   43MOL   H31218036   1.939   3.639   4.851  3.1044  0.7607 -0.1345
   43MOL   H31318037   1.885   3.526   4.972 -2.0008  1.8904 -0.6759
   43MOL   H31418038   2.049   3.347   4.875  0.9838  0.8010  1.0542
   43MOL   H31518039   2.071   3.458   4.737 -2.1974  0.7021 -0.9198
   43MOL   H31618040   1.907   3.395   4.785 -1.2696 -0.7700  3.2736
   43MOL   C31718041   2.283   3.602   5.475  0.1157  0.3363 -0.0647
   43MOL   C31818042   2.149   3.559   5.523  0.2878  0.7196  0.0302
   43MOL   C31918043   2.168   3.439   5.620 -0.1077 -0.2858  0.2975
   43MOL   O32018044   2.127   3.440   5.734  0.3293 -0.1521  0.7336
   43MOL   O32118045   2.227   3.343   5.558  0.4950  0.2566  0.0028
   43MOL   C32218046   2.237   3.221   5.622 -0.0691 -0.0965  0.1032
   43MOL   C32318047   2.371   3.157   5.600  0.4807  0.1133  0.1793
   43MOL   C32418048   2.386   3.054   5.709 -0.4661  0.9602  0.0089
   43MOL   C32518049   2.514   2.986   5.683  0.0557 -0.1068 -0.2493
   43MOL   H32618050   2.342   3.614   5.567  0.7149  0.1250 -0.4193
   43MOL   H32718051   2.335   3.522   5.423  1.2521 -0.7263  2.5658
   43MOL   H32818052   2.092   3.521   5.438 -1.5057 -0.1586  1.5925
   43MOL   H32918053   2.169   3.142   5.588  0.0165 -0.2150  0.2046
   43MOL   H33018054   2.233   3.238   5.730 -0.4494 -2.1895  0.4438
   43MOL   H33118055   2.370   3.113   5.500 -1.6849  0.6454 -0.0578
   43MOL   H33218056   2.456   3.225   5.604 -1.3440  2.3512  1.8086
   43MOL   H33318057   2.298   2.991   5.700  1.0257 -1.1906  0.1867
   43MOL   H33418058   2.371   3.094   5.810 -1.3610 -0.4030  0.4381
   43MOL   H33518059   2.509   2.923   5.594 -1.0137 -2.4156  1.3814
   43MOL   H33618060   2.521   2.911   5.762  2.1956  0.9469  0.6072
   43MOL   H33718061   2.594   3.060   5.680  0.6969 -0.8481 -2.4887
   43MOL   C33818062   2.076   3.679   5.589  0.3393  0.7145 -0.1598
   43MOL   C33918063   2.112   3.742   5.728 -0.1711  0.3051 -0.6470
   43MOL   C34018064   2.204   3.862   5.721 -0.4149  0.2844 -0.7767
   43MOL   O34118065   2.312   3.855   5.773  0.9345  0.3310 -0.0059
   43MOL   O34218066   2.162   3.962   5.640  0.3329 -0.1374  0.4804
   43MOL   C34318067   2.231   4.085   5.635 -0.1142 -0.3035 -0.0889
   43MOL   C34418068   2.247   4.124   5.491 -0.2123 -0.0602  0.1235
   43MOL   C34518069   2.342   4.245   5.474 -0.5091 -0.7501  0.2618
   43MOL   C34618070   2.399   4.270   5.326 -0.4497  0.1993  0.4686
   43MOL   H34718071   1.977   3.635   5.602  1.5010 -2.6907 -2.1181
   43MOL   H34818072   2.032   3.750   5.520 -0.6630  0.8475  0.5979
   43MOL   H34918073   2.176   3.668   5.774  1.0540  0.6787 -1.7173
   43MOL   H35018074   2.333   4.087   5.675  0.2492  0.5772 -1.0467
   43MOL   H35118075   2.168   4.152   5.694 -1.3086 -0.7477 -0.8616
   43MOL   H35218076   2.296   4.035   5.450  0.9812 -0.4150  2.2738
   43MOL   H35318077   2.154   4.134   5.434 -0.3041  1.5237  0.5437
   43MOL   H35418078   2.425   4.234   5.544  0.2992 -1.0320 -0.7234
   43MOL   H35518079   2.293   4.336   5.509  2.4857 -0.2603  3.4905
   43MOL   H35618080   2.324   4.298   5.253 -0.7679  2.4871  1.6125
   43MOL   H35718081   2.455   4.185   5.288 -3.3861 -1.5057 -0.1878
   43MOL   H35818082   2.469   4.354   5.335  2.1912 -2.0090  1.1995
   43MOL   C35918083   1.995   3.780   5.821 -0.0301  0.1036  0.1175
   43MOL   C36018084   2.030   3.797   5.974 -0.5406 -0.5225  0.5462
   43MOL   C36118085   1.938   3.904   6.039 -0.1232  0.6294  0.8342
   43MOL   O36218086   1.985   4.018   6.057  0.0652 -0.5018 -0.0379
   43MOL   O36318087   1.814   3.862   6.066 -0.3540 -0.3059 -0.1612
   43MOL   C36418088   1.721   3.949   6.124 -0.8445  0.0559  0.3203
   43MOL   C36518089   1.596   3.883   6.167  0.2207  0.1752  0.9012
   43MOL   C36618090   1.482   3.964   6.233  0.3092 -0.5078 -0.1269
   43MOL   C36718091   1.346   3.886   6.220  0.0210  0.9860  0.0219
   43MOL   H36818092   1.904   3.720   5.816  0.0144 -0.2198  2.5361
   43MOL   H36918093   1.965   3.872   5.771 -0.6411 -1.1663 -1.8813
   43MOL   H37018094   2.129   3.841   5.984 -0.6841 -0.5448  2.4129
   43MOL   H37118095   1.689   4.028   6.056  0.4821  1.2274  1.0343
   43MOL   H37218096   1.767   4.006   6.205  2.6936  0.6640 -1.9710
   43MOL   H37318097   1.554   3.845   6.074 -0.3023  1.9440  0.3903
   43MOL   H37418098   1.628   3.801   6.232  1.0516 -0.8405 -0.7788
   43MOL   H37518099   1.463   4.059   6.183 -3.4917 -1.1203  0.0302
   43MOL   H37618100   1.494   3.991   6.338  0.1813 -0.6509 -0.0759
   43MOL   H37718101   1.303   3.868   6.121  1.9812  0.1825 -0.6994
   43MOL   H37818102   1.273   3.938   6.283 -1.3093 -1.7382  0.7946
   43MOL   H37918103   1.355   3.796   6.280 -0.8369  2.2864  2.1713
   43MOL   C38018104   2.031   3.667   6.055 -0.2504  0.8442 -0.4429
   43MOL   C38118105   2.106   3.669   6.187 -0.4951 -0.0030  0.1044
   43MOL   C38218106   2.066   3.545   6.265  0.3627  0.7117 -0.6610
   43MOL   O38318107   2.079   3.432   6.220  0.3952  0.6240  0.0625
   43MOL   O38418108   2.016   3.581   6.386  0.2394 -0.1110  0.0863
   43MOL   C38518109   1.948   3.483   6.474  0.0316  0.0698 -0.1972
   43MOL   C38618110   2.039   3.425   6.582  0.0386  0.1901  0.1637
   43MOL   C38718111   1.950   3.346   6.669 -0.3282  0.3921 -0.0741
   43MOL   C38818112   2.018   3.286   6.787  0.0914  0.5531  0.5662
   43MOL   H38918113   2.080   3.595   5.990  0.1021  0.6313  0.0517
   43MOL   H39018114   1.931   3.627   6.073  0.4190 -0.4489  0.4949
   43MOL   H39118115   2.065   3.750   6.247 -0.1212  0.1006  0.2198
   43MOL   H39218116   1.901   3.400   6.422  1.2892  0.9534 -2.8608
   43MOL   H39318117   1.867   3.539   6.521 -0.1327 -0.1678 -0.1958
   43MOL   H39418118   2.106   3.347   6.546  0.6432  0.2856  1.0539
   43MOL   H39518119   2.101   3.494   6.639  1.3845  0.0240 -1.0617
   43MOL   H39618120   1.896   3.269   6.613  2.0548 -0.7462 -0.8695
   43MOL   H39718121   1.876   3.412   6.715  0.0337  0.1131  0.9216
   43MOL   H39818122   1.946   3.241   6.855 -1.1411 -0.6731 -1.5091
   43MOL   H39918123   2.073   3.359   6.847  1.1270 -1.4836  2.1512
   43MOL   H40018124   2.085   3.210   6.748  1.9953  2.1980  0.5466
   43MOL   C40118125   2.259   3.677   6.152  0.1065 -0.3766  0.2841
   43MOL   C40218126   2.349   3.702   6.276 -0.3268 -0.4043 -0.3218
   43MOL   C40318127   2.348   3.852   6.311  1.0240  0.1555  0.3577
   43MOL   O40418128   2.295   3.891   6.413 -0.3188  0.1524 -0.2133
   43MOL   O40518129   2.394   3.934   6.217  0.4019  0.3149 -0.5375
   43MOL   C40618130   2.400   4.076   6.236 -0.6608  0.2237  0.2508
   43MOL   C40718131   2.318   4.158   6.135 -0.1404  0.3745 -0.1226
   43MOL   C40818132   2.367   4.168   5.995  0.3259  0.2473  0.4603
   43MOL   C40918133   2.287   4.280   5.927 -0.2536  0.3871  0.0127
   43MOL   H41018134   2.288   3.743   6.070  2.1222 -1.3167  0.2217
   43MOL   H41118135   2.291   3.576   6.129 -1.6342 -1.4310  2.2797
   43MOL   H41218136   2.454   3.678   6.255 -0.2817 -0.1083 -0.4406
   43MOL   H41318137   2.507   4.092   6.226 -0.4817 -0.4271  1.1166
   43MOL   H41418138   2.377   4.104   6.339  1.8442  1.8568  0.4184
   43MOL   H41518139   2.215   4.122   6.140 -0.3649  1.0407  0.2001
   43MOL   H41618140   2.299   4.260   6.168 -0.6976  0.5690 -1.0148
   43MOL   H41718141   2.344   4.069   5.956  0.6208 -0.7568  2.7496
   43MOL   H41818142   2.473   4.187   5.978  0.4819  1.9833  3.0653
   43MOL   H41918143   2.313   4.295   5.823 -0.2956 -1.2717 -0.2460
   43MOL   H42018144   2.307   4.376   5.974 -3.4130  2.1375 -2.0390
   43MOL   H42118145   2.182   4.252   5.936  0.2364 -1.9717 -1.1723
   43MOL   H42218146   2.315   3.641   6.360 -0.7595 -0.5249 -0.5846
   44MOL     C118147   0.137   7.356   5.582  0.1117 -0.2578 -0.5211
   44MOL     C218148   0.244   7.250   5.573  0.0374  0.3466  0.1781
   44MOL     C318149   0.228   7.178   5.435  1.0809 -0.4290  0.6461
   44MOL     O418150   0.320   7.174   5.349  0.2155  0.3490  0.0612
   44MOL     O518151   0.105   7.114   5.417 -0.3266 -0.7845 -0.3014
   44MOL     C618152   0.091   7.045   5.297  0.5957 -0.2509  0.5861
   44MOL     C718153   0.005   6.915   5.312 -0.2324 -0.2573  0.7155
   44MOL     C818154   7.728   6.944   5.389  0.5715  0.4898  0.0454
   44MOL     C918155   7.631   6.819   5.400  0.4422  0.5055 -0.1972
   44MOL    H1018156   0.145   7.433   5.505  0.0197 -0.2961 -0.5687
   44MOL    H1118157   0.038   7.314   5.564 -0.1073  0.0247  0.0296
   44MOL    H1218158   0.228   7.166   5.641  2.5698 -0.1390  0.2056
   44MOL    H1318159   0.184   7.007   5.255 -0.4681  0.6874 -2.8616
   44MOL    H1418160   0.042   7.120   5.234  1.3195 -0.6553 -0.4880
   44MOL    H1518161   7.829   6.888   5.211 -0.5369 -1.9156  1.2306
   44MOL    H1618162   0.045   6.817   5.342 -0.5418 -1.0262 -1.2987
   44MOL    H1718163   7.669   7.016   5.333 -0.4330  0.3289  0.8674
   44MOL    H1818164   7.757   6.979   5.488 -0.9468  3.3003 -0.4727
   44MOL    H1918165   7.542   6.847   5.456  1.0061 -1.2329  1.6489
   44MOL    H2018166   7.683   6.744   5.461 -2.6416  1.1991  3.4591
   44MOL    H2118167   7.602   6.780   5.303  3.1856  0.6325 -1.1236
   44MOL    H2218168   0.134   7.400   5.681  0.6819 -1.7438  0.1640
   44MOL    C2318169   0.374   7.319   5.607  0.5191  0.4059 -0.0705
   44MOL    C2418170   0.503   7.224   5.604  0.0608  0.4728 -0.2161
   44MOL    C2518171   0.627   7.290   5.650 -0.3055  0.2273 -0.4581
   44MOL    O2618172   0.720   7.303   5.572  0.0070  0.8680  0.0327
   44MOL    O2718173   0.627   7.327   5.779 -0.1422  0.1008 -0.4178
   44MOL    C2818174   0.733   7.405   5.832 -0.1137  0.4554  0.0363
   44MOL    C2918175   0.689   7.546   5.843  0.2564  0.4297 -0.1438
   44MOL    C3018176   0.793   7.636   5.912 -0.4135  0.1270 -0.5999
   44MOL    C3118177   0.783   7.788   5.884  0.4734 -0.5837  0.9568
   44MOL    H3218178   0.372   7.367   5.704  1.8456 -1.3136  0.8295
   44MOL    H3318179   0.388   7.404   5.539 -2.6300  1.3164  0.3267
   44MOL    H3418180   0.518   7.199   5.499 -0.9503  0.7855 -0.4300
   44MOL    H3518181   0.819   7.395   5.765 -0.8089 -3.1039 -0.3938
   44MOL    H3618182   0.771   7.366   5.927 -0.6437  1.2407  0.5810
   44MOL    H3718183   0.673   7.587   5.743 -0.0625 -1.1589 -0.7576
   44MOL    H3818184   0.593   7.553   5.894  0.3423  0.2900  0.0347
   44MOL    H3918185   0.894   7.604   5.886 -0.3497 -2.2257  2.3268
   44MOL    H4018186   0.788   7.618   6.019 -3.5738 -0.1648 -0.7329
   44MOL    H4118187   0.806   7.806   5.780 -0.8092 -0.8021  0.6284
   44MOL    H4218188   0.849   7.851   5.945 -0.0063 -1.3209  2.2640
   44MOL    H4318189   0.684   7.825   5.911  0.5333  0.5042 -0.3001
   44MOL    C4418190   0.480   7.096   5.700 -1.1324  0.9684 -1.1481
   44MOL    C4518191   0.601   7.000   5.740 -0.3413  0.4136 -0.4498
   44MOL    C4618192   0.569   6.899   5.859 -0.0295  1.2361  0.7641
   44MOL    O4718193   0.456   6.851   5.876 -0.3740  0.2364 -0.2134
   44MOL    O4818194   0.676   6.866   5.927  0.4390 -0.4379  0.2805
   44MOL    C4918195   0.665   6.767   6.028  0.2952  0.1913  0.1457
   44MOL    C5018196   0.705   6.625   5.999  0.5020 -0.1597  0.0019
   44MOL    C5118197   0.846   6.604   5.950  0.1653 -0.1052 -0.1550
   44MOL    C5218198   0.878   6.461   5.916  0.6488  0.7981 -0.3272
   44MOL    H5318199   0.408   7.026   5.657 -1.8830 -2.1072  4.6122
   44MOL    H5418200   0.436   7.127   5.795  0.7825  0.0920  0.0522
   44MOL    H5518201   0.677   7.062   5.787  1.0661 -2.1644  0.8322
   44MOL    H5618202   0.568   6.772   6.079  0.9053 -1.7489  1.5585
   44MOL    H5718203   0.736   6.810   6.098  1.4066 -2.5689  0.8042
   44MOL    H5818204   0.698   6.564   6.089  0.2497 -2.2202 -1.3754
   44MOL    H5918205   0.635   6.571   5.935  0.1557  1.0409 -0.6637
   44MOL    H6018206   0.906   6.621   6.039 -1.0027 -0.1625  0.6436
   44MOL    H6118207   0.874   6.674   5.871 -0.4941 -0.4553 -0.7083
   44MOL    H6218208   0.829   6.433   5.823  0.3925  0.9779 -0.2460
   44MOL    H6318209   0.846   6.402   6.001 -0.0063  0.3340 -0.8901
   44MOL    H6418210   0.984   6.445   5.898  0.3889  0.4303 -1.6146
   44MOL    C6518211   0.661   6.926   5.614  0.7492  0.3552  0.6457
   44MOL    C6618212   0.798   6.849   5.625 -0.4095 -1.2121  0.4784
   44MOL    C6718213   0.821   6.735   5.512  0.1434 -1.3718 -0.1268
   44MOL    O6818214   0.856   6.620   5.543  0.4093 -0.0052 -0.4230
   44MOL    O6918215   0.813   6.784   5.388 -0.0168  0.3226 -0.3920
   44MOL    C7018216   0.849   6.694   5.282  0.4804 -0.7774 -0.1973
   44MOL    C7118217   0.998   6.695   5.238 -0.1321  0.3109  0.6643
   44MOL    C7218218   1.034   6.626   5.106  0.0645 -0.0736  0.0203
   44MOL    C7318219   0.941   6.665   4.988  0.0377  0.3430  0.5743
   44MOL    H7418220   0.674   7.001   5.536 -0.9849 -0.6405 -0.6427
   44MOL    H7518221   0.588   6.852   5.581  0.4119  1.6294 -1.5376
   44MOL    H7618222   0.805   6.806   5.725  1.5791 -1.9547  0.0493
   44MOL    H7718223   0.800   6.737   5.195  0.1169 -0.3455  0.2147
   44MOL    H7818224   0.811   6.595   5.304  0.5442 -0.4420  1.5247
   44MOL    H7918225   1.022   6.801   5.228 -1.3599  0.3470 -2.3025
   44MOL    H8018226   1.051   6.653   5.324  0.7991  0.3380  0.1082
   44MOL    H8118227   1.028   6.517   5.118 -1.5128  0.0915  0.9114
   44MOL    H8218228   1.136   6.638   5.069  0.4959  0.4851  1.3666
   44MOL    H8318229   1.004   6.659   4.900  1.3454 -0.1755  1.5335
   44MOL    H8418230   0.921   6.771   5.005  0.9561  0.7006 -0.5733
   44MOL    H8518231   0.844   6.614   4.980  1.7478 -2.7670 -1.4520
   44MOL    C8618232   0.916   6.954   5.615 -0.3808  0.6499 -0.3310
   44MOL    C8718233   1.044   6.925   5.699 -0.7477  1.0063  0.7118
   44MOL    C8818234   1.126   6.807   5.653  0.2778 -0.0153  0.0841
   44MOL    O8918235   1.147   6.789   5.535  0.0441  0.3148  0.0257
   44MOL    O9018236   1.184   6.744   5.756 -0.0691 -0.0885 -0.1712
   44MOL    C9118237   1.278   6.641   5.734 -0.5279  0.0161  0.2159
   44MOL    C9218238   1.302   6.563   5.860 -0.2354 -0.3080  0.1842
   44MOL    C9318239   1.381   6.440   5.835 -0.6142 -0.0150  0.5420
   44MOL    C9418240   1.401   6.340   5.953  0.4525 -0.0799  0.0873
   44MOL    H9518241   0.875   7.050   5.647 -1.8826  0.0446 -0.3781
   44MOL    H9618242   0.941   6.979   5.512 -0.0180 -0.1537 -0.4360
   44MOL    H9718243   1.012   6.903   5.801  1.7697  0.1244  1.3343
   44MOL    H9818244   1.372   6.686   5.701 -0.4940  0.9195  1.5038
   44MOL    H9918245   1.247   6.585   5.645  0.8010 -0.4796  0.0652
   44MOL   H10018246   1.342   6.623   5.942 -1.1964  1.1530 -0.4100
   44MOL   H10118247   1.207   6.524   5.897 -0.8371 -1.0391 -2.0913
   44MOL   H10218248   1.473   6.495   5.815 -2.3206  2.3557 -0.9554
   44MOL   H10318249   1.368   6.388   5.740  0.8483  0.2192  0.1937
   44MOL   H10418250   1.419   6.238   5.919 -0.1185 -0.0007 -0.4648
   44MOL   H10518251   1.303   6.338   6.003 -0.2034 -0.4482 -1.1969
   44MOL   H10618252   1.470   6.377   6.028 -0.3546  1.5165  0.0741
   44MOL   C10718253   1.138   7.048   5.701  0.0919 -0.0807  0.1305
   44MOL   C10818254   1.082   7.174   5.771  0.3354  0.4870 -0.3925
   44MOL   C10918255   1.017   7.139   5.905  0.6358  0.1681 -0.7280
   44MOL   O11018256   0.903   7.175   5.938 -0.6130 -0.1554  0.0519
   44MOL   O11118257   1.097   7.060   5.985 -0.1600  0.8056 -0.1518
   44MOL   C11218258   1.061   7.053   6.122  0.3839 -0.9518 -0.1336
   44MOL   C11318259   1.139   6.945   6.190 -0.5045 -0.5143 -0.2880
   44MOL   C11418260   1.072   6.808   6.162  0.2277 -0.4659 -0.5498
   44MOL   C11518261   1.158   6.685   6.195 -0.5372  0.4980 -0.1548
   44MOL   H11618262   1.175   7.078   5.603  2.5710 -2.5538  0.2747
   44MOL   H11718263   1.229   7.027   5.757 -0.8954  0.4597  1.9797
   44MOL   H11818264   1.006   7.226   5.712 -0.4510  0.1401  0.3112
   44MOL   H11918265   0.958   7.020   6.122  0.1031 -0.2034 -2.7508
   44MOL   H12018266   1.072   7.149   6.174  0.0903 -1.0276  0.0636
   44MOL   H12118267   1.245   6.944   6.165 -0.6382  0.9912 -0.9516
   44MOL   H12218268   1.140   6.967   6.297 -1.4562  0.4792 -0.4720
   44MOL   H12318269   1.058   6.809   6.054 -0.0985 -0.7781 -0.5095
   44MOL   H12418270   0.971   6.800   6.202  0.7956  0.4802  1.1327
   44MOL   H12518271   1.260   6.678   6.158 -0.4350  0.1623  0.1823
   44MOL   H12618272   1.127   6.586   6.161  1.7238 -0.0344 -0.7607
   44MOL   H12718273   1.177   6.660   6.300  0.5664 -0.2492 -0.5211
   44MOL   C12818274   1.175   7.297   5.794 -0.1539  0.8978 -0.4180
   44MOL   C12918275   1.257   7.339   5.679  0.0608  0.5594  0.0484
   44MOL   C13018276   1.177   7.378   5.549 -0.2615 -0.3586 -0.5445
   44MOL   O13118277   1.223   7.353   5.441  0.3556  0.1558  0.4007
   44MOL   O13218278   1.054   7.443   5.570 -0.8319  0.1802 -0.0512
   44MOL   C13318279   0.996   7.488   5.450 -0.2008  0.7571  0.2540
   44MOL   C13418280   1.040   7.637   5.420 -0.3096 -0.5977  0.0224
   44MOL   C13518281   0.996   7.729   5.539  0.0340  0.3209  0.6305
   44MOL   C13618282   1.012   0.018   5.501 -0.7554 -0.4350 -0.2369
   44MOL   H13718283   1.241   7.264   5.874 -1.2642 -2.1256 -0.6470
   44MOL   H13818284   1.106   7.375   5.827  0.2534  0.8739  0.4976
   44MOL   H13918285   1.322   7.252   5.672 -1.4074 -0.6956  1.6514
   44MOL   H14018286   0.888   7.486   5.467 -0.1110 -1.9994  0.6821
   44MOL   H14118287   1.017   7.418   5.370 -0.4131  1.4020 -0.3632
   44MOL   H14218288   1.145   7.656   5.401 -0.4596  0.4427  0.1532
   44MOL   H14318289   0.974   7.662   5.336 -1.6840 -2.8849  0.3760
   44MOL   H14418290   1.062   7.712   5.624  0.9147 -1.3986 -0.3696
   44MOL   H14518291   0.900   7.710   5.587  0.8044  1.2993  2.6303
   44MOL   H14618292   1.118   0.021   5.474 -0.7463 -1.8437 -0.4015
   44MOL   H14718293   1.020   0.095   5.578 -1.0936  0.1285 -0.7649
   44MOL   H14818294   0.944   0.055   5.425  0.5173 -1.3474 -1.8661
   44MOL   C14918295   1.359   7.441   5.730  0.4685 -0.5886  0.1940
   44MOL   C15018296   1.484   7.479   5.635 -0.0751 -0.6228  0.0202
   44MOL   C15118297   1.466   7.600   5.544 -0.5725 -0.3069  0.1250
   44MOL   O15218298   1.366   7.671   5.556 -0.2336 -0.4930  0.1260
   44MOL   O15318299   1.568   7.625   5.457  0.2629  0.5688 -0.4150
   44MOL   C15418300   1.573   7.748   5.396 -0.3229 -0.3252  0.0319
   44MOL   C15518301   1.511   7.750   5.252  0.1338  0.0937 -0.3153
   44MOL   C15618302   1.386   7.678   5.231  0.6884  0.3585  0.3008
   44MOL   C15718303   1.378   7.650   5.075  0.3645  0.7875  0.5112
   44MOL   H15818304   1.399   7.401   5.823 -1.1099 -0.4345  0.9513
   44MOL   H15918305   1.304   7.530   5.760  1.8250  1.3433 -2.8290
   44MOL   H16018306   1.497   7.403   5.557 -0.1161 -1.1172  0.4890
   44MOL   H16118307   1.681   7.763   5.391  0.0460 -2.1254  1.8392
   44MOL   H16218308   1.540   7.834   5.456 -0.8202 -0.6282  0.1912
   44MOL   H16318309   1.493   7.853   5.220 -2.1943 -0.3039 -0.3283
   44MOL   H16418310   1.593   7.709   5.193  0.3471 -0.8337  0.6043
   44MOL   H16518311   1.298   7.735   5.259 -0.9133 -2.9574  2.4028
   44MOL   H16618312   1.391   7.582   5.284  0.4199 -1.2394 -2.4868
   44MOL   H16718313   1.463   7.590   5.041  1.1481  2.4398 -0.5224
   44MOL   H16818314   1.380   7.742   5.016 -2.2824 -0.1407 -1.1123
   44MOL   H16918315   1.293   7.596   5.033 -0.1395  0.2962  2.1430
   44MOL   C17018316   1.620   7.488   5.713  0.3665  0.5993 -0.0055
   44MOL   C17118317   1.687   7.351   5.737 -0.5118 -0.1840  0.7500
   44MOL   C17218318   1.799   7.338   5.636 -0.7050 -0.1323  0.0512
   44MOL   O17318319   1.920   7.323   5.667  0.6054 -0.1140  0.2831
   44MOL   O17418320   1.751   7.313   5.513  0.0981  0.1885 -0.1122
   44MOL   C17518321   1.846   7.291   5.409 -0.2174 -0.5526  0.2477
   44MOL   C17618322   1.755   7.277   5.287  0.2655 -0.5074 -0.2053
   44MOL   C17718323   1.734   7.412   5.216  0.7470  0.0357  0.1856
   44MOL   C17818324   1.677   7.398   5.071  0.1497 -0.7606  0.1515
   44MOL   H17918325   1.605   7.531   5.812  0.4497  1.0595 -0.1941
   44MOL   H18018326   1.692   7.558   5.671 -0.1219  0.8936 -0.3567
   44MOL   H18118327   1.627   7.262   5.717 -0.4081 -0.0474 -0.2210
   44MOL   H18218328   1.900   7.199   5.430  0.6174 -0.1331 -0.0064
   44MOL   H18318329   1.924   7.367   5.407 -0.0698 -0.7205 -0.4949
   44MOL   H18418330   1.809   7.205   5.225 -1.7230 -1.4451 -0.9173
   44MOL   H18518331   1.665   7.221   5.314  0.5192 -0.3531  1.0151
   44MOL   H18618332   1.831   7.462   5.217  1.3802 -1.1876  1.6701
   44MOL   H18718333   1.666   7.482   5.265 -1.0533 -1.0865 -0.6603
   44MOL   H18818334   1.750   7.332   5.023 -0.9974 -1.2512 -0.9647
   44MOL   H18918335   1.670   7.494   5.021 -0.6996 -0.5503  0.6651
   44MOL   H19018336   1.576   7.356   5.068  0.2530 -1.1985  2.0527
   44MOL   C19118337   1.753   7.330   5.881 -0.6307  0.1694  0.4953
   44MOL   C19218338   1.655   7.328   6.001 -0.2993  0.3078  0.3375
   44MOL   C19318339   1.584   7.201   6.015  0.3589  0.3589 -0.1303
   44MOL   O19418340   1.464   7.194   5.991 -0.3519 -0.1995  0.2469
   44MOL   O19518341   1.667   7.103   6.053 -0.0374 -0.0174 -0.1325
   44MOL   C19618342   1.610   6.973   6.064  0.0836  0.3590 -0.3952
   44MOL   C19718343   1.731   6.871   6.047  0.8701 -0.5511 -0.1816
   44MOL   C19818344   1.667   6.731   6.018 -0.4681  0.4888  0.0945
   44MOL   C19918345   1.773   6.624   6.018  0.4189 -0.4015 -0.4048
   44MOL   H20018346   1.827   7.407   5.907  0.5267 -0.2012 -1.5198
   44MOL   H20118347   1.823   7.246   5.886  0.6079  1.2340  1.4939
   44MOL   H20218348   1.583   7.408   5.986 -0.4250  0.4234  1.5371
   44MOL   H20318349   1.562   6.957   5.967  0.8693 -1.9743 -0.4292
   44MOL   H20418350   1.554   6.948   6.153  0.1864  1.8455  0.1043
   44MOL   H20518351   1.791   6.901   5.962  0.8784  2.8513  0.9678
   44MOL   H20618352   1.786   6.861   6.141  0.4585 -3.6849 -0.1993
   44MOL   H20718353   1.633   6.737   5.914  0.7732  0.3177 -0.3268
   44MOL   H20818354   1.577   6.702   6.071  1.2515 -1.9771  1.7773
   44MOL   H20918355   1.868   6.642   5.967 -0.0183  0.2839 -0.9732
   44MOL   H21018356   1.716   6.536   5.988 -0.9459  1.1296 -2.3755
   44MOL   H21118357   1.803   6.610   6.122 -0.2813  0.4656 -0.0791
   44MOL   C21218358   1.737   7.371   6.128  1.0455  0.6159  0.2215
   44MOL   C21318359   1.644   7.382   6.254 -0.9316  0.2397  0.3165
   44MOL   C21418360   1.686   7.288   6.368  0.4073  0.9445 -0.1495
   44MOL   O21518361   1.614   7.199   6.401  0.1522  0.3652 -0.3826
   44MOL   O21618362   1.805   7.313   6.420 -0.1149 -0.3079 -0.4013
   44MOL   C21718363   1.849   7.219   6.518 -0.2262  0.9910  0.4174
   44MOL   C21818364   1.947   7.108   6.468 -0.3218  0.5347  1.0418
   44MOL   C21918365   1.995   7.016   6.580 -0.5069  0.1020  0.7876
   44MOL   C22018366   2.093   6.909   6.525 -0.8599  0.1186  0.5469
   44MOL   H22118367   1.792   7.463   6.111  0.3159  0.9546 -0.3139
   44MOL   H22218368   1.819   7.302   6.148 -0.4934 -1.2335  0.4042
   44MOL   H22318369   1.544   7.342   6.239  0.7293 -4.0760  0.0083
   44MOL   H22418370   1.769   7.172   6.576  0.5267 -1.4956 -0.5382
   44MOL   H22518371   1.903   7.275   6.595  1.3492  0.5925 -0.3968
   44MOL   H22618372   1.908   7.052   6.383 -2.7211  0.6027  2.0529
   44MOL   H22718373   2.029   7.161   6.420 -1.3203  0.0946 -1.2277
   44MOL   H22818374   1.903   6.975   6.623 -1.2420  1.2526  0.3600
   44MOL   H22918375   2.052   7.070   6.656  1.9188 -0.9627 -0.2264
   44MOL   H23018376   2.043   6.850   6.447  0.5717  2.5470 -2.3155
   44MOL   H23118377   2.120   6.836   6.602 -1.0444 -0.6882 -0.1403
   44MOL   H23218378   2.184   6.950   6.480 -2.7291  1.3404 -2.2995
   44MOL   C23318379   1.641   7.538   6.302  0.1587  0.4853  0.4433
   44MOL   C23418380   1.589   7.631   6.192 -0.0189  0.3144 -0.1792
   44MOL   C23518381   1.437   7.634   6.187 -1.0889 -0.2464  0.6686
   44MOL   O23618382   1.378   7.737   6.152  0.7162 -0.0097 -0.4661
   44MOL   O23718383   1.374   7.528   6.226  0.1231 -0.7631 -1.3091
   44MOL   C23818384   1.230   7.527   6.229  0.4699  0.0476 -0.3835
   44MOL   C23918385   1.182   7.390   6.287  0.6945 -0.0476  0.0278
   44MOL   C24018386   1.021   7.390   6.313  0.3759  0.3333  0.5596
   44MOL   C24118387   0.950   7.447   6.187  0.5930  0.8809  0.5266
   44MOL   H24218388   1.741   7.567   6.336 -0.0920  3.4001 -1.2553
   44MOL   H24318389   1.593   7.551   6.399  0.6338  2.0464  0.4701
   44MOL   H24418390   1.615   7.607   6.089  2.3671  2.6301 -0.1725
   44MOL   H24518391   1.184   7.537   6.130  1.1091  0.1947 -0.6690
   44MOL   H24618392   1.195   7.615   6.284  2.5086  0.0449  0.9438
   44MOL   H24718393   1.207   7.311   6.217 -2.3467  0.0708 -1.2541
   44MOL   H24818394   1.232   7.371   6.382  1.1208 -0.8935 -0.3595
   44MOL   H24918395   0.999   7.459   6.394 -0.9321 -0.7952  1.1816
   44MOL   H25018396   0.987   7.288   6.331 -0.0329  0.3578 -0.0441
   44MOL   H25118397   0.946   7.556   6.179  5.3564  1.0982 -0.3016
   44MOL   H25218398   0.843   7.423   6.187  0.2869  2.1728 -0.8247
   44MOL   H25318399   0.994   7.411   6.094  0.3594 -2.3712  1.6137
   44MOL   C25418400   1.657   7.772   6.209  0.7101 -0.0898  0.1243
   44MOL   C25518401   1.802   7.780   6.161  0.3918  0.3904 -0.0447
   44MOL   C25618402   1.805   7.794   6.001  0.9678  0.3176 -0.7317
   44MOL   O25718403   1.843   7.700   5.936 -0.5474  0.4753 -1.1639
   44MOL   O25818404   1.742   0.051   5.962 -0.2393  0.2915  0.2253
   44MOL   C25918405   1.723   0.071   5.824  0.3730 -0.3462 -0.2415
   44MOL   C26018406   1.579   0.031   5.793 -0.4474 -0.7294  0.6296
   44MOL   C26118407   1.470   0.111   5.876 -0.1385  0.2036  0.5163
   44MOL   C26218408   1.326   0.081   5.833 -0.2354 -0.3834  0.4429
   44MOL   H26318409   1.651   7.822   6.306  1.9393  2.1597 -0.9262
   44MOL   H26418410   1.597   7.844   6.154  2.5300 -0.6491 -2.6934
   44MOL   H26518411   1.856   7.688   6.187  0.9588  0.7546  0.0673
   44MOL   H26618412   1.800   0.037   5.755 -0.5062 -2.6937 -0.1429
   44MOL   H26718413   1.730   0.179   5.825 -0.8750 -0.2585 -0.1761
   44MOL   H26818414   1.555   0.046   5.688 -2.6698 -2.4796  0.8448
   44MOL   H26918415   1.580   7.775   5.790 -0.8562 -0.7039 -1.1950
   44MOL   H27018416   1.487   0.217   5.859  0.3517 -0.1200 -1.1755
   44MOL   H27118417   1.480   0.106   5.984 -0.0128 -0.2382  0.4886
   44MOL   H27218418   1.323   0.084   5.724  0.0098  0.8438  0.4660
   44MOL   H27318419   1.259   0.158   5.871 -1.5854 -1.5137  0.3836
   44MOL   H27418420   1.302   7.836   5.874  0.4914 -1.4459 -1.6224
   44MOL   C27518421   1.883   0.052   6.203  0.0155  0.0008  0.6551
   44MOL   C27618422   2.043   0.037   6.193 -0.4583  0.0879 -0.2152
   44MOL   C27718423   2.114   0.170   6.238  0.1579 -0.3288 -1.4824
   44MOL   O27818424   2.170   0.248   6.162  0.4875 -0.5018 -0.0602
   44MOL   O27918425   2.071   0.213   6.360  0.1233 -0.4902 -0.2338
   44MOL   C28018426   2.118   0.338   6.414 -0.6410  0.7522 -0.6338
   44MOL   C28118427   2.043   0.368   6.544 -0.0842 -0.0665  0.3968
   44MOL   C28218428   2.094   0.305   6.679 -0.3227  0.0479  0.2225
   44MOL   C28318429   1.989   0.322   6.787  1.0466 -0.5701 -0.3245
   44MOL   H28418430   1.857   0.075   6.306 -2.4699  0.2235  0.0229
   44MOL   H28518431   1.851   0.140   6.146 -4.2477 -0.9273  1.4262
   44MOL   H28618432   2.074   0.030   6.089 -1.9104  1.8415 -0.7898
   44MOL   H28718433   2.111   0.422   6.345 -1.8553  2.0708  1.0336
   44MOL   H28818434   2.225   0.328   6.435 -0.7250  0.2957 -0.4201
   44MOL   H28918435   2.046   0.477   6.554  1.2491 -0.0181 -0.3697
   44MOL   H29018436   1.939   0.338   6.532  0.2237 -0.5907 -1.0607
   44MOL   H29118437   2.188   0.357   6.697 -0.2530  0.3164 -0.9050
   44MOL   H29218438   2.117   0.200   6.662  1.2436  0.1813  1.3546
   44MOL   H29318439   1.909   0.248   6.780  1.0198 -0.6014  0.2376
   44MOL   H29418440   1.957   0.426   6.783  1.5377 -0.3076  1.8019
   44MOL   H29518441   2.032   0.305   6.886  0.1127 -3.4776 -0.3744
   44MOL   C29618442   2.107   7.773   6.278  0.3350 -1.1941  0.5062
   44MOL   C29718443   2.170   7.657   6.197 -1.0901 -0.5441 -0.0907
   44MOL   C29818444   2.312   7.682   6.140 -0.9711 -0.5136  0.1738
   44MOL   O29918445   2.369   7.786   6.169  0.0331 -0.2886 -0.2036
   44MOL   O30018446   2.352   7.581   6.054 -0.1182  0.1123  0.0716
   44MOL   C30118447   2.482   7.594   5.995 -0.3263  0.6199 -0.2612
   44MOL   C30218448   2.464   7.620   5.848 -0.2902 -0.3172 -0.0659
   44MOL   C30318449   2.392   7.513   5.770  0.0187  0.2789  0.5259
   44MOL   C30418450   2.245   7.499   5.811 -0.5355  0.1296  0.1936
   44MOL   H30518451   2.026   7.741   6.344  0.9756 -0.0756  1.8710
   44MOL   H30618452   2.183   7.809   6.348  2.9287 -1.7259 -1.9478
   44MOL   H30718453   2.102   7.635   6.115 -0.2835 -3.0154 -0.1472
   44MOL   H30818454   2.536   7.500   6.004  0.5563  1.1844  0.3255
   44MOL   H30918455   2.542   7.671   6.042  0.5958 -0.2611  0.0329
   44MOL   H31018456   2.423   7.720   5.832  2.9747  1.0690 -0.1598
   44MOL   H31118457   2.561   7.635   5.800  0.6879  1.0659  2.2779
   44MOL   H31218458   2.442   7.418   5.787 -1.3710 -0.4816  0.4207
   44MOL   H31318459   2.407   7.529   5.663  0.7085 -1.4194  0.3649
   44MOL   H31418460   2.190   7.432   5.745 -1.8219  1.0654  0.3095
   44MOL   H31518461   2.202   7.599   5.818  0.0611  0.2845  1.9135
   44MOL   H31618462   2.235   7.442   5.903 -1.8510 -0.2635 -0.1908
   44MOL   C31718463   2.169   7.520   6.271 -0.6739 -0.4577  0.1938
   44MOL   C31818464   2.265   7.507   6.396 -0.2296  0.6758  0.6524
   44MOL   C31918465   2.186   7.494   6.522 -0.2197 -0.3976 -0.3071
   44MOL   O32018466   2.170   7.380   6.570 -0.6158 -0.2181 -0.1779
   44MOL   O32118467   2.172   7.610   6.586 -0.3633  0.0986  0.0431
   44MOL   C32218468   2.115   7.605   6.713 -0.7221 -0.0726  0.6447
   44MOL   C32318469   1.963   7.620   6.708 -0.4273  0.5721 -0.0700
   44MOL   C32418470   1.929   7.765   6.661 -0.0576  0.5411  0.1940
   44MOL   C32518471   1.781   7.785   6.623  0.0544 -0.7489 -0.5361
   44MOL   H32618472   2.194   7.439   6.202  1.6029  0.1795  0.2041
   44MOL   H32718473   2.069   7.493   6.304 -0.2027 -0.0455  2.0344
   44MOL   H32818474   2.317   7.603   6.392  1.2415 -0.1752 -1.0310
   44MOL   H32918475   2.164   7.692   6.757  1.4258 -0.3304 -1.1340
   44MOL   H33018476   2.145   7.517   6.770 -0.5354 -2.1844 -2.5908
   44MOL   H33118477   1.928   7.547   6.634  0.0157  1.9874 -1.7014
   44MOL   H33218478   1.921   7.603   6.807  0.2413  1.4389  0.3646
   44MOL   H33318479   1.984   7.812   6.580 -0.3519 -1.4111 -1.1711
   44MOL   H33418480   1.944   7.825   6.751 -2.0022 -2.0066  2.3104
   44MOL   H33518481   1.752   7.722   6.539  2.4842 -1.1785 -1.1073
   44MOL   H33618482   1.763   0.034   6.591  2.2388  0.0746  0.7288
   44MOL   H33718483   1.720   7.760   6.709  0.4693  2.3463  0.6973
   44MOL   C33818484   2.365   7.388   6.378  0.3306  0.1545  0.1105
   44MOL   C33918485   2.507   7.409   6.440  0.2657  0.5727 -0.1095
   44MOL   C34018486   2.591   7.521   6.372  0.2596  0.6014  0.2314
   44MOL   O34118487   2.625   7.501   6.252  0.0122 -0.2997 -0.3651
   44MOL   O34218488   2.602   7.632   6.459 -0.2108 -0.2970  0.7220
   44MOL   C34318489   2.664   7.750   6.408  1.2851 -0.1248  0.0291
   44MOL   C34418490   2.664   0.010   6.518  0.0222  0.6777  0.2578
   44MOL   C34518491   2.529   0.075   6.551  0.3435 -0.1854  1.1023
   44MOL   C34618492   2.469   0.156   6.431  0.1400 -0.4651 -0.1331
   44MOL   H34718493   2.385   7.362   6.274 -0.0764 -0.7084  0.2427
   44MOL   H34818494   2.330   7.291   6.414  3.6171 -0.8237  0.9027
   44MOL   H34918495   2.562   7.320   6.410  2.0030  1.4199  0.4529
   44MOL   H35018496   2.604   7.782   6.323 -0.2213 -1.6970  0.4689
   44MOL   H35118497   2.764   7.733   6.368  1.0626  2.0345 -1.4837
   44MOL   H35218498   2.703   7.809   6.605 -0.4859 -1.6622 -0.9207
   44MOL   H35318499   2.744   0.081   6.493 -0.9124  1.3413 -0.8868
   44MOL   H35418500   2.541   0.131   6.644 -0.0713  1.7412  0.0199
   44MOL   H35518501   2.455   7.849   6.562  0.4821 -0.4669  0.0763
   44MOL   H35618502   2.540   0.229   6.392 -2.2759  1.8304 -0.3495
   44MOL   H35718503   2.380   0.203   6.473 -0.4365 -1.5975 -0.0584
   44MOL   H35818504   2.439   0.094   6.347  0.3722 -1.4324  0.4864
   44MOL   C35918505   2.503   7.413   6.602 -0.7022  0.2140  0.7533
   44MOL   C36018506   2.625   7.350   6.666  1.1119  0.3203 -0.5485
   44MOL   C36118507   2.754   7.434   6.672  0.4368  1.1355 -0.6458
   44MOL   O36218508   2.863   7.386   6.640  0.1780 -0.5072 -0.5600
   44MOL   O36318509   2.734   7.558   6.727 -0.2176 -0.2317 -0.1787
   44MOL   C36418510   2.842   7.603   6.809  0.3260  0.2496 -0.3165
   44MOL   C36518511   2.803   7.738   6.877 -0.4069  1.3219  0.4288
   44MOL   C36618512   2.688   7.732   6.977 -0.0382  0.2419 -0.0019
   44MOL   C36718513   2.673   0.019   7.052  0.3318  0.3826  0.3687
   44MOL   H36818514   2.417   7.351   6.627 -1.4621  0.5289 -0.9890
   44MOL   H36918515   2.479   7.510   6.646 -2.6995  0.8913 -1.6920
   44MOL   H37018516   2.665   7.277   6.595 -0.8745 -0.4649 -0.8927
   44MOL   H37118517   2.932   7.615   6.748  1.0290  0.2110  0.6844
   44MOL   H37218518   2.868   7.538   6.893  0.4689  0.9912  0.2155
   44MOL   H37318519   2.898   7.772   6.918  0.9627 -0.4206 -1.1683
   44MOL   H37418520   2.772   7.819   6.811 -1.7463  0.0454 -0.5316
   44MOL   H37518521   2.701   7.647   7.044  1.3531 -0.0734 -0.6340
   44MOL   H37618522   2.589   7.715   6.936  0.2508 -3.0912  0.5262
   44MOL   H37718523   2.587   0.029   7.118 -1.9064 -4.7735 -1.4764
   44MOL   H37818524   2.679   0.106   6.986  0.8675 -0.8825 -1.2889
   44MOL   H37918525   2.755   0.015   7.124  0.6801 -2.4096 -0.1196
   44MOL   C38018526   2.590   7.301   6.808 -0.1922  0.2996 -0.0618
   44MOL   C38118527   2.532   7.149   6.801  0.2270 -0.2304  0.3269
   44MOL   C38218528   2.632   7.051   6.738  0.3417  0.2775 -0.0288
   44MOL   O38318529   2.611   6.986   6.634  0.3053  0.1149  0.4405
   44MOL   O38418530   2.748   7.051   6.806  0.4209  0.1432 -0.5998
   44MOL   C38518531   2.852   6.979   6.749 -0.0229  0.0527  0.4156
   44MOL   C38618532   2.935   7.061   6.644  0.2950  0.5173  0.0923
   44MOL   C38718533   3.069   6.989   6.607 -0.1462 -0.0342  0.2045
   44MOL   C38818534   3.150   7.063   6.502 -0.1698  0.4631  0.3360
   44MOL   H38918535   2.524   7.368   6.863 -0.0030 -0.7890  1.5315
   44MOL   H39018536   2.682   7.289   6.864 -0.1442  0.5073 -0.0970
   44MOL   H39118537   2.446   7.133   6.735 -0.0345  0.2312  0.5543
   44MOL   H39218538   2.819   6.888   6.699 -0.5080  0.4002  0.1118
   44MOL   H39318539   2.921   6.938   6.823  0.6474 -0.0315 -0.2486
   44MOL   H39418540   2.876   7.078   6.555  2.0009  0.3914 -1.0940
   44MOL   H39518541   2.946   7.165   6.678 -1.7810  0.6609  0.3832
   44MOL   H39618542   3.037   6.893   6.567 -2.7061  0.8156  0.1316
   44MOL   H39718543   3.125   6.968   6.699 -2.1519 -0.2892  1.4029
   44MOL   H39818544   3.159   7.170   6.518 -2.1024  0.5873  0.7272
   44MOL   H39918545   3.114   7.049   6.400  1.3805 -2.1953  0.0980
   44MOL   H40018546   3.251   7.021   6.498  0.4323  1.3138  4.2802
   44MOL   C40118547   2.484   7.094   6.941 -0.2604  0.3868  0.0860
   44MOL   C40218548   2.383   7.167   7.024  1.1935  0.2755 -0.2811
   44MOL   C40318549   2.240   7.166   6.967  0.5741  0.4586 -0.6547
   44MOL   O40418550   2.210   7.104   6.864  0.0649 -0.7365 -0.0788
   44MOL   O40518551   2.162   7.250   7.038  0.1456 -0.4870  0.4705
   44MOL   C40618552   2.026   7.273   6.998 -0.1428  0.4230  0.5790
   44MOL   C40718553   1.922   7.240   7.108 -0.1066  1.0774 -0.2826
   44MOL   C40818554   1.910   7.090   7.137  0.4965 -0.1187  0.4562
   44MOL   C40918555   1.782   7.062   7.210  0.4437 -0.7277  0.8990
   44MOL   H41018556   2.579   7.078   6.994  0.7860  0.4165 -1.7592
   44MOL   H41118557   2.449   6.992   6.922 -0.5547  0.1001  1.9946
   44MOL   H41218558   2.422   7.269   7.027  1.6794  0.1062 -0.8618
   44MOL   H41318559   2.002   7.217   6.908 -1.3356  0.5920  0.7836
   44MOL   H41418560   2.020   7.378   6.971 -1.9077 -0.3421 -2.1286
   44MOL   H41518561   1.956   7.291   7.199 -0.1321  2.4131 -1.0063
   44MOL   H41618562   1.827   7.289   7.089 -0.0860  1.6073  0.9066
   44MOL   H41718563   1.993   7.047   7.194  0.3270  0.0623  0.8423
   44MOL   H41818564   1.908   7.045   7.038 -0.9701  0.2545  0.3140
   44MOL   H41918565   1.770   7.134   7.291 -0.9171  1.4702 -1.1984
   44MOL   H42018566   1.779   6.959   7.244 -1.3971 -0.5088  1.4736
   44MOL   H42118567   1.703   7.080   7.138  0.3056  2.3669  1.7349
   44MOL   H42218568   2.382   7.118   7.121 -2.4855  1.8961  0.6102
   45MOL     C118569   6.960   0.597   7.652 -1.0532  0.1960 -0.1544
   45MOL     C218570   6.990   0.448   7.637 -0.3225 -0.2495  0.1124
   45MOL     C318571   7.045   0.410   7.502  0.3478  0.6682 -0.2005
   45MOL     O418572   7.159   0.354   7.492  0.9259 -0.6717  0.1458
   45MOL     O518573   6.962   0.434   7.399  0.0505 -0.5970 -0.9994
   45MOL     C618574   7.001   0.400   7.265  0.1620  0.0658  0.1246
   45MOL     C718575   6.880   0.420   7.176 -0.1814 -0.8012  0.3557
   45MOL     C818576   6.906   0.402   7.028  0.1681 -0.5384 -0.9958
   45MOL     C918577   6.790   0.440   6.939  0.4773 -0.9934  0.2580
   45MOL    H1018578   6.917   0.629   7.747 -0.2070  0.0787  0.2759
   45MOL    H1118579   7.058   0.645   7.646 -0.3848 -1.2335 -0.7524
   45MOL    H1218580   6.888   0.409   7.645 -0.0364 -1.4304 -1.7913
   45MOL    H1318581   7.036   0.298   7.248 -0.3368  0.0705 -0.9772
   45MOL    H1418582   7.085   0.465   7.242 -0.1826 -0.3770 -2.4643
   45MOL    H1518583   6.806   0.345   7.203  1.3714 -2.4260  0.1915
   45MOL    H1618584   6.840   0.521   7.185  0.0977 -0.6824  0.2876
   45MOL    H1718585   6.919   0.295   7.015  2.2350 -0.5527  0.9229
   45MOL    H1818586   6.998   0.458   7.010  1.0070 -1.4430  0.4002
   45MOL    H1918587   6.781   0.544   6.969 -0.2844 -1.2574  0.9731
   45MOL    H2018588   6.694   0.395   6.966 -0.0543  0.2247  0.4123
   45MOL    H2118589   6.807   0.442   6.831 -2.4676  0.7487 -0.2302
   45MOL    H2218590   6.892   0.628   7.573 -0.8749 -1.4339 -0.9564
   45MOL    C2318591   7.076   0.399   7.754  0.5532 -0.2230 -0.6366
   45MOL    C2418592   7.012   0.396   0.036  0.8058  0.1245  0.2045
   45MOL    C2518593   6.898   0.295   0.040  0.1200  0.3515 -0.2040
   45MOL    O2618594   6.789   0.329   0.002  0.1958  0.6030  0.1717
   45MOL    O2718595   6.920   0.170   0.087 -0.5379 -0.1461 -0.4398
   45MOL    C2818596   6.816   0.073   0.095 -0.4795  0.2972 -0.2069
   45MOL    C2918597   6.841   7.830   0.210 -0.1589 -0.0688  0.0464
   45MOL    C3018598   6.966   7.746   0.206  0.1086 -0.2582 -0.0929
   45MOL    C3118599   6.970   7.632   0.100  0.8250  0.1918  0.3156
   45MOL    H3218600   7.171   0.452   7.758  1.0224 -1.1222  0.5833
   45MOL    H3318601   7.092   0.292   7.739 -0.3275 -0.4271 -0.1867
   45MOL    H3418602   6.967   0.492   0.061  1.1200 -0.2328  2.2580
   45MOL    H3518603   6.818   0.024   7.852  0.3832  0.0890 -0.0880
   45MOL    H3618604   6.725   0.128   0.118 -0.7859 -1.3594  2.8270
   45MOL    H3718605   6.838   0.029   0.306  0.3526 -1.5112  0.8731
   45MOL    H3818606   6.759   7.758   0.218 -0.7397  0.6653  0.7518
   45MOL    H3918607   6.981   7.699   0.304  0.2672 -0.2949 -0.1356
   45MOL    H4018608   7.052   7.811   0.194  0.8671 -1.2600 -0.1815
   45MOL    H4118609   6.885   7.570   0.127  1.0310  0.5177  1.7543
   45MOL    H4218610   7.059   7.569   0.095  0.8030 -0.0428  2.5087
   45MOL    H4318611   6.958   7.670   7.851 -1.9297 -1.1395  0.1035
   45MOL    C4418612   7.121   0.358   0.154  0.0195  0.3074 -0.1396
   45MOL    C4518613   7.230   0.462   0.186  0.6113  0.2635  0.4046
   45MOL    C4618614   7.171   0.603   0.206 -0.3374  0.3402  0.9368
   45MOL    O4718615   7.185   0.686   0.119  0.7213 -0.2069 -0.1448
   45MOL    O4818616   7.093   0.612   0.314 -0.5663  0.1176  0.0608
   45MOL    C4918617   7.025   0.733   0.344  0.0950 -0.5883 -0.6173
   45MOL    C5018618   7.006   0.751   0.497 -0.9667  0.3034 -0.2058
   45MOL    C5118619   6.893   0.670   0.559 -0.4001  0.8346  0.9929
   45MOL    C5218620   6.886   0.671   0.706  0.2272  0.3158  0.8360
   45MOL    H5318621   7.169   0.262   0.133  0.7000  0.6810 -0.3252
   45MOL    H5418622   7.069   0.344   0.248 -0.0732 -0.5682 -0.3213
   45MOL    H5518623   7.292   0.464   0.096 -0.3863  1.0223 -0.2788
   45MOL    H5618624   6.929   0.727   0.292  0.8828 -0.3045 -2.1525
   45MOL    H5718625   7.081   0.813   0.297  0.1781  0.2207  0.8584
   45MOL    H5818626   7.094   0.741   0.560  0.8864 -0.1324 -2.7709
   45MOL    H5918627   6.973   0.852   0.520  0.6087  0.5290  1.2206
   45MOL    H6018628   6.899   0.564   0.533 -0.6226  0.3584  2.8146
   45MOL    H6118629   6.799   0.698   0.511  0.3818 -0.8487 -1.6500
   45MOL    H6218630   6.986   0.661   0.748  0.0182 -0.8354  1.0635
   45MOL    H6318631   6.818   0.600   0.753  2.1067 -2.3239 -0.2787
   45MOL    H6418632   6.842   0.762   0.748 -2.4120 -0.8831  0.7806
   45MOL    C6518633   7.335   0.422   0.289  0.7450  0.3439  0.1964
   45MOL    C6618634   7.485   0.416   0.239  0.6351 -0.1984  0.5897
   45MOL    C6718635   7.515   0.308   0.146  0.5151  0.2836  0.3267
   45MOL    O6818636   7.578   0.209   0.180 -0.0104  0.2108  0.1276
   45MOL    O6918637   7.471   0.330   0.019 -0.1970 -0.1659  0.0813
   45MOL    C7018638   7.499   0.236   7.770 -0.2417 -0.4665  0.3584
   45MOL    C7118639   7.388   0.134   7.761  0.3287  0.3860 -0.1084
   45MOL    C7218640   7.395   0.025   0.012  0.5313 -1.1059  0.1213
   45MOL    C7318641   7.287   7.773   7.823  0.1329  0.3857  0.3894
   45MOL    H7418642   7.310   0.332   0.346  0.6498 -0.8516 -1.7027
   45MOL    H7518643   7.335   0.488   0.376  0.7027 -2.2474  2.2484
   45MOL    H7618644   7.541   0.398   0.331  1.3804 -0.4599  0.0928
   45MOL    H7718645   7.596   0.196   7.799 -0.2848  1.1354  2.8567
   45MOL    H7818646   7.516   0.283   7.674  0.6704 -0.5391  0.4790
   45MOL    H7918647   7.297   0.193   7.764 -0.3573 -0.6607 -0.1530
   45MOL    H8018648   7.389   0.106   7.656 -2.3152 -0.7704  0.1524
   45MOL    H8118649   7.363   0.077   0.103 -2.4380  0.4494 -1.7680
   45MOL    H8218650   7.492   7.829   0.018  2.1865  1.9704 -0.3190
   45MOL    H8318651   7.313   7.680   0.019  0.7062  1.0401  1.3219
   45MOL    H8418652   7.284   7.761   7.714  1.9792 -1.4014  0.5160
   45MOL    H8518653   7.192   7.811   0.008 -0.3092 -1.0060  0.6946
   45MOL    C8618654   7.548   0.550   0.191 -0.7890 -0.2896 -0.6982
   45MOL    C8718655   7.704   0.548   0.164 -0.0257 -0.6169 -0.3007
   45MOL    C8818656   7.750   0.679   0.085 -0.8686  0.2641 -0.1084
   45MOL    O8918657   7.687   0.786   0.099 -0.7357 -0.6998 -0.0778
   45MOL    O9018658   0.010   0.662   0.014 -0.7403 -0.8616  0.4259
   45MOL    C9118659   0.088   0.770   7.812 -0.1807 -0.3221  0.5776
   45MOL    C9218660   0.224   0.789   0.040 -0.3077 -0.2582  0.5970
   45MOL    C9318661   0.310   0.894   7.832 -0.2271 -0.0018 -0.0060
   45MOL    C9418662   0.454   0.906   0.016 -0.2111  0.1607 -0.1677
   45MOL    H9518663   7.527   0.622   0.270  1.0920 -1.1809  0.6607
   45MOL    H9618664   7.488   0.599   0.115  0.5827  1.3174 -0.7612
   45MOL    H9718665   7.735   0.461   0.106  0.1576 -1.2989  0.8135
   45MOL    H9818666   0.025   0.858   7.806  0.6530  0.3369  1.3239
   45MOL    H9918667   0.106   0.740   7.709 -1.2040  0.8405  0.0552
   45MOL   H10018668   0.198   0.805   0.144 -4.0389 -0.4072 -0.2464
   45MOL   H10118669   0.281   0.697   0.028 -1.7058 -1.3662  2.1805
   45MOL   H10218670   0.256   0.987   7.852  0.8820  1.0624 -1.8129
   45MOL   H10318671   0.308   0.892   7.723 -0.2192  0.4522 -0.0186
   45MOL   H10418672   0.459   0.906   0.125 -0.2201 -0.2148 -0.1646
   45MOL   H10518673   0.509   0.994   7.837  1.5283 -0.5574  0.7197
   45MOL   H10618674   0.501   0.809   7.852 -1.9433 -0.8971  0.9396
   45MOL   C10718675   7.783   0.546   0.299 -0.6458  0.1896  0.1446
   45MOL   C10818676   0.084   0.526   0.284 -0.6459 -0.1114  0.0682
   45MOL   C10918677   0.162   0.590   0.403  0.2632 -0.5345  0.0427
   45MOL   O11018678   0.237   0.687   0.381 -0.0206  0.2370 -0.2642
   45MOL   O11118679   0.124   0.537   0.526  0.3800 -0.5886 -0.4954
   45MOL   C11218680   0.161   0.601   0.649 -1.1918 -0.4194  0.2862
   45MOL   C11318681   0.113   0.514   0.765  0.0988  0.5674 -0.1687
   45MOL   C11418682   7.817   0.509   0.801  0.1298 -0.5425 -0.4562
   45MOL   C11518683   7.720   0.434   0.703 -0.5265 -0.2788  0.5495
   45MOL   H11618684   7.753   0.476   0.376  3.1461  0.8932  2.3963
   45MOL   H11718685   7.768   0.647   0.335 -2.2038  0.9809 -2.5970
   45MOL   H11818686   0.121   0.576   0.195 -0.6409 -0.4057 -0.0974
   45MOL   H11918687   0.126   0.705   0.657  1.3709  0.7498 -2.5589
   45MOL   H12018688   0.270   0.603   0.657 -1.1980  1.0336  0.3054
   45MOL   H12118689   0.154   0.414   0.753  1.6519  1.2275 -0.4707
   45MOL   H12218690   0.177   0.561   0.840  1.3929 -0.3639 -0.6720
   45MOL   H12318691   7.779   0.606   0.833  0.5196  0.4873 -2.9880
   45MOL   H12418692   7.813   0.454   0.894 -1.1652 -1.7134 -1.1914
   45MOL   H12518693   7.699   0.484   0.609 -0.8435  1.4586  1.5276
   45MOL   H12618694   7.621   0.426   0.746 -0.5378  1.5020  0.8920
   45MOL   H12718695   7.762   0.335   0.684  0.9131  0.2398  0.9331
   45MOL   C12818696   0.119   0.375   0.271 -0.8287  0.3184  0.0086
   45MOL   C12918697   0.220   0.330   0.166 -0.5240  0.4868  1.4863
   45MOL   C13018698   0.174   0.362   0.027  0.6097  0.2877  0.5439
   45MOL   O13118699   0.247   0.428   7.806 -0.2262 -0.5655 -0.0765
   45MOL   O13218700   0.058   0.316   7.844 -0.6148 -0.6210 -0.3674
   45MOL   C13318701   0.010   0.333   7.715  1.0026  0.2452 -0.4266
   45MOL   C13418702   0.059   0.218   7.627 -0.8564  0.2884  0.4964
   45MOL   C13518703   7.852   0.227   7.483 -0.3459 -0.5670  0.0375
   45MOL   C13618704   0.053   0.108   7.397  0.0844 -0.7195  0.3900
   45MOL   H13718705   0.032   0.313   0.249 -1.6945  1.1781  1.0078
   45MOL   H13818706   0.147   0.335   0.368 -1.0767  0.9092  0.3216
   45MOL   H13918707   0.225   0.222   0.164 -1.6021  0.4474 -0.0776
   45MOL   H14018708   0.034   0.433   7.679 -0.1831 -0.3033 -2.8814
   45MOL   H14118709   7.758   0.308   7.722  1.6353 -3.4198 -2.6965
   45MOL   H14218710   0.166   0.234   7.624 -1.0012  1.2732  0.4369
   45MOL   H14318711   0.038   0.117   7.663  1.7632 -0.8569 -1.0774
   45MOL   H14418712   0.038   0.313   7.427  0.2120 -0.7302  0.1665
   45MOL   H14518713   7.743   0.232   7.486 -0.2775  0.7706  1.2909
   45MOL   H14618714   0.023   0.008   7.426  0.6683 -1.0776 -0.2309
   45MOL   H14718715   0.161   0.108   7.384 -0.1602 -2.1063 -1.9180
   45MOL   H14818716   0.020   0.113   7.293  2.5627  1.6525 -0.3647
   45MOL   C14918717   0.368   0.384   0.180  0.8099  0.4909  0.1301
   45MOL   C15018718   0.482   0.280   0.169 -0.7297 -0.5935 -0.0756
   45MOL   C15118719   0.506   0.230   0.027  0.1043  0.1378 -0.0054
   45MOL   O15218720   0.500   0.109   0.002 -0.1608  0.1312 -0.4661
   45MOL   O15318721   0.527   0.332   7.788 -0.2347 -0.1945  0.4663
   45MOL   C15418722   0.543   0.286   7.655 -0.3011  0.5069  0.2259
   45MOL   C15518723   0.555   0.400   7.553  0.6020 -0.0378 -0.3043
   45MOL   C15618724   0.424   0.482   7.538 -0.5675  0.0910  0.0097
   45MOL   C15718725   0.433   0.594   7.434 -0.3289  0.4462  0.2663
   45MOL   H15818726   0.379   0.413   0.285  1.3289 -0.0477  0.2243
   45MOL   H15918727   0.373   0.480   0.128 -3.6233 -0.2595 -1.9221
   45MOL   H16018728   0.458   0.190   0.226 -0.7383  0.2299  1.2556
   45MOL   H16118729   0.469   0.208   7.636  0.7194 -0.9751  2.0773
   45MOL   H16218730   0.628   0.219   7.647 -0.9516 -0.5517  1.8090
   45MOL   H16318731   0.624   0.470   7.601  1.3960 -0.1248 -1.3200
   45MOL   H16418732   0.579   0.361   7.454  1.9598 -0.2523  0.0993
   45MOL   H16518733   0.391   0.521   7.634 -0.7986  1.7975 -0.7387
   45MOL   H16618734   0.340   0.421   7.506 -0.9085  0.2898  0.5177
   45MOL   H16718735   0.457   0.538   7.344  1.6902 -4.0103  3.3504
   45MOL   H16818736   0.509   0.669   7.456  0.5013 -0.4065  0.3378
   45MOL   H16918737   0.336   0.642   7.426  0.1394  2.0361  3.1826
   45MOL   C17018738   0.607   0.332   0.241  0.4098  0.9995 -0.5428
   45MOL   C17118739   0.717   0.226   0.262  0.8531 -0.4703  0.3970
   45MOL   C17218740   0.853   0.288   0.282 -0.3589  0.2342  0.1204
   45MOL   O17318741   0.867   0.390   0.350 -0.2699  0.3296 -0.6432
   45MOL   O17418742   0.955   0.225   0.220  0.6057 -0.1658  0.2233
   45MOL   C17518743   1.089   0.274   0.231  0.1308 -0.3987 -0.3802
   45MOL   C17618744   1.171   0.206   0.117 -0.3345  0.2030  0.2672
   45MOL   C17718745   1.214   0.072   0.171  0.3076 -0.4887 -0.0607
   45MOL   C17818746   1.286   7.841   0.074  0.0743 -0.2981 -0.5713
   45MOL   H17918747   0.583   0.387   0.332 -1.5494 -1.2384  0.3547
   45MOL   H18018748   0.643   0.411   0.175  0.6884  1.0482 -0.3340
   45MOL   H18118749   0.730   0.173   0.168 -0.5955  0.9120 -0.5962
   45MOL   H18218750   1.125   0.259   0.333  1.0647 -0.5427 -0.7312
   45MOL   H18318751   1.099   0.378   0.199 -2.4245 -1.0123 -3.4499
   45MOL   H18418752   1.107   0.203   0.029  0.4422  1.4744 -0.3505
   45MOL   H18518753   1.252   0.275   0.094 -1.6064  1.7990  0.4885
   45MOL   H18618754   1.117   0.023   0.181  0.1748 -0.2365 -0.1091
   45MOL   H18718755   1.259   0.079   0.269  0.6441 -0.4701 -0.2170
   45MOL   H18818756   1.388   0.025   0.061  0.3156 -1.2135 -1.3528
   45MOL   H18918757   1.249   7.848   7.824 -2.3199  3.1313  0.4277
   45MOL   H19018758   1.286   7.739   0.111  1.6810 -0.1311 -0.0760
   45MOL   C19118759   0.695   0.121   0.376  0.4403 -0.8537  0.2868
   45MOL   C19218760   0.646   7.836   0.334 -0.6897 -0.0607  0.1931
   45MOL   C19318761   0.756   7.786   0.239 -0.3613  0.0332 -0.2522
   45MOL   O19418762   0.873   7.766   0.274 -0.1006  0.0368 -0.1063
   45MOL   O19518763   0.705   7.759   0.124  0.1465 -0.1389 -0.1906
   45MOL   C19618764   0.785   7.715   0.010 -0.8505  0.4078  0.1854
   45MOL   C19718765   0.847   7.828   7.781  0.6528 -0.1471  0.4605
   45MOL   C19818766   0.902   7.773   7.639 -0.3224 -0.2721 -0.0999
   45MOL   C19918767   1.033   7.836   7.593  0.5328  0.0747  0.3407
   45MOL   H20018768   0.613   0.157   0.438 -0.4350 -3.8233  0.9389
   45MOL   H20118769   0.789   0.114   0.431  1.0682 -0.8760 -0.7714
   45MOL   H20218770   0.546   7.840   0.290 -0.8094  0.4980  0.5143
   45MOL   H20318771   0.717   7.657   7.800 -0.5168 -0.0090  0.2116
   45MOL   H20418772   0.854   7.638   0.045  0.9774  0.3820 -3.2507
   45MOL   H20518773   0.777   0.058   7.768 -0.2931 -0.7651  1.5018
   45MOL   H20618774   0.930   0.012   7.841  0.7667 -1.5308  1.1716
   45MOL   H20718775   0.827   7.771   7.560 -0.1708 -0.7650 -0.2338
   45MOL   H20818776   0.937   7.670   7.646  1.0381  0.1567 -0.5940
   45MOL   H20918777   1.107   7.826   7.673 -1.7330 -1.0382  2.3597
   45MOL   H21018778   1.024   0.088   7.566  1.2595 -0.6638 -2.9790
   45MOL   H21118779   1.066   7.796   7.497  3.5329  1.9789  0.5071
   45MOL   C21218780   0.643   7.735   0.453 -0.0682  0.0916 -0.0752
   45MOL   C21318781   0.536   7.748   0.567  0.1345 -0.3057  0.3910
   45MOL   C21418782   0.394   7.764   0.514 -0.1147 -0.0459  0.0493
   45MOL   O21518783   0.332   0.026   0.523 -0.1854  0.2954 -0.5564
   45MOL   O21618784   0.353   7.676   0.427  0.8547  0.2171 -0.2468
   45MOL   C21718785   0.224   7.684   0.362 -0.0686 -0.5453  0.6433
   45MOL   C21818786   0.234   7.707   0.213  0.8179  0.2374  0.1923
   45MOL   C21918787   0.088   7.700   0.143 -0.4987 -0.1049  0.1642
   45MOL   C22018788   0.005   7.831   0.140  0.3624  0.1158 -0.4571
   45MOL   H22118789   0.743   7.714   0.491  0.7159  0.1824 -2.0069
   45MOL   H22218790   0.623   7.639   0.405  0.1231 -0.4556  0.9291
   45MOL   H22318791   0.549   7.843   0.620  0.0500 -0.1539  0.1421
   45MOL   H22418792   0.165   7.766   0.401  0.2738  0.2381 -0.4599
   45MOL   H22518793   0.163   7.597   0.386 -1.5454  0.5171  0.7998
   45MOL   H22618794   0.280   7.806   0.211 -0.0300  0.6228 -0.5076
   45MOL   H22718795   0.304   7.636   0.168 -0.6890 -1.1445 -0.0209
   45MOL   H22818796   0.022   7.621   0.179 -0.3311  0.1581  1.0814
   45MOL   H22918797   0.106   7.676   0.039  0.9015 -2.0751  0.8362
   45MOL   H23018798   0.062   0.043   0.074 -0.2894 -0.2934 -1.4356
   45MOL   H23118799   7.850   0.032   0.234 -0.9226 -2.3069  0.8797
   45MOL   H23218800   7.757   7.832   0.098  0.8479 -2.6153 -1.7887
   45MOL   C23318801   0.552   7.630   0.668  0.1886  0.2651 -0.0317
   45MOL   C23418802   0.462   7.640   0.792  0.6706  0.8218 -0.1902
   45MOL   C23518803   0.439   7.507   0.864 -0.0064  0.4206 -0.6931
   45MOL   O23618804   0.473   7.484   0.983  0.3122  0.1312 -0.3166
   45MOL   O23718805   0.358   7.422   0.780 -0.2663  0.2820 -0.3030
   45MOL   C23818806   0.315   7.304   0.843  0.2417 -0.2064 -0.8085
   45MOL   C23918807   0.419   7.194   0.807 -0.2731  0.2133 -0.7262
   45MOL   C24018808   0.373   7.045   0.840  0.5074 -0.1594  0.0103
   45MOL   C24118809   0.446   6.943   0.747 -0.5654  0.2576  0.2023
   45MOL   H24218810   0.659   7.619   0.686  0.4000 -2.8354 -2.7025
   45MOL   H24318811   0.527   7.538   0.615 -0.3215  1.1809 -1.4168
   45MOL   H24418812   0.362   7.676   0.769 -0.3381 -1.5270  0.4328
   45MOL   H24518813   0.213   7.277   0.814 -0.1540  0.6338 -0.2154
   45MOL   H24618814   0.311   7.306   0.952 -0.3684 -3.2771 -0.7302
   45MOL   H24718815   0.444   7.194   0.700  0.5613  1.4547 -0.5320
   45MOL   H24818816   0.507   7.217   0.868 -0.5890  2.1906 -0.9761
   45MOL   H24918817   0.264   7.033   0.837  0.1693  2.4688  0.7476
   45MOL   H25018818   0.401   7.018   0.942 -1.4906  0.9059  0.8814
   45MOL   H25118819   0.550   6.962   0.773 -0.8772 -0.8243  2.3645
   45MOL   H25218820   0.425   6.953   0.641 -0.9672  0.3704  0.2909
   45MOL   H25318821   0.426   6.841   0.779 -0.0054  0.0023 -0.2558
   45MOL   C25418822   0.524   7.745   0.886  0.0861 -0.4108 -0.0427
   45MOL   C25518823   0.417   7.804   0.976  0.0493 -1.1670  0.6946
   45MOL   C25618824   0.483   0.025   1.094  0.5460 -0.2746  0.3728
   45MOL   O25718825   0.497   0.144   1.100  0.4873  0.4551 -0.7684
   45MOL   O25818826   0.515   7.789   1.190 -0.4000 -0.9490 -0.1312
   45MOL   C25918827   0.570   7.837   1.314  0.6384 -0.1413 -0.4881
   45MOL   C26018828   0.452   0.017   1.413 -0.0819  0.5669 -0.0958
   45MOL   C26118829   0.354   7.756   1.440 -0.0165  0.3185 -0.4103
   45MOL   C26218830   0.244   7.790   1.536 -0.1169  0.2913  0.1475
   45MOL   H26318831   0.573   7.827   0.833 -0.8779 -0.9884 -1.8615
   45MOL   H26418832   0.611   7.709   0.941  1.6817  1.2207 -1.4153
   45MOL   H26518833   0.368   7.718   1.022 -0.1265 -1.5022 -0.1182
   45MOL   H26618834   0.618   0.079   1.291 -1.2545  0.8169 -0.5659
   45MOL   H26718835   0.638   7.760   1.350  1.2570  0.2125 -0.8914
   45MOL   H26818836   0.503   0.048   1.504  2.1877 -0.2657 -1.0475
   45MOL   H26918837   0.412   0.108   1.370  0.2601  0.3783 -0.8169
   45MOL   H27018838   0.403   7.665   1.473 -0.2313  0.6600  0.8798
   45MOL   H27118839   0.310   7.734   1.343  1.7842 -3.3035 -0.4626
   45MOL   H27218840   0.174   0.006   1.490 -0.3717  1.4767  2.2358
   45MOL   H27318841   0.277   7.826   1.633 -2.1477  0.5308  0.7716
   45MOL   H27418842   0.179   7.704   1.553  0.5319 -0.5280 -1.3774
   45MOL   C27518843   0.309   0.041   0.894  0.2102  0.4026  0.5598
   45MOL   C27618844   0.163   7.851   0.924  0.1989 -0.2397 -0.0915
   45MOL   C27718845   0.131   0.035   1.072  1.1393  0.0509  0.0954
   45MOL   O27818846   0.128   7.805   1.163  0.2418 -0.6115 -0.1593
   45MOL   O27918847   0.124   0.174   1.098  0.1032 -0.3841 -0.0857
   45MOL   C28018848   0.129   0.220   1.238  0.0924  0.6927  0.6272
   45MOL   C28118849   0.158   0.367   1.245 -0.4446  0.5980 -0.6493
   45MOL   C28218850   0.281   0.418   1.163 -0.2988 -0.0934  0.8421
   45MOL   C28318851   0.338   0.548   1.218 -0.1117  0.4913  0.0777
   45MOL   H28418852   0.331   0.028   0.788 -3.6428  1.0371 -0.4014
   45MOL   H28518853   0.323   0.145   0.921  2.8175  0.4794 -0.9681
   45MOL   H28618854   0.162   7.742   0.932 -0.0603 -0.2588 -0.4037
   45MOL   H28718855   0.221   0.178   1.278  0.5764  0.4672 -0.7075
   45MOL   H28818856   0.035   0.202   1.291 -0.5812 -1.2158 -1.1368
   45MOL   H28918857   0.066   0.414   1.211 -2.4768 -2.1166  0.9487
   45MOL   H29018858   0.169   0.393   1.350  1.0393 -0.5129 -0.5156
   45MOL   H29118859   0.253   0.441   1.060 -1.7986 -0.1518  1.2292
   45MOL   H29218860   0.360   0.342   1.158  0.2303  0.4872  0.3329
   45MOL   H29318861   0.368   0.552   1.323  3.0935  1.9254 -0.8341
   45MOL   H29418862   0.274   0.636   1.210 -1.4680 -0.4569  0.1985
   45MOL   H29518863   0.430   0.574   1.165  0.1686  1.0563  0.8343
   45MOL   C29618864   0.067   0.043   0.812  0.0541  0.1269  0.3666
   45MOL   C29718865   7.818   7.791   0.781 -0.1114 -0.9578 -0.3174
   45MOL   C29818866   7.686   0.003   0.726  0.1608 -0.8643 -0.1161
   45MOL   O29918867   7.585   0.003   0.796 -0.2623  0.2623  0.3156
   45MOL   O30018868   7.690   0.047   0.599 -0.4001 -0.6007 -0.1179
   45MOL   C30118869   7.581   0.098   0.527  0.3779 -0.4531  0.4392
   45MOL   C30218870   7.566   7.839   0.416 -0.3223  0.1507  0.6500
   45MOL   C30318871   7.491   7.711   0.467  0.0962  0.0337 -0.2860
   45MOL   C30418872   7.423   7.628   0.357  0.2890 -0.2807  0.3485
   45MOL   H30518873   0.115   0.060   0.716 -0.6658 -2.0190 -0.3966
   45MOL   H30618874   0.021   0.137   0.844  0.8648 -0.1539  2.4464
   45MOL   H30718875   7.788   7.756   0.880 -0.5499 -1.4411 -0.6163
   45MOL   H30818876   7.613   0.196   0.492 -0.4611 -1.3495 -3.0647
   45MOL   H30918877   7.494   0.106   0.591  0.0743 -0.8972  0.0873
   45MOL   H31018878   7.510   0.030   0.334  1.3670 -1.5085 -1.4497
   45MOL   H31118879   7.659   7.803   0.371 -1.0293  0.1711 -0.8558
   45MOL   H31218880   7.417   7.742   0.540 -0.1618 -2.3736  0.5233
   45MOL   H31318881   7.556   7.644   0.522  2.3809  1.0802 -1.6371
   45MOL   H31418882   7.356   7.690   0.297  2.7429  1.6413 -0.5059
   45MOL   H31518883   7.371   7.543   0.400 -0.6815  0.1396  0.0228
   45MOL   H31618884   7.495   7.586   0.288  0.5298  0.1049  0.3594
   45MOL   C31718885   0.016   7.665   0.698 -0.1943 -0.2878  0.3690
   45MOL   C31818886   7.777   7.543   0.719  0.5790 -0.4093  0.1500
   45MOL   C31918887   7.801   7.434   0.611  0.0530  0.7070 -0.1390
   45MOL   O32018888   7.734   7.409   0.512  0.0564  0.1978 -0.6758
   45MOL   O32118889   0.059   7.371   0.643  0.1910  0.4267 -0.2317
   45MOL   C32218890   0.103   7.258   0.573 -0.7994 -0.5270  0.8235
   45MOL   C32318891   0.220   7.307   0.483 -0.2056  0.3122 -0.5820
   45MOL   C32418892   0.284   7.204   0.388  0.3924  0.1674 -1.3972
   45MOL   C32518893   0.370   7.249   0.278  0.0117 -0.0061  0.2114
   45MOL   H32618894   0.113   7.644   0.744  0.5823  0.0719 -1.0951
   45MOL   H32718895   0.031   7.683   0.592 -1.5436 -1.8343 -0.1033
   45MOL   H32818896   7.677   7.581   0.702  1.5905  1.3015 -2.2316
   45MOL   H32918897   0.022   7.208   0.520  0.1740 -2.9655  1.6002
   45MOL   H33018898   0.143   7.179   0.636  1.4826 -0.1781 -0.0965
   45MOL   H33118899   0.190   7.386   0.414  3.3258  0.7129 -1.7486
   45MOL   H33218900   0.297   7.349   0.547 -0.1210 -0.1205 -0.3941
   45MOL   H33318901   0.205   7.139   0.351  0.4086  0.6534 -2.2776
   45MOL   H33418902   0.333   7.132   0.455 -2.1569 -3.2573 -3.0246
   45MOL   H33518903   0.417   7.162   0.232 -0.7049 -0.5004  0.4116
   45MOL   H33618904   0.444   7.310   0.330  2.2313 -1.8445 -0.6708
   45MOL   H33718905   0.321   7.301   0.197  0.9172  0.4063 -0.0797
   45MOL   C33818906   7.767   7.486   0.861  0.5510 -0.2147  0.4204
   45MOL   C33918907   7.674   7.362   0.881  0.3780 -0.2960 -0.2242
   45MOL   C34018908   7.743   7.233   0.913  0.3641 -0.2210 -0.0696
   45MOL   O34118909   7.738   7.129   0.845 -0.3159  0.3886  0.2545
   45MOL   O34218910   7.827   7.240   1.014 -0.7697  0.0621  0.3010
   45MOL   C34318911   0.071   7.143   1.041 -0.3871 -0.4227 -0.6154
   45MOL   C34418912   0.043   7.047   1.165  0.0675 -0.0698 -0.0450
   45MOL   C34518913   0.158   6.941   1.196  0.6499 -0.1635 -0.1782
   45MOL   C34618914   0.135   6.859   1.322 -0.1608  0.2029 -1.2815
   45MOL   H34718915   7.731   7.569   0.921  0.0108  0.9291 -1.4205
   45MOL   H34818916   0.015   7.463   0.894  0.0466 -2.7641  0.2992
   45MOL   H34918917   7.628   7.344   0.784  2.0257  1.4680 -1.3580
   45MOL   H35018918   0.165   7.195   1.063 -0.2757 -0.9083  0.0711
   45MOL   H35118919   0.087   7.082   0.952 -2.5810 -2.6866  0.4894
   45MOL   H35218920   0.028   7.110   1.253  3.4382 -0.2470  0.7476
   45MOL   H35318921   7.802   6.993   1.156  0.8773 -1.5655  0.1302
   45MOL   H35418922   0.243   7.007   1.212 -0.2108  0.5268  1.6807
   45MOL   H35518923   0.187   6.880   1.110 -1.9615  0.7103 -1.7163
   45MOL   H35618924   0.119   6.927   1.406  1.6887 -1.6708  0.6729
   45MOL   H35718925   0.228   6.805   1.341  0.5480  1.9542  0.4732
   45MOL   H35818926   0.046   6.796   1.318 -1.0401  1.3025  0.5352
   45MOL   C35918927   7.562   7.382   0.988  0.0451  0.1037  0.4667
   45MOL   C36018928   7.439   7.473   0.942  0.9763 -0.7325  0.1036
   45MOL   C36118929   7.346   7.413   0.835 -0.0440  0.5086  0.1232
   45MOL   O36218930   7.363   7.433   0.716 -0.5563 -0.4197  0.7536
   45MOL   O36318931   7.247   7.330   0.882  0.9482  0.6887  0.0004
   45MOL   C36418932   7.132   7.285   0.803  0.7379 -0.1841 -0.3894
   45MOL   C36518933   7.012   7.238   0.893  0.0600  0.0244  0.1300
   45MOL   C36618934   6.905   7.145   0.830  0.5456 -0.5048 -0.4787
   45MOL   C36718935   6.790   7.122   0.929  0.2059  0.8852 -0.2899
   45MOL   H36818936   7.597   7.427   1.081  1.3144  2.4541 -1.0937
   45MOL   H36918937   7.517   7.285   1.009  0.5642 -0.3314 -0.4208
   45MOL   H37018938   7.482   7.560   0.891 -1.9205  0.8870  0.3132
   45MOL   H37118939   7.171   7.210   0.735  0.6899 -0.1425 -0.4637
   45MOL   H37218940   7.099   7.371   0.744 -1.2615 -0.5432  0.1723
   45MOL   H37318941   7.037   7.204   0.993 -1.2866 -0.7067  0.2261
   45MOL   H37418942   6.955   7.328   0.919 -0.9284 -0.8396  0.9895
   45MOL   H37518943   6.962   7.053   0.819  0.1399 -0.9938  1.3538
   45MOL   H37618944   6.864   7.183   0.736  1.3660 -0.1388 -0.6863
   45MOL   H37718945   6.725   7.209   0.919  2.1362  2.4227  0.2638
   45MOL   H37818946   6.820   7.124   1.034 -2.4292  0.7732  0.4898
   45MOL   H37918947   6.722   7.039   0.907  1.6621 -0.6075  0.7325
   45MOL   C38018948   7.353   7.518   1.065 -0.5845 -0.1227 -0.4762
   45MOL   C38118949   7.221   7.597   1.040  0.3603 -0.8913 -0.2683
   45MOL   C38218950   7.137   7.629   1.168 -0.3296 -0.3813  0.1829
   45MOL   O38318951   7.036   7.569   1.194  0.0576 -0.0996  0.9443
   45MOL   O38418952   7.190   7.724   1.235  0.2597 -0.6703 -0.3496
   45MOL   C38518953   7.125   7.769   1.355  0.6299 -0.4747  0.5465
   45MOL   C38618954   7.095   0.068   1.349 -0.0299 -0.6521 -1.0564
   45MOL   C38718955   7.029   0.130   1.477 -0.1759 -0.1480 -0.0492
   45MOL   C38818956   6.892   0.081   1.514 -0.0613  0.7040 -0.0030
   45MOL   H38918957   7.417   7.582   1.126 -0.8827  0.0311 -0.3255
   45MOL   H39018958   7.319   7.429   1.119  0.1599 -0.6461 -0.8562
   45MOL   H39118959   7.147   7.536   0.989  0.1018 -1.7220  1.0911
   45MOL   H39218960   7.190   7.734   1.436  0.1655 -0.3312  0.9787
   45MOL   H39318961   7.026   7.725   1.366  0.1488  0.0396 -1.4274
   45MOL   H39418962   7.183   0.130   1.334 -0.8341  0.3183 -1.7985
   45MOL   H39518963   7.029   0.094   1.267 -0.2833 -0.0691 -0.6718
   45MOL   H39618964   7.039   0.238   1.471  0.4075 -0.2008 -0.0871
   45MOL   H39718965   7.091   0.109   1.564  0.8279  1.8581 -0.2489
   45MOL   H39818966   6.896   7.825   1.509  0.6112  0.7190  0.0900
   45MOL   H39918967   6.818   0.112   1.440  0.5059  0.7434 -0.5543
   45MOL   H40018968   6.856   0.127   1.607  0.9541  1.8365 -0.1602
   45MOL   C40118969   7.239   7.726   0.956  0.3726  0.1200  0.1042
   45MOL   C40218970   7.110   7.807   0.932  0.3440  0.5711 -0.6501
   45MOL   C40318971   7.013   7.758   0.832 -0.0987  0.2561 -0.2338
   45MOL   O40418972   6.892   7.778   0.849  0.1202  0.3045 -1.0137
   45MOL   O40518973   7.067   7.696   0.728 -0.2302 -0.1024 -0.9721
   45MOL   C40618974   6.986   7.654   0.621  0.3690 -0.0053 -0.1339
   45MOL   C40718975   7.077   7.578   0.524 -0.0985  0.7118  0.0045
   45MOL   C40818976   7.000   7.467   0.450 -0.2686  0.4331 -0.1187
   45MOL   C40918977   7.095   7.395   0.362  0.0608  0.1781  0.2516
   45MOL   H41018978   7.303   7.722   0.867 -0.7428  1.5816 -0.7799
   45MOL   H41118979   7.306   7.787   1.016  0.5582 -1.0024  1.0727
   45MOL   H41218980   7.136   0.051   0.890  2.8777 -1.2526 -3.4520
   45MOL   H41318981   6.934   7.734   0.569  0.0916  0.6925  1.1923
   45MOL   H41418982   6.912   7.587   0.665 -0.1877 -0.3832 -1.6124
   45MOL   H41518983   7.144   7.638   0.462  0.9686 -1.6381 -1.1751
   45MOL   H41618984   7.147   7.522   0.586  0.3892  0.2779 -0.9240
   45MOL   H41718985   6.920   7.505   0.386 -0.0293 -1.4850 -1.6088
   45MOL   H41818986   6.964   7.400   0.527  0.6337  2.3753  2.0476
   45MOL   H41918987   7.130   7.456   0.279 -1.8721  1.2050  0.1591
   45MOL   H42018988   7.051   7.300   0.330  0.4277 -0.3817  1.3608
   45MOL   H42118989   7.188   7.374   0.414  0.8585  0.9351 -0.8608
   45MOL   H42218990   7.058   7.827   1.026 -0.2421 -0.5117 -0.7372
   46MOL     C118991   0.244   5.141   2.251 -0.3335  0.4236 -0.0132
   46MOL     C218992   0.256   5.287   2.293  0.0340  0.3088 -0.5075
   46MOL     C318993   0.377   5.344   2.216 -0.0872 -0.0637  0.1679
   46MOL     O418994   0.476   5.359   2.278 -0.3528 -0.4044 -0.2906
   46MOL     O518995   0.360   5.362   2.082 -0.0321 -0.0847  0.0308
   46MOL     C618996   0.464   5.409   2.000  0.6400 -0.4138  0.5301
   46MOL     C718997   0.450   5.549   1.955 -0.7918 -0.1255  0.5320
   46MOL     C818998   0.510   5.572   1.818 -0.3767  0.3188 -0.7033
   46MOL     C918999   0.519   5.712   1.760 -0.2047 -0.0182  0.0597
   46MOL    H1019000   0.173   5.085   2.312 -1.0121  2.1949  0.8725
   46MOL    H1119001   0.211   5.140   2.147  3.0104 -1.9503 -1.1621
   46MOL    H1219002   0.291   5.285   2.396  1.5841 -0.2081 -1.0334
   46MOL    H1319003   0.442   5.337   1.921  2.6446 -1.5393  0.9565
   46MOL    H1419004   0.557   5.381   2.049 -0.2482  0.8560  3.0333
   46MOL    H1519005   0.345   5.576   1.943 -0.8723 -1.2670 -1.5529
   46MOL    H1619006   0.482   5.616   2.035 -1.7675  0.3803  0.5063
   46MOL    H1719007   0.443   5.503   1.767 -0.0076  0.7580 -1.8156
   46MOL    H1819008   0.612   5.534   1.811 -0.5650  0.0281 -2.0984
   46MOL    H1919009   0.579   5.773   1.828 -1.5380  0.9984  0.3365
   46MOL    H2019010   0.422   5.759   1.775 -0.7215 -1.2469  0.6195
   46MOL    H2119011   0.548   5.721   1.655  0.8241 -2.2625  0.1179
   46MOL    H2219012   0.343   5.096   2.250 -0.7777 -0.6326 -3.3108
   46MOL    C2319013   0.120   5.367   2.290 -0.2369 -0.1024 -0.1391
   46MOL    C2419014   0.123   5.516   2.329  0.1228 -0.1902  0.1778
   46MOL    C2519015   0.143   5.546   2.476 -0.2257  0.6027  0.7608
   46MOL    O2619016   0.244   5.606   2.515 -0.7133 -0.1951  0.0099
   46MOL    O2719017   0.045   5.500   2.550 -0.1249 -0.2552 -0.4070
   46MOL    C2819018   0.041   5.530   2.695 -0.0284 -0.1226 -0.5076
   46MOL    C2919019   7.788   5.637   2.732  0.1631  0.7850  0.3126
   46MOL    C3019020   7.788   5.676   2.881 -0.3324 -0.1101  0.0983
   46MOL    C3119021   7.686   5.786   2.910  0.7222 -0.4037 -0.4257
   46MOL    H3219022   0.058   5.321   2.366  1.4888 -2.4316 -0.0689
   46MOL    H3319023   0.081   5.352   2.189 -0.1997  0.8164 -0.2907
   46MOL    H3419024   0.025   5.562   2.316 -0.6482 -0.8460  3.2809
   46MOL    H3519025   0.143   5.549   2.726 -0.7057 -0.5063  2.0316
   46MOL    H3619026   0.011   5.438   2.745 -0.3119 -0.2699 -0.9450
   46MOL    H3719027   7.813   5.724   2.672  0.6122  1.2020  1.1080
   46MOL    H3819028   7.687   5.605   2.706 -1.0067  3.1235  1.8887
   46MOL    H3919029   0.024   5.734   2.903 -0.5560  0.2408  0.0938
   46MOL    H4019030   7.786   5.597   2.956  1.0492  0.0885  0.3462
   46MOL    H4119031   7.690   5.871   2.843 -0.2392 -0.5752 -0.7154
   46MOL    H4219032   7.690   5.824   3.012 -3.1284  0.1555 -0.3975
   46MOL    H4319033   7.585   5.756   2.880  1.9884 -2.6336 -2.7298
   46MOL    C4419034   0.199   5.606   2.218 -0.6540 -0.0292  0.2713
   46MOL    C4519035   0.171   5.755   2.215 -0.5209 -0.2993 -0.0175
   46MOL    C4619036   0.253   5.833   2.315 -0.0915  0.1049  0.3036
   46MOL    O4719037   0.373   5.868   2.302 -0.3286  0.6713 -0.1033
   46MOL    O4819038   0.187   5.860   2.438 -0.1441 -0.0026 -0.1710
   46MOL    C4919039   0.241   5.953   2.528  0.0262 -0.5821 -0.0759
   46MOL    C5019040   0.122   5.982   2.615 -0.4406 -0.1121  0.1330
   46MOL    C5119041   0.140   6.102   2.702 -0.1688 -0.4667 -0.2702
   46MOL    C5219042   0.026   6.157   2.787  0.8602 -0.4178 -0.0936
   46MOL    H5319043   0.195   5.554   2.122  0.0942 -1.9820  1.2500
   46MOL    H5419044   0.306   5.603   2.238 -0.1489  1.0588 -2.0370
   46MOL    H5519045   0.064   5.774   2.225 -0.4431  0.6426 -0.8337
   46MOL    H5619046   0.280   6.040   2.476 -0.1019 -0.0811  0.6726
   46MOL    H5719047   0.322   5.920   2.593 -0.5559  1.0081  1.4700
   46MOL    H5819048   0.030   5.997   2.559  0.8251 -1.1363 -2.2757
   46MOL    H5919049   0.109   5.897   2.683  2.0306 -0.6595 -0.0121
   46MOL    H6019050   0.167   6.188   2.641 -1.7404 -0.2226 -0.6464
   46MOL    H6119051   0.223   6.080   2.770 -0.5658 -1.9771 -0.2607
   46MOL    H6219052   7.792   6.196   2.734 -0.4364 -2.1899  0.6831
   46MOL    H6319053   0.059   6.224   2.867  0.1062 -0.4529  0.2506
   46MOL    H6419054   7.843   6.073   2.846  0.0849 -1.4124 -1.9219
   46MOL    C6519055   0.194   5.803   2.079 -0.1962 -0.9275  0.6363
   46MOL    C6619056   0.146   5.942   2.047  1.1240  0.0504 -0.0845
   46MOL    C6719057   0.253   6.022   1.975 -0.3817 -0.1671 -0.1093
   46MOL    O6819058   0.250   6.052   1.857  0.0186  0.2962  0.0418
   46MOL    O6919059   0.349   6.063   2.063  0.1412 -0.3935 -0.0107
   46MOL    C7019060   0.455   6.145   2.015  0.0682  0.3211  0.2905
   46MOL    C7119061   0.551   6.182   2.126  0.2819 -0.4555  0.3447
   46MOL    C7219062   0.632   6.062   2.182  0.2471  0.0132  0.0166
   46MOL    C7319063   0.763   6.101   2.261 -0.0834  0.8274 -0.1551
   46MOL    H7419064   0.142   5.730   2.017 -0.5150 -0.4027  0.2865
   46MOL    H7519065   0.297   5.783   2.048 -0.2375 -0.8192  0.4268
   46MOL    H7619066   0.141   5.988   2.146  0.0052 -0.5932  0.1753
   46MOL    H7719067   0.435   6.234   1.956  0.1462  1.1681  1.5073
   46MOL    H7819068   0.507   6.082   1.943 -0.4951 -0.1771  0.3158
   46MOL    H7919069   0.619   6.261   2.094  1.6118 -1.1145  1.4758
   46MOL    H8019070   0.499   6.239   2.202  2.1592  2.5224 -0.5266
   46MOL    H8119071   0.663   6.002   2.096  0.3795  0.7485 -0.4579
   46MOL    H8219072   0.555   6.011   2.240  1.2734 -2.1279 -0.4520
   46MOL    H8319073   0.828   6.162   2.199 -1.1103  0.8172 -1.2717
   46MOL    H8419074   0.827   6.016   2.287  0.2990  1.5646  1.3578
   46MOL    H8519075   0.749   6.172   2.342 -1.6618 -0.2135  0.5037
   46MOL    C8619076   0.005   5.952   1.977 -0.4147 -0.3857 -0.0475
   46MOL    C8719077   7.746   5.912   2.069  0.2169 -0.2669  0.1825
   46MOL    C8819078   7.741   5.993   2.202  0.1731  0.1719  0.1870
   46MOL    O8919079   7.747   5.941   2.313 -0.0284 -0.2126 -0.9240
   46MOL    O9019080   7.737   6.125   2.175  0.3764  0.1622 -0.2848
   46MOL    C9119081   7.735   6.228   2.272 -0.8735 -0.0024  0.5942
   46MOL    C9219082   0.013   6.226   2.351  0.5286  0.4781 -0.2285
   46MOL    C9319083   0.141   6.265   2.273 -0.0418  0.3248  0.1998
   46MOL    C9419084   0.250   6.321   2.370  0.5279 -0.2747 -0.4011
   46MOL    H9519085   0.006   5.907   1.878 -2.1805 -0.7831  0.0963
   46MOL    H9619086   0.009   6.057   1.949 -0.0323 -0.1180  0.9924
   46MOL    H9719087   7.765   5.811   2.104 -1.5760 -1.5219 -2.3038
   46MOL    H9819088   7.648   6.210   2.336 -1.0016  0.1057  0.4519
   46MOL    H9919089   7.716   6.326   2.228  0.7198  0.0495 -0.0051
   46MOL   H10019090   0.011   6.281   2.445  2.6788 -0.7033  0.5545
   46MOL   H10119091   0.038   6.126   2.386 -0.2132  0.6445  0.7961
   46MOL   H10219092   0.124   6.333   2.190 -1.3810 -0.3476 -0.0982
   46MOL   H10319093   0.193   6.181   2.227  0.3910  0.3070  0.7196
   46MOL   H10419094   0.231   6.426   2.391 -0.4210 -0.7179  1.0132
   46MOL   H10519095   0.353   6.311   2.335  0.6084 -0.9495  0.0174
   46MOL   H10619096   0.259   6.255   2.456  0.2437  0.8183  0.4760
   46MOL   C10719097   7.614   5.922   1.987 -0.0559 -0.4537 -0.1932
   46MOL   C10819098   7.590   5.812   1.884 -0.7239 -0.7336 -0.3455
   46MOL   C10919099   7.615   5.666   1.917  0.1585 -0.2934  0.1797
   46MOL   O11019100   7.519   5.582   1.917  0.7148  0.3118  0.0845
   46MOL   O11119101   7.750   5.639   1.932  0.1328 -0.2612 -0.1244
   46MOL   C11219102   7.786   5.513   1.976  0.0200  0.7127 -0.4412
   46MOL   C11319103   0.051   5.475   1.883  0.3254 -0.0636 -0.2918
   46MOL   C11419104   0.008   5.444   1.739 -0.0012 -0.3539 -0.1708
   46MOL   C11519105   0.127   5.381   1.665 -0.7855  0.6317 -0.1539
   46MOL   H11619106   7.606   6.017   1.935  0.5687 -0.2847  0.0204
   46MOL   H11719107   7.541   5.919   2.069  1.7446  1.3924  1.5109
   46MOL   H11819108   7.671   5.830   1.813  0.0933  1.6131  1.1317
   46MOL   H11919109   7.705   5.440   1.979 -0.1939  0.9697  0.0224
   46MOL   H12019110   7.829   5.531   2.075  0.7809 -0.9800 -0.4480
   46MOL   H12119111   0.134   5.544   1.875  0.7616 -0.5832 -0.2982
   46MOL   H12219112   0.108   5.392   1.924  0.9656  0.8827  0.7622
   46MOL   H12319113   7.838   5.537   1.688  0.5419  0.0312  0.2769
   46MOL   H12419114   7.775   5.377   1.728  0.5188 -1.0340 -0.1895
   46MOL   H12519115   0.095   5.317   1.583 -0.3203  0.6004 -0.3146
   46MOL   H12619116   0.181   5.318   1.736 -1.7140 -0.7002 -0.6179
   46MOL   H12719117   0.193   5.461   1.630  0.1445 -0.2511 -0.4296
   46MOL   C12819118   7.463   5.844   1.801 -0.4500 -0.7053  0.3177
   46MOL   C12919119   7.443   5.764   1.670 -0.3142  0.0888  0.3035
   46MOL   C13019120   7.308   5.809   1.608 -0.4870 -0.1041  0.6598
   46MOL   O13119121   7.209   5.739   1.596  0.1556  0.4593  0.0426
   46MOL   O13219122   7.321   5.939   1.562  0.3911  0.1894  0.0874
   46MOL   C13319123   7.203   5.993   1.493 -0.3859 -0.1625 -0.6270
   46MOL   C13419124   7.218   5.981   1.344  0.3151  0.3099  0.3562
   46MOL   C13519125   7.317   6.082   1.279 -0.0930  0.0554 -0.0992
   46MOL   C13619126   7.310   6.070   1.121  0.6400  1.5897  0.5664
   46MOL   H13719127   7.462   5.947   1.766 -1.0635 -1.1327 -0.9814
   46MOL   H13819128   7.384   5.822   1.872  1.3416 -2.4500  1.8275
   46MOL   H13919129   7.428   5.660   1.698 -1.1408  0.3415  0.8011
   46MOL   H14019130   7.191   6.099   1.517 -2.3322 -0.0876 -1.8593
   46MOL   H14119131   7.113   5.946   1.531  0.4171 -1.5527 -0.4290
   46MOL   H14219132   7.252   5.879   1.327 -2.2467 -0.4198 -0.5785
   46MOL   H14319133   7.127   6.000   1.289  1.2748 -1.6270 -1.9980
   46MOL   H14419134   7.417   6.050   1.309  1.1697  2.3198 -1.7329
   46MOL   H14519135   7.294   6.185   1.306 -1.7438  0.2501 -2.1124
   46MOL   H14619136   7.212   6.081   1.077  0.8652 -0.0187 -0.3888
   46MOL   H14719137   7.349   5.972   1.092 -1.4268  1.2847 -1.2850
   46MOL   H14819138   7.364   6.152   1.075 -1.4525  1.5798 -1.9703
   46MOL   C14919139   7.560   5.768   1.577  0.0638 -0.1296  0.2692
   46MOL   C15019140   7.540   5.663   1.464  0.1619  0.4095 -0.3073
   46MOL   C15119141   7.609   5.716   1.335 -0.0678  0.9308  0.4338
   46MOL   O15219142   7.733   5.724   1.331 -0.1560  0.1198 -0.5400
   46MOL   O15319143   7.517   5.743   1.234  0.0015  0.2240  0.5989
   46MOL   C15419144   7.564   5.800   1.117 -0.0868  0.2080 -0.2923
   46MOL   C15519145   7.491   5.747   1.002  0.1033  0.0119  0.3370
   46MOL   C15619146   7.537   5.814   0.872  0.2807  0.3944 -0.2618
   46MOL   C15719147   7.479   5.756   0.739  0.1343  0.9950  0.1110
   46MOL   H15819148   7.654   5.754   1.630  1.0578 -0.2698 -1.5001
   46MOL   H15919149   7.581   5.867   1.537 -3.0692  0.6126  0.3194
   46MOL   H16019150   7.433   5.659   1.443  0.1505 -1.5895  0.0930
   46MOL   H16119151   7.672   5.789   1.103 -0.0801 -0.3900  0.2514
   46MOL   H16219152   7.537   5.906   1.126 -3.2938 -0.4154 -2.0948
   46MOL   H16319153   7.500   5.639   0.987  0.7843  0.1063  0.0005
   46MOL   H16419154   7.383   5.761   1.001  0.1090  0.0760  0.5663
   46MOL   H16519155   7.646   5.815   0.865  0.4075 -1.6836  0.8770
   46MOL   H16619156   7.499   5.916   0.877 -0.5006  0.0956 -0.0988
   46MOL   H16719157   7.516   5.815   0.655  1.8403 -1.9388 -1.2618
   46MOL   H16819158   7.372   5.741   0.728  0.4498 -0.9588 -0.4563
   46MOL   H16919159   7.528   5.659   0.727 -0.8468  0.3932  0.8957
   46MOL   C17019160   7.609   5.519   1.497  1.1082 -0.5660 -0.1716
   46MOL   C17119161   7.608   5.406   1.398 -0.3496 -0.2541 -0.0956
   46MOL   C17219162   7.698   5.290   1.437  0.2778 -0.7106 -0.3135
   46MOL   O17319163   7.808   5.271   1.392 -0.0764 -0.2433 -0.1412
   46MOL   O17419164   7.647   5.211   1.538  0.2447 -0.1293 -0.0595
   46MOL   C17519165   7.727   5.115   1.602  0.6451 -0.2784  0.1802
   46MOL   C17619166   7.669   5.044   1.726  0.6382  0.0892 -0.1941
   46MOL   C17719167   7.756   4.939   1.796 -0.6711 -0.0401  0.1771
   46MOL   C17819168   7.835   4.844   1.712 -0.3742 -1.2706  0.0113
   46MOL   H17919169   7.559   5.481   1.586  1.5310  0.4888  0.5324
   46MOL   H18019170   7.712   5.536   1.529  0.8112 -1.1729  1.1015
   46MOL   H18119171   7.636   5.443   1.299 -0.0850  0.5255  0.2709
   46MOL   H18219172   7.814   5.173   1.635  0.6437  1.9885 -3.5969
   46MOL   H18319173   7.760   5.036   1.533  0.5459 -2.0892  2.1412
   46MOL   H18419174   7.653   5.126   1.796  1.7265  0.6492 -0.6059
   46MOL   H18519175   7.573   4.994   1.708  0.4411  0.1114  0.7292
   46MOL   H18619176   7.706   4.882   1.874  1.0261 -1.1166  0.4936
   46MOL   H18719177   7.822   4.997   1.860 -1.4307 -1.3896  2.2137
   46MOL   H18819178   7.791   4.795   1.625 -1.5859 -1.6811  0.8265
   46MOL   H18919179   0.017   4.763   1.776  1.5491 -1.0190 -0.6950
   46MOL   H19019180   0.078   4.883   1.682  0.4520 -2.5035  0.9922
   46MOL   C19119181   7.459   5.364   1.366 -0.3361  0.1775 -0.7193
   46MOL   C19219182   7.441   5.277   1.230 -0.2247  0.0053  0.7589
   46MOL   C19319183   7.348   5.156   1.244  0.0539 -0.5987 -0.1321
   46MOL   O19419184   7.245   5.152   1.184  0.3461  0.1413  0.4875
   46MOL   O19519185   7.399   5.069   1.329 -0.4143  0.2449 -0.1816
   46MOL   C19619186   7.313   4.960   1.369 -0.9122  0.6412 -0.0924
   46MOL   C19719187   7.398   4.833   1.371 -0.1997 -0.6735  0.3171
   46MOL   C19819188   7.397   4.763   1.233  0.0840  0.4235 -0.3765
   46MOL   C19919189   7.469   4.625   1.225  0.7129 -0.5111 -0.7692
   46MOL   H20019190   7.398   5.454   1.359  0.5302  0.9783  1.5914
   46MOL   H20119191   7.425   5.312   1.456 -1.2843 -0.0795 -1.2166
   46MOL   H20219192   7.534   5.224   1.211 -0.3902  0.4349 -1.3639
   46MOL   H20319193   7.220   4.945   1.313 -0.8586  1.9033 -0.5354
   46MOL   H20419194   7.279   4.989   1.468  1.7309  1.1522  0.7064
   46MOL   H20519195   7.497   4.848   1.414 -0.4391  0.2375  0.5530
   46MOL   H20619196   7.356   4.768   1.447 -1.4280 -2.6835 -2.0232
   46MOL   H20719197   7.446   4.827   1.160  3.0958  1.2052  2.2364
   46MOL   H20819198   7.293   4.740   1.210  0.2156 -1.6584  0.9285
   46MOL   H20919199   7.456   4.577   1.128  0.3753 -0.2643 -0.8448
   46MOL   H21019200   7.430   4.545   1.289 -2.6984 -0.0906 -2.2546
   46MOL   H21119201   7.577   4.633   1.240  0.9334 -0.6489 -2.2520
   46MOL   C21219202   7.404   5.374   1.113  0.7639 -0.7734  0.2688
   46MOL   C21319203   7.471   5.352   0.977 -0.6079  0.0225  0.3560
   46MOL   C21419204   7.626   5.349   0.998 -0.2704  0.2884 -0.3306
   46MOL   O21519205   7.691   5.243   0.996  0.3348 -0.5676 -0.5462
   46MOL   O21619206   7.678   5.475   1.030 -0.2065 -0.0723 -0.0315
   46MOL   C21719207   7.819   5.484   1.049  0.2545 -0.1768 -0.2033
   46MOL   C21819208   0.040   5.512   0.918  0.3593 -0.2570 -0.1340
   46MOL   C21919209   0.059   5.385   0.840  0.2853 -0.2504  0.0219
   46MOL   C22019210   0.160   5.407   0.717 -1.0494 -0.1489 -0.9056
   46MOL   H22119211   7.427   5.478   1.138  1.9545 -0.7281 -0.9745
   46MOL   H22219212   7.295   5.385   1.110  0.9673  1.6351  0.7336
   46MOL   H22319213   7.436   5.438   0.920  2.2496  0.7222 -0.4401
   46MOL   H22419214   7.853   5.383   1.071 -1.0167 -1.0926 -2.2414
   46MOL   H22519215   0.004   5.539   1.135  2.4253  0.5715 -1.6046
   46MOL   H22619216   7.843   5.592   0.863 -1.2121 -0.6972  0.6147
   46MOL   H22719217   0.143   5.541   0.936  0.9914 -1.0642 -2.3069
   46MOL   H22819218   7.814   5.364   0.798 -0.6945  0.1917  2.0384
   46MOL   H22919219   0.094   5.296   0.892 -1.6030 -2.6336 -2.6116
   46MOL   H23019220   0.132   5.499   0.667  1.9039  1.7107  0.7359
   46MOL   H23119221   0.142   5.319   0.654 -3.7228 -3.0606  3.6087
   46MOL   H23219222   0.267   5.409   0.739 -1.3660 -0.6329  0.7593
   46MOL   C23319223   7.424   5.235   0.885  0.2072  0.0671 -0.2094
   46MOL   C23419224   7.272   5.246   0.855 -0.6571  0.0684  0.1749
   46MOL   C23519225   7.228   5.356   0.760 -0.9402  0.4813 -0.1477
   46MOL   O23619226   7.310   5.424   0.696 -0.2749 -0.1817  0.0172
   46MOL   O23719227   7.098   5.362   0.755  0.2232  0.8065  0.8658
   46MOL   C23819228   7.038   5.473   0.683 -0.9338  1.1886 -0.0661
   46MOL   C23919229   6.895   5.444   0.670  0.3618 -0.2367 -0.2611
   46MOL   C24019230   6.827   5.432   0.807  0.4017  0.0544  0.1894
   46MOL   C24119231   6.671   5.415   0.814 -0.5153 -0.2330  0.2951
   46MOL   H24219232   7.436   5.143   0.943  0.5109 -1.6344 -2.9101
   46MOL   H24319233   7.484   5.218   0.796  1.3369 -2.4887  0.9993
   46MOL   H24419234   7.221   5.268   0.949  0.1657  2.4627  0.0980
   46MOL   H24519235   7.098   5.487   0.593 -0.9084  1.0884 -0.0647
   46MOL   H24619236   7.054   5.567   0.735 -0.8869  1.4067 -0.4694
   46MOL   H24719237   6.833   5.519   0.621  1.4740  0.7683 -0.1227
   46MOL   H24819238   6.880   5.354   0.609  1.1934  0.2824 -1.2467
   46MOL   H24919239   6.853   5.514   0.874 -0.4175  0.8980 -0.5107
   46MOL   H25019240   6.872   5.344   0.854  0.8734 -0.2334 -0.7953
   46MOL   H25119241   6.643   5.386   0.915 -0.2009 -0.3961  0.3372
   46MOL   H25219242   6.640   5.343   0.737  0.1053  0.4261 -0.5831
   46MOL   H25319243   6.629   5.513   0.794 -0.3956 -0.5252 -1.5246
   46MOL   C25419244   7.232   5.103   0.820  0.1569 -0.3563  0.0984
   46MOL   C25519245   7.287   5.048   0.682 -0.4414  0.1869 -0.2892
   46MOL   C25619246   7.424   4.974   0.679  0.1936 -0.5658 -0.3813
   46MOL   O25719247   7.470   4.917   0.773  0.0143  0.7363  0.4601
   46MOL   O25819248   7.482   4.976   0.562  0.1788  0.5389 -0.0524
   46MOL   C25919249   7.607   4.921   0.543  1.0920 -0.0459  0.4672
   46MOL   C26019250   7.664   4.942   0.406 -0.1374  0.3545  0.0374
   46MOL   C26119251   7.805   4.886   0.376 -0.1690  0.6676 -0.3275
   46MOL   C26219252   0.054   4.980   0.440 -0.0906 -0.0217  0.3686
   46MOL   H26319253   7.123   5.107   0.816  0.0899 -0.4684  1.5871
   46MOL   H26419254   7.259   5.041   0.905  1.5195 -0.0827 -0.1226
   46MOL   H26519255   7.323   5.137   0.631  1.0390 -0.4597 -0.3956
   46MOL   H26619256   7.604   4.818   0.579 -1.5939 -0.1812 -0.0530
   46MOL   H26719257   7.671   4.979   0.609  1.3666  1.1806 -0.8605
   46MOL   H26819258   7.584   4.894   0.350 -0.9674  1.6077  0.1265
   46MOL   H26919259   7.656   5.046   0.376  0.0795  0.7749  1.4024
   46MOL   H27019260   7.817   4.881   0.268 -1.9618  0.2979 -0.5245
   46MOL   H27119261   7.815   4.783   0.409 -2.3168 -0.0229 -1.7686
   46MOL   H27219262   0.006   5.026   0.526  1.9127  2.9973 -0.0485
   46MOL   H27319263   0.088   5.061   0.376 -1.2923 -0.5031 -0.9091
   46MOL   H27419264   0.143   4.935   0.485 -0.2360 -0.6241  0.0550
   46MOL   C27519265   7.170   4.978   0.602  0.0412  0.1319  0.2251
   46MOL   C27619266   7.078   5.075   0.525 -0.0032  0.2024  0.0990
   46MOL   C27719267   7.144   5.171   0.428 -0.0202  0.4495 -0.0767
   46MOL   O27819268   7.254   5.153   0.378 -0.3603 -0.4246 -0.5029
   46MOL   O27919269   7.057   5.260   0.379  0.5070  0.3630 -0.4366
   46MOL   C28019270   7.107   5.353   0.286 -0.1055 -0.5209 -0.1881
   46MOL   C28119271   7.036   5.345   0.148 -0.4342 -0.0235  0.5335
   46MOL   C28219272   7.100   5.450   0.046 -0.0909 -0.8234  0.0917
   46MOL   C28319273   7.075   5.404   7.755  0.4978 -0.6481  0.5872
   46MOL   H28419274   7.110   4.915   0.668 -0.2620  1.2057  0.9744
   46MOL   H28519275   7.213   4.909   0.529 -1.2825  0.2282 -0.6656
   46MOL   H28619276   7.042   5.148   0.597  0.5905 -0.8977  1.5716
   46MOL   H28719277   7.215   5.364   0.275  0.1517 -1.1809  1.5474
   46MOL   H28819278   7.064   5.447   0.321  1.0207  0.1220 -0.5186
   46MOL   H28919279   7.067   5.247   0.112  1.3868 -0.1127  2.2804
   46MOL   H29019280   6.928   5.357   0.160 -0.4762 -1.0976  1.3002
   46MOL   H29119281   7.207   5.464   0.059 -0.2045 -0.2741  0.4187
   46MOL   H29219282   7.064   5.552   0.056 -1.2149 -1.0668 -1.2722
   46MOL   H29319283   7.129   5.463   7.680 -2.2620 -0.1253 -1.0335
   46MOL   H29419284   6.969   5.413   7.734  0.5114 -1.5053  0.1217
   46MOL   H29519285   7.103   5.301   7.734 -2.0149 -1.3611  0.6898
   46MOL   C29619286   6.969   4.987   0.454  0.0894  0.2521  0.4351
   46MOL   C29719287   6.843   4.948   0.541  0.2155  0.3707 -0.8168
   46MOL   C29819288   6.756   5.075   0.576  0.3975 -0.4332 -0.4806
   46MOL   O29919289   6.720   5.102   0.697  0.1602 -0.3635  0.3793
   46MOL   O30019290   6.713   5.137   0.462  0.3262 -0.9848  0.1578
   46MOL   C30119291   6.619   5.243   0.463  0.4043 -0.0045  0.0020
   46MOL   C30219292   6.614   5.314   0.324  0.4215 -0.9315  1.1715
   46MOL   C30319293   6.542   5.245   0.213  0.0329  0.3152  0.0327
   46MOL   C30419294   6.569   5.304   0.074 -0.0443 -0.3438  0.5473
   46MOL   H30519295   7.009   4.894   0.415 -1.0473 -0.7783  1.6776
   46MOL   H30619296   6.934   5.042   0.367 -2.0205  0.7775  1.5646
   46MOL   H30719297   6.890   4.917   0.634  0.0358  2.2693 -0.0614
   46MOL   H30819298   6.654   5.324   0.527  1.3839  0.7214 -1.4340
   46MOL   H30919299   6.522   5.200   0.488 -0.2423  1.0594 -0.6299
   46MOL   H31019300   6.560   5.407   0.342  1.4203 -0.1828  0.3815
   46MOL   H31119301   6.719   5.334   0.300 -0.2163 -1.8053 -2.6489
   46MOL   H31219302   6.435   5.246   0.231 -0.5362 -0.5568 -3.0004
   46MOL   H31319303   6.567   5.139   0.209 -1.8555 -0.1363 -0.1719
   46MOL   H31419304   6.511   5.248   7.853  0.0247  1.5805 -0.9833
   46MOL   H31519305   6.672   5.302   0.039 -0.0963  2.5290  0.1037
   46MOL   H31619306   6.527   5.404   0.079  2.2279  0.6084  0.7355
   46MOL   C31719307   6.761   4.839   0.475  0.3062 -0.0310  0.1077
   46MOL   C31819308   6.713   4.730   0.571 -0.5508  0.5422  0.1137
   46MOL   C31919309   6.830   4.639   0.614  0.7693 -0.4074 -0.3152
   46MOL   O32019310   6.877   4.636   0.727 -0.5372 -0.3847  0.1351
   46MOL   O32119311   6.885   4.575   0.512 -0.5540 -0.1996 -0.0949
   46MOL   C32219312   7.012   4.508   0.523 -0.3807 -0.8284 -0.5281
   46MOL   C32319313   7.135   4.611   0.521  0.3961 -0.6232 -0.2285
   46MOL   C32419314   7.263   4.534   0.550 -0.4444  0.6982 -0.3121
   46MOL   C32519315   7.352   4.623   0.634 -0.4203 -0.1504 -0.9269
   46MOL   H32619316   6.820   4.793   0.395  0.0304 -1.1958  0.5711
   46MOL   H32719317   6.671   4.876   0.425  0.3419  1.0610  0.8238
   46MOL   H32819318   6.656   4.660   0.510 -0.6092  1.1312 -0.5119
   46MOL   H32919319   7.031   4.430   0.449  0.6805 -1.7093  0.6388
   46MOL   H33019320   7.001   4.461   0.620  0.7082  2.2716  1.1756
   46MOL   H33119321   7.146   4.660   0.424 -1.7534  0.2005 -0.0903
   46MOL   H33219322   7.114   4.692   0.591 -1.1289 -2.3673  1.3953
   46MOL   H33319323   7.314   4.502   0.459 -0.6027  3.7887 -1.5648
   46MOL   H33419324   7.239   4.455   0.621  1.4560  0.0918 -0.3120
   46MOL   H33519325   7.444   4.576   0.668  0.7282  2.5159 -0.2489
   46MOL   H33619326   7.291   4.661   0.717  2.7697  0.9025  1.0174
   46MOL   H33719327   7.383   4.698   0.562 -0.7849  0.8532 -0.0565
   46MOL   C33819328   6.629   4.778   0.690  0.1274 -0.2110 -0.2921
   46MOL   C33919329   6.560   4.654   0.771 -0.0535 -0.3031 -0.9510
   46MOL   C34019330   6.536   4.688   0.921  0.0614 -0.7235  0.1378
   46MOL   O34119331   6.593   4.622   1.011 -0.0806 -0.1545  0.0429
   46MOL   O34219332   6.458   4.797   0.944 -0.0944 -0.0960  0.2007
   46MOL   C34319333   6.413   4.838   1.069  0.2117 -0.2055  0.3462
   46MOL   C34419334   6.276   4.773   1.097  0.4280  0.3249 -0.1409
   46MOL   C34519335   6.156   4.807   1.009 -0.3107 -0.0533  0.1673
   46MOL   C34619336   6.023   4.745   1.050 -0.2809 -0.3383  0.2661
   46MOL   H34719337   6.561   4.858   0.662  2.0904  0.8022 -2.3437
   46MOL   H34819338   6.693   4.828   0.763  0.0829 -0.2761 -0.2097
   46MOL   H34919339   6.635   4.576   0.755 -0.3227 -1.1737  1.8598
   46MOL   H35019340   6.395   4.946   1.075  0.9169  0.1068 -2.5181
   46MOL   H35119341   6.486   4.812   1.146  0.7286  0.5159  0.1067
   46MOL   H35219342   6.288   4.665   1.104  0.0574  0.2627 -0.4727
   46MOL   H35319343   6.238   4.801   1.196 -0.1955  0.9775 -0.5603
   46MOL   H35419344   6.165   4.775   0.905  0.2976 -0.3938  0.3289
   46MOL   H35519345   6.138   4.915   1.003 -0.1105 -0.1008 -1.7132
   46MOL   H35619346   6.035   4.638   1.035  0.6090 -0.1929 -0.1114
   46MOL   H35719347   5.938   4.776   0.988 -0.0744 -0.6204 -0.1634
   46MOL   H35819348   6.001   4.760   1.155  1.8193 -1.0185  0.8281
   46MOL   C35919349   6.424   4.625   0.701 -0.1345 -0.2269 -0.2093
   46MOL   C36019350   6.343   4.514   0.766 -0.1187 -0.3093 -0.0598
   46MOL   C36119351   6.201   4.500   0.711  0.4294 -0.5620 -0.2221
   46MOL   O36219352   6.159   4.553   0.609 -0.3114  0.1516  0.0330
   46MOL   O36319353   6.111   4.434   0.797 -0.3350  0.4529  0.5035
   46MOL   C36419354   5.975   4.411   0.764 -0.3915  0.1696  0.0325
   46MOL   C36519355   5.877   4.512   0.818 -0.2225  0.2213 -0.7243
   46MOL   C36619356   5.744   4.516   0.742  1.0536 -0.0618 -0.0987
   46MOL   C36719357   5.633   4.587   0.823 -0.4890  0.8652 -0.4711
   46MOL   H36819358   6.446   4.603   0.596  1.2841 -0.1334  0.0596
   46MOL   H36919359   6.371   4.720   0.694 -0.4188 -0.3360  0.4671
   46MOL   H37019360   6.337   4.554   0.868  1.2190  2.8292 -1.1659
   46MOL   H37119361   5.949   4.313   0.804  1.5345 -0.0066  0.9094
   46MOL   H37219362   5.959   4.407   0.656 -2.8000  2.0399  0.2755
   46MOL   H37319363   5.859   4.483   0.922  0.3071 -3.1073 -1.5147
   46MOL   H37419364   5.919   4.612   0.830  0.4904 -0.1886  0.2168
   46MOL   H37519365   5.719   4.413   0.718  0.8691 -0.5199  1.9469
   46MOL   H37619366   5.748   4.569   0.647 -0.3691 -1.5734 -1.0139
   46MOL   H37719367   5.545   4.607   0.762 -1.6068 -0.1614  0.7775
   46MOL   H37819368   5.674   4.678   0.866 -0.6588  1.1285 -0.8598
   46MOL   H37919369   5.599   4.519   0.901  1.1808 -1.4471 -1.6654
   46MOL   C38019370   6.407   4.374   0.771 -0.1300 -0.6529 -0.2868
   46MOL   C38119371   6.426   4.301   0.637  0.6039  0.3097 -0.6903
   46MOL   C38219372   6.570   4.266   0.599 -0.6624 -0.2014  0.2175
   46MOL   O38319373   6.627   4.338   0.519  0.0603 -0.0351  0.8083
   46MOL   O38419374   6.617   4.160   0.674 -0.2338  0.0822 -0.0859
   46MOL   C38519375   6.745   4.106   0.641 -0.3971  0.2707 -0.8250
   46MOL   C38619376   6.773   3.968   0.708  0.7836 -0.4567 -0.6269
   46MOL   C38719377   6.914   3.908   0.691  0.2145  0.2965  0.7056
   46MOL   C38819378   6.932   3.778   0.772  0.1052 -0.3163 -0.5781
   46MOL   H38919379   6.348   4.316   0.842 -1.8743  1.6605  0.2113
   46MOL   H39019380   6.504   4.387   0.819 -0.9119  0.6893  0.9833
   46MOL   H39119381   6.399   4.370   0.557 -0.4900  1.2040  0.4352
   46MOL   H39219382   6.813   4.180   0.685  0.6374 -0.0765 -1.7992
   46MOL   H39319383   6.769   4.116   0.535  0.7188  1.5121 -0.4765
   46MOL   H39419384   6.757   3.987   0.814 -2.0681 -1.4497 -0.8280
   46MOL   H39519385   6.700   3.891   0.684  0.3827 -0.6168  1.0596
   46MOL   H39619386   6.997   3.974   0.720  1.6558 -0.2795 -1.9885
   46MOL   H39719387   6.928   3.885   0.586 -3.5315  0.0442  0.1924
   46MOL   H39819388   7.023   3.720   0.750 -0.0992 -0.1150 -2.0384
   46MOL   H39919389   6.841   3.719   0.765  0.0695 -0.1381 -1.7542
   46MOL   H40019390   6.942   3.803   0.877  2.9847 -2.6412 -0.2253
   46MOL   C40119391   6.320   4.186   0.626  0.1737  0.0577  1.0736
   46MOL   C40219392   6.310   4.136   0.480  0.0557  0.1652 -0.0686
   46MOL   C40319393   6.187   4.046   0.459  0.0729 -0.7711  0.7069
   46MOL   O40419394   6.109   4.062   0.367  0.0890  0.3004  0.1237
   46MOL   O40519395   6.176   3.953   0.554  0.2792 -0.3481 -0.3843
   46MOL   C40619396   6.055   3.877   0.560  0.0280  0.3035  0.7566
   46MOL   C40719397   5.979   3.911   0.692  0.7582  0.3564  0.1297
   46MOL   C40819398   5.866   4.013   0.672  0.2671 -1.0419  0.2842
   46MOL   C40919399   5.798   4.062   0.793 -0.2566 -0.9606 -0.3124
   46MOL   H41019400   6.222   4.214   0.666 -0.3957  0.2305 -0.3934
   46MOL   H41119401   6.349   4.108   0.696  1.2405 -0.4407  0.0889
   46MOL   H41219402   6.395   4.072   0.457  1.8549  1.8280  1.7372
   46MOL   H41319403   6.090   3.774   0.559 -1.9048 -0.3740  0.2160
   46MOL   H41419404   5.981   3.873   0.480 -1.2636 -0.5753  1.9724
   46MOL   H41519405   5.934   3.821   0.734  0.9348  0.1311 -0.1638
   46MOL   H41619406   6.049   3.955   0.764  1.1150  0.4668 -0.2846
   46MOL   H41719407   5.792   3.971   0.605  1.3692 -1.9416 -0.3833
   46MOL   H41819408   5.900   4.107   0.627 -0.1570 -0.8639  0.3325
   46MOL   H41919409   5.865   4.115   0.861  1.6222  1.9154 -4.1944
   46MOL   H42019410   5.751   3.977   0.842 -0.3499  0.5856  2.3248
   46MOL   H42119411   5.722   4.131   0.756 -3.1491 -3.2949  1.1165
   46MOL   H42219412   6.303   4.226   0.419 -1.8023  0.7026  0.9359
   47MOL     C119413   7.222   0.316   3.656 -0.3986 -0.7959 -0.2783
   47MOL     C219414   7.076   0.300   3.683 -0.4016 -0.1773  0.2105
   47MOL     C319415   7.050   0.149   3.718 -0.4409 -0.1516  0.2747
   47MOL     O419416   7.018   0.107   3.829  0.5208 -0.3169 -0.6809
   47MOL     O519417   7.078   0.068   3.616  0.7653 -0.6381  0.4885
   47MOL     C619418   7.087   7.779   3.632 -0.3667 -0.0753 -0.4259
   47MOL     C719419   7.233   7.744   3.663 -0.6201  0.5393 -0.1742
   47MOL     C819420   7.261   7.594   3.664 -0.1186 -0.9464  0.0546
   47MOL     C919421   7.411   7.558   3.660 -0.2468  0.3663  0.1002
   47MOL    H1019422   7.232   0.423   3.639  1.8719 -0.5124  2.4292
   47MOL    H1119423   7.277   0.288   3.746 -1.1387  0.1269  0.4715
   47MOL    H1219424   7.016   0.320   3.594  0.2622 -1.6859 -0.5869
   47MOL    H1319425   7.051   7.727   3.543 -1.9926 -1.2365  0.8911
   47MOL    H1419426   7.014   7.760   3.711 -1.5645  0.4027 -1.3946
   47MOL    H1519427   7.301   7.790   3.590 -1.1861 -0.2880 -1.2331
   47MOL    H1619428   7.255   7.788   3.760  0.1816 -1.6337  0.6644
   47MOL    H1719429   7.224   7.547   3.573  2.2582  0.1133 -1.5120
   47MOL    H1819430   7.220   7.550   3.755 -2.4709  1.7554  0.3574
   47MOL    H1919431   7.430   7.453   3.682  0.1526  0.8447  2.0916
   47MOL    H2019432   7.453   7.618   3.740 -0.1726  0.1402  0.2302
   47MOL    H2119433   7.450   7.598   3.567 -2.1707 -0.6230 -1.1753
   47MOL    H2219434   7.258   0.274   3.562 -1.2989  0.5158 -1.2423
   47MOL    C2319435   7.019   0.386   3.804  0.2616  0.0243  0.0398
   47MOL    C2419436   7.024   0.536   3.789 -0.5027  0.3823  0.1359
   47MOL    C2519437   6.978   0.578   3.646  0.1981  0.4289 -0.2168
   47MOL    O2619438   7.053   0.622   3.563 -0.1287 -0.0335  0.3749
   47MOL    O2719439   6.850   0.560   3.639 -0.1622  0.1507  1.2777
   47MOL    C2819440   6.792   0.585   3.507 -0.3516  0.0308 -0.1165
   47MOL    C2919441   6.641   0.606   3.532 -0.4170 -0.4801 -0.3606
   47MOL    C3019442   6.554   0.476   3.550  0.4642 -0.4087 -0.1124
   47MOL    C3119443   6.412   0.518   3.605 -0.1309  0.1910 -0.4443
   47MOL    H3219444   7.072   0.351   3.892 -0.7568 -1.2437  0.1581
   47MOL    H3319445   6.917   0.357   3.828  0.8370 -0.4411  2.0288
   47MOL    H3419446   7.126   0.576   3.785 -0.0689 -0.5314  1.6415
   47MOL    H3519447   6.813   0.507   3.433 -1.8756  0.5539 -1.1310
   47MOL    H3619448   6.839   0.672   3.462  0.6441 -0.9559 -1.0394
   47MOL    H3719449   6.637   0.673   3.618 -0.6978  0.5865 -1.1957
   47MOL    H3819450   6.601   0.663   3.448  0.2143  0.2188 -0.1963
   47MOL    H3919451   6.607   0.416   3.624 -0.7120 -1.0343  0.2368
   47MOL    H4019452   6.542   0.411   3.464  1.1490 -2.2321  1.1404
   47MOL    H4119453   6.361   0.592   3.543  0.9198  1.9615  0.7490
   47MOL    H4219454   6.412   0.559   3.706 -0.2361  0.5182 -0.5752
   47MOL    H4319455   6.348   0.430   3.610 -0.4229  0.4938  1.8755
   47MOL    C4419456   6.959   0.610   3.906  0.1957 -0.8436 -0.0877
   47MOL    C4519457   7.032   0.735   3.964 -0.1874  0.5147  0.0626
   47MOL    C4619458   7.035   0.842   3.855 -0.4132 -0.4345 -0.2629
   47MOL    O4719459   7.143   0.872   3.802 -0.0657  1.1159  0.7704
   47MOL    O4819460   6.916   0.912   3.851 -0.1024 -0.2820  0.6077
   47MOL    C4919461   6.900   1.030   3.766  0.2782  0.2877 -0.3459
   47MOL    C5019462   6.779   0.996   3.684  0.0591 -0.1171  0.2941
   47MOL    C5119463   6.732   1.103   3.585 -0.0845 -0.2797  0.4094
   47MOL    C5219464   6.604   1.061   3.507 -0.1910 -0.1325 -0.0087
   47MOL    H5319465   6.949   0.545   3.993  0.8343 -1.4009 -0.4242
   47MOL    H5419466   6.859   0.649   3.891  0.8691  1.6960  1.6051
   47MOL    H5519467   7.137   0.709   3.978 -0.8541 -2.2536  0.2239
   47MOL    H5619468   6.985   1.071   3.711 -0.9083  1.8631 -1.0182
   47MOL    H5719469   6.881   1.117   3.828  0.2289  0.5288 -0.6986
   47MOL    H5819470   6.794   0.908   3.621  0.2996 -1.3238  2.0099
   47MOL    H5919471   6.696   0.979   3.752  0.1446 -1.2824  0.1226
   47MOL    H6019472   6.812   1.108   3.511  0.7411 -0.7619  1.2639
   47MOL    H6119473   6.722   1.201   3.630  2.2998  0.6438 -0.9692
   47MOL    H6219474   6.523   1.049   3.579 -0.4623  0.9568 -0.1282
   47MOL    H6319475   6.617   0.972   3.445 -0.7250  0.0225 -0.3524
   47MOL    H6419476   6.573   1.144   3.443 -0.2947  0.0858  0.3196
   47MOL    C6519477   6.969   0.775   4.101  0.0960  0.2752 -0.0099
   47MOL    C6619478   7.029   0.908   4.161  0.1449 -0.2892 -0.0086
   47MOL    C6719479   6.953   0.967   4.281  0.5269 -0.2855  0.1617
   47MOL    O6819480   6.846   0.915   4.325 -0.1219 -0.1168  0.4385
   47MOL    O6919481   6.988   1.094   4.319  0.0391 -0.4126  0.2997
   47MOL    C7019482   6.917   1.167   4.415 -0.0551 -0.0895  0.0587
   47MOL    C7119483   6.964   1.311   4.397 -0.1058  0.3705 -0.2951
   47MOL    C7219484   6.912   1.413   4.493 -0.2953 -0.1837  0.0347
   47MOL    C7319485   6.972   1.551   4.486  0.6009  0.2016 -0.3694
   47MOL    H7419486   6.978   0.695   4.174 -1.9190  0.1914  0.1665
   47MOL    H7519487   6.861   0.775   4.091  0.0908  0.0670  0.0572
   47MOL    H7619488   7.021   0.982   4.082 -1.2403 -1.5650 -1.1041
   47MOL    H7719489   6.931   1.137   4.519  0.2808 -1.5076 -0.3739
   47MOL    H7819490   6.814   1.163   4.380  0.4142 -0.9249 -1.2737
   47MOL    H7919491   7.070   1.297   4.415 -0.4368 -0.2635  1.2582
   47MOL    H8019492   6.966   1.353   4.296 -1.1217  0.2800 -0.3599
   47MOL    H8119493   6.943   1.392   4.596  0.0354  1.6834  0.3396
   47MOL    H8219494   6.803   1.416   4.485 -0.2135 -0.3826 -1.2800
   47MOL    H8319495   6.921   1.628   4.544  1.2043  2.1191 -2.3264
   47MOL    H8419496   6.958   1.584   4.383 -1.5769  1.2630  0.2454
   47MOL    H8519497   7.078   1.549   4.511  0.3540  2.5043  1.0602
   47MOL    C8619498   7.175   0.902   4.188 -0.3664 -0.2978 -0.2328
   47MOL    C8719499   7.229   0.842   4.320 -0.6787  0.2025  0.0678
   47MOL    C8819500   7.204   0.699   4.338  0.7181  0.2789 -0.5175
   47MOL    O8919501   7.146   0.654   4.439  0.1886  0.3064 -0.1191
   47MOL    O9019502   7.234   0.618   4.235 -0.2497 -0.0361 -0.1324
   47MOL    C9119503   7.218   0.481   4.244 -0.3492 -0.1281 -0.0129
   47MOL    C9219504   7.281   0.412   4.121 -0.2564 -0.2149 -0.1152
   47MOL    C9319505   7.435   0.433   4.112 -0.3555 -0.1716  0.4844
   47MOL    C9419506   7.475   0.398   3.967 -0.2096 -0.0052 -0.0473
   47MOL    H9519507   7.210   1.005   4.188  0.5068 -0.5738 -1.7613
   47MOL    H9619508   7.228   0.864   4.100  0.0057  1.1103 -0.6308
   47MOL    H9719509   7.183   0.896   4.403 -1.4494  1.0169 -0.8673
   47MOL    H9819510   7.112   0.454   4.252 -1.3407  2.2227 -3.8506
   47MOL    H9919511   7.261   0.441   4.336 -3.3084 -0.5412  1.2538
   47MOL   H10019512   7.255   0.307   4.132 -0.8315 -0.2634 -1.7470
   47MOL   H10119513   7.232   0.453   4.032  1.9590 -0.3958 -1.4580
   47MOL   H10219514   7.483   0.370   4.186  2.1522  1.6619  0.4920
   47MOL   H10319515   7.481   0.528   4.139 -3.6234  1.0796  1.9152
   47MOL   H10419516   7.582   0.410   3.949 -0.6555  0.0909 -2.8627
   47MOL   H10519517   7.423   0.458   3.893  0.1486 -1.6718 -1.6898
   47MOL   H10619518   7.448   0.294   3.947 -0.3249 -0.1646  0.8849
   47MOL   C10719519   7.387   0.868   4.347 -0.5050  0.5564 -0.4081
   47MOL   C10819520   7.438   0.879   4.497 -0.2559 -0.9576  0.6360
   47MOL   C10919521   7.358   0.975   4.584 -0.4276 -0.0197 -0.5374
   47MOL   O11019522   7.277   0.940   4.672  0.7152 -0.7229  0.3224
   47MOL   O11119523   7.387   1.106   4.557  0.3672  0.0219 -0.2482
   47MOL   C11219524   7.319   1.207   4.641  0.4498 -0.4685 -0.4743
   47MOL   C11319525   7.358   1.347   4.598  0.7860  0.4652  0.2537
   47MOL   C11419526   7.484   1.410   4.650  0.5297  0.1019 -0.7717
   47MOL   C11519527   7.490   1.553   4.588 -0.7937 -0.5831  1.1861
   47MOL   H11619528   7.414   0.961   4.296  0.8126  0.5950  0.3412
   47MOL   H11719529   7.448   0.789   4.304 -3.8198 -2.3366 -0.0369
   47MOL   H11819530   7.532   0.933   4.482 -0.8896  0.0950  0.3607
   47MOL   H11919531   7.347   1.192   4.746 -0.2600 -0.6418 -0.3126
   47MOL   H12019532   7.213   1.186   4.639  0.3950 -0.2784  0.1947
   47MOL   H12119533   7.362   1.359   4.490  2.0809  0.3089  0.2820
   47MOL   H12219534   7.277   1.409   4.637 -1.2905 -2.9459  1.6762
   47MOL   H12319535   7.575   1.361   4.615  0.4568 -1.1796  0.7815
   47MOL   H12419536   7.478   1.405   4.759  0.2723  0.2223 -0.7798
   47MOL   H12519537   7.474   1.557   4.480  0.6697  0.1736  0.9903
   47MOL   H12619538   7.577   1.616   4.608 -1.4255  0.9400 -0.5889
   47MOL   H12719539   7.419   1.626   4.628  0.0814  0.2359  1.2758
   47MOL   C12819540   7.472   0.737   4.560 -0.4438 -0.0556  0.0601
   47MOL   C12919541   7.593   0.660   4.511 -0.0801 -0.1617  0.3670
   47MOL   C13019542   7.721   0.748   4.496  0.5554  1.0643 -0.2049
   47MOL   O13119543   7.811   0.710   4.420 -0.4182  0.1680  0.4876
   47MOL   O13219544   7.725   0.852   4.584  0.4307 -0.0737  0.8628
   47MOL   C13319545   0.001   0.915   4.611  0.0944 -0.1964 -0.1085
   47MOL   C13419546   0.030   1.019   4.499  0.1656  0.0381  0.5285
   47MOL   C13519547   7.816   1.160   4.516  0.0570 -0.0093  0.0163
   47MOL   C13619548   0.020   1.263   4.419 -0.2188 -0.4142 -0.9346
   47MOL   H13719549   7.395   0.661   4.564 -0.5554  0.1409  2.2783
   47MOL   H13819550   7.511   0.749   4.662 -0.8232  2.1279 -0.0361
   47MOL   H13919551   7.578   0.614   4.413 -0.2588  0.2541  0.1987
   47MOL   H14019552   0.074   0.834   4.607 -0.1035 -0.3151 -1.8163
   47MOL   H14119553   7.851   0.960   4.711 -0.8345 -0.6257  0.0650
   47MOL   H14219554   0.137   1.037   4.487 -0.0420  1.1106  0.2807
   47MOL   H14319555   0.007   0.981   4.399  2.4438  0.6398 -0.2567
   47MOL   H14419556   7.848   1.199   4.613  0.2168 -0.3127  0.0856
   47MOL   H14519557   7.708   1.145   4.511  0.2281 -1.6814  1.1618
   47MOL   H14619558   0.128   1.255   4.410 -0.4120 -1.9462 -2.0924
   47MOL   H14719559   7.826   1.360   4.437 -0.8687 -0.3399 -2.9423
   47MOL   H14819560   7.840   1.246   4.317 -0.1532  0.3086 -1.0826
   47MOL   C14919561   7.623   0.545   4.613  0.2135  0.0027  0.3100
   47MOL   C15019562   7.733   0.443   4.580  0.0872  0.2267 -0.3930
   47MOL   C15119563   7.772   0.366   4.700 -0.3096 -0.3747 -0.4540
   47MOL   O15219564   7.693   0.328   4.782  0.0969 -0.3343  0.3480
   47MOL   O15319565   0.053   0.352   4.697 -0.2934 -0.2670 -0.1312
   47MOL   C15419566   0.118   0.262   4.782 -0.3820  0.2864 -0.0591
   47MOL   C15519567   0.132   0.129   4.707  0.2376  0.0658  0.4723
   47MOL   C15619568   0.220   0.025   4.769  0.1797 -0.5908  0.2400
   47MOL   C15719569   0.268   7.772   4.680 -0.6197 -0.0849 -0.7827
   47MOL   H15819570   7.528   0.495   4.633  0.6682 -0.5561  1.0691
   47MOL   H15919571   7.643   0.582   4.714 -1.9589 -1.3741  1.2937
   47MOL   H16019572   7.819   0.508   4.561 -1.9308  3.0183 -0.2908
   47MOL   H16119573   0.066   0.263   4.878 -0.6079  0.7988 -0.1849
   47MOL   H16219574   0.215   0.307   4.805  0.6151 -2.0564  0.4596
   47MOL   H16319575   0.031   0.088   4.698  0.2431  0.0253  0.6030
   47MOL   H16419576   0.163   0.150   4.604 -1.4311 -0.6255 -0.1999
   47MOL   H16519577   0.190   7.830   4.863  1.5772  0.5225  1.2818
   47MOL   H16619578   0.306   0.081   4.807 -0.7292  0.2931  1.0559
   47MOL   H16719579   0.337   7.708   4.735 -0.7092  0.0336 -0.5354
   47MOL   H16819580   0.336   7.817   4.607 -0.3410  0.6168 -0.1019
   47MOL   H16919581   0.193   7.714   4.627 -1.0611  0.1199 -0.3777
   47MOL   C17019582   7.698   0.366   4.451  1.0253  0.0076 -0.6669
   47MOL   C17119583   7.811   0.296   4.370 -0.2171  0.3449  0.5778
   47MOL   C17219584   7.752   0.165   4.302  0.4288 -0.2559  0.4172
   47MOL   O17319585   7.642   0.163   4.248 -0.2274 -0.2532  0.1226
   47MOL   O17419586   7.823   0.054   4.313 -0.5304  0.0211 -0.2651
   47MOL   C17519587   7.760   7.781   4.278 -0.1961  0.4692 -0.2182
   47MOL   C17619588   0.016   7.675   4.290 -0.5687  0.5813  0.6530
   47MOL   C17719589   7.824   7.549   4.222 -0.3197 -0.0259 -0.7026
   47MOL   C17819590   7.818   7.562   4.069 -0.5035  0.0299  0.4174
   47MOL   H17919591   7.644   0.428   4.379  0.4429  1.8661  1.3394
   47MOL   H18019592   7.619   0.294   4.469 -0.6159  1.5504 -1.5182
   47MOL   H18119593   0.032   0.260   4.441  0.8844  2.2069  0.4048
   47MOL   H18219594   7.718   7.797   4.179 -0.0626  2.1813 -0.0074
   47MOL   H18319595   7.673   7.773   4.344  1.0579  0.8675  1.5146
   47MOL   H18419596   0.113   7.710   4.254 -1.2927  1.8003 -0.1656
   47MOL   H18519597   0.031   7.660   4.397  1.5690 -1.1530  0.1504
   47MOL   H18619598   7.724   7.515   4.246 -0.2374  0.1215 -0.1399
   47MOL   H18719599   0.037   7.468   4.254 -1.3797  0.0868  1.8987
   47MOL   H18819600   7.816   7.458   4.035 -0.0429 -0.4343  1.7987
   47MOL   H18919601   0.049   7.618   4.028  0.7046 -0.7723  1.7467
   47MOL   H19019602   7.728   7.615   4.038 -0.1737  1.1085  1.2906
   47MOL   C19119603   0.017   0.398   4.278  0.2363  0.1905 -0.7774
   47MOL   C19219604   0.136   0.464   4.333 -0.6591  0.1755 -0.0759
   47MOL   C19319605   0.246   0.364   4.374  0.4381 -0.0779  0.1969
   47MOL   O19419606   0.273   0.277   4.294  0.0551 -0.6250  0.2020
   47MOL   O19519607   0.306   0.384   4.501  0.1260 -0.4147 -0.0648
   47MOL   C19619608   0.417   0.306   4.538 -0.6874 -0.0243  0.2886
   47MOL   C19719609   0.553   0.359   4.477  0.2222  0.7985  0.1439
   47MOL   C19819610   0.679   0.301   4.546  0.4624  0.0810  0.6091
   47MOL   C19919611   0.723   0.360   4.674  0.4720 -0.5160  0.1147
   47MOL   H20019612   7.795   0.468   4.242  0.3139  0.3626 -0.6095
   47MOL   H20119613   0.060   0.338   4.197  3.6572  1.9690 -0.3930
   47MOL   H20219614   0.100   0.507   4.426 -0.2746 -0.6734  0.4662
   47MOL   H20319615   0.405   0.204   4.503 -1.8476 -0.0427  0.7226
   47MOL   H20419616   0.428   0.311   4.646 -0.6177  0.4085  0.2624
   47MOL   H20519617   0.553   0.347   4.369  0.2233  2.8619 -0.1142
   47MOL   H20619618   0.544   0.466   4.496 -0.6085  0.9244 -0.9032
   47MOL   H20719619   0.766   0.308   4.480 -1.3635 -0.6169 -1.9513
   47MOL   H20819620   0.656   0.198   4.569 -3.7156  1.1274  1.4156
   47MOL   H20919621   0.660   0.333   4.759  0.3881  0.0325  0.2252
   47MOL   H21019622   0.725   0.469   4.669 -0.0046 -0.5174 -0.0808
   47MOL   H21119623   0.824   0.329   4.703  0.6458  0.5609  0.6843
   47MOL   C21219624   0.193   0.574   4.246 -0.5012 -0.9865  0.3102
   47MOL   C21319625   0.282   0.541   4.125 -0.0169 -0.7229  0.0444
   47MOL   C21419626   0.240   0.628   3.999  0.0645 -0.0018 -0.5784
   47MOL   O21519627   0.319   0.695   3.935 -0.1268  0.0211  0.0097
   47MOL   O21619628   0.109   0.602   3.972  0.0443 -0.5579  0.3929
   47MOL   C21719629   0.055   0.642   3.849 -0.1590 -0.0923  0.5672
   47MOL   C21819630   7.764   0.597   3.830 -0.0086 -0.1439  0.2989
   47MOL   C21919631   7.699   0.661   3.699 -0.0101 -0.2222  0.3591
   47MOL   C22019632   7.553   0.624   3.687  0.3375 -1.2283 -0.5096
   47MOL   H22119633   0.250   0.639   4.312 -2.6288 -0.6539  1.9190
   47MOL   H22219634   0.104   0.633   4.225  1.4124  1.4205 -1.1708
   47MOL   H22319635   0.246   0.445   4.090 -1.7223  0.1954 -0.7856
   47MOL   H22419636   0.111   0.589   3.772  0.1490 -1.0384  1.4371
   47MOL   H22519637   0.067   0.750   3.839  3.7323 -0.4257  0.8570
   47MOL   H22619638   7.760   0.488   3.825  1.1140 -0.1484 -0.6590
   47MOL   H22719639   7.704   0.615   3.919  1.9076  1.0390  1.3720
   47MOL   H22819640   7.755   0.632   3.610  1.2376  0.1515  1.0005
   47MOL   H22919641   7.711   0.769   3.711 -1.8192 -0.2309  2.4811
   47MOL   H23019642   7.528   0.675   3.594  1.3696 -0.8051 -0.5512
   47MOL   H23119643   7.488   0.658   3.767  3.1386  1.0003  0.8802
   47MOL   H23219644   7.542   0.516   3.672  0.2179 -1.5226  1.5141
   47MOL   C23319645   0.435   0.536   4.147 -0.1589  0.3029  0.2329
   47MOL   C23419646   0.513   0.460   4.037 -0.0917  0.4685  0.2525
   47MOL   C23519647   0.661   0.509   4.037  0.0574  0.0122  0.4379
   47MOL   O23619648   0.706   0.551   3.930 -0.1678  0.1459 -0.5212
   47MOL   O23719649   0.732   0.491   4.150  0.3452 -0.0778 -0.3008
   47MOL   C23819650   0.872   0.522   4.152 -0.1325  0.0162 -0.1699
   47MOL   C23919651   0.871   0.668   4.218  0.4597  0.3325 -0.2026
   47MOL   C24019652   0.810   0.674   4.360  0.0747  0.3163  0.3965
   47MOL   C24119653   0.802   0.816   4.418 -0.1907  0.0001 -0.3290
   47MOL   H24219654   0.463   0.496   4.245  1.2607 -0.7840 -0.5915
   47MOL   H24319655   0.464   0.641   4.146  0.0499  0.2340 -1.2542
   47MOL   H24419656   0.479   0.486   3.937  2.4363 -0.2376 -0.8532
   47MOL   H24519657   0.917   0.509   4.054  0.2888  2.9432 -0.4124
   47MOL   H24619658   0.912   0.440   4.212 -0.4540 -1.8348 -2.4283
   47MOL   H24719659   0.976   0.696   4.216  0.2096  1.3781  0.6548
   47MOL   H24819660   0.811   0.736   4.157  0.5862  0.2204 -0.4518
   47MOL   H24919661   0.873   0.616   4.427 -0.6315  0.0841  0.8587
   47MOL   H25019662   0.712   0.626   4.359  1.5298 -2.7844  1.1374
   47MOL   H25119663   0.763   0.820   4.519  0.0011  2.3041 -0.3111
   47MOL   H25219664   0.739   0.887   4.364  1.1033 -0.0905 -2.0094
   47MOL   H25319665   0.903   0.857   4.420  0.0649 -0.5552 -1.2442
   47MOL   C25419666   0.511   0.307   4.057  0.3278 -0.1289  0.2306
   47MOL   C25519667   0.569   0.227   3.937 -0.4601  0.0177  0.4490
   47MOL   C25619668   0.700   0.173   3.978 -0.0934 -0.0462  0.4020
   47MOL   O25719669   0.800   0.209   3.919 -0.0622 -0.3530 -0.0187
   47MOL   O25819670   0.699   0.090   4.084  0.6198  0.1988  0.0996
   47MOL   C25919671   0.825   0.041   4.138 -0.2724 -0.3655 -0.2439
   47MOL   C26019672   0.882   0.144   4.235  0.2192 -0.4700 -0.4377
   47MOL   C26119673   1.022   0.101   4.281 -0.1536  0.6131  0.0993
   47MOL   C26219674   1.081   0.198   4.380  0.5476 -0.1370  0.2661
   47MOL   H26319675   0.405   0.281   4.055  0.2357  0.1254  1.3889
   47MOL   H26419676   0.572   0.290   4.146 -0.4865  2.7795  1.3806
   47MOL   H26519677   0.583   0.296   3.854  2.5957  0.3542  1.2055
   47MOL   H26619678   0.900   0.031   4.059  1.4838 -1.2180  1.4905
   47MOL   H26719679   0.827   7.792   4.176 -1.8155 -0.0980  0.5939
   47MOL   H26819680   0.901   0.248   4.206  2.3494 -0.3078  1.4317
   47MOL   H26919681   0.815   0.145   4.321 -0.0394 -0.0609 -0.6398
   47MOL   H27019682   1.096   0.089   4.201  1.3110  1.4079  1.3184
   47MOL   H27119683   1.019   0.007   4.337  3.3739  0.5865  0.3462
   47MOL   H27219684   1.020   0.218   4.468 -0.9335 -1.9117 -0.3193
   47MOL   H27319685   1.105   0.294   4.334  0.2584 -0.0370  0.3208
   47MOL   H27419686   1.169   0.149   4.421  0.2036 -0.6854  0.3536
   47MOL   C27519687   0.486   0.103   3.893  0.6701 -0.3279 -0.5347
   47MOL   C27619688   0.381   0.124   3.791  0.7687  0.0298 -0.6101
   47MOL   C27719689   0.246   0.173   3.852  0.3056  0.3598 -0.0091
   47MOL   O27819690   0.198   0.278   3.837  0.2130 -0.2669  0.1141
   47MOL   O27919691   0.188   0.076   3.923 -0.0196  0.0104  0.2939
   47MOL   C28019692   0.074   0.099   4.001  0.7926 -0.0199 -0.2325
   47MOL   C28119693   7.815   0.043   3.917  0.1148  0.2856 -0.3214
   47MOL   C28219694   7.748   0.137   3.819  0.3680 -0.4057 -0.7970
   47MOL   C28319695   7.622   0.073   3.768 -0.4822  0.5019 -0.0359
   47MOL   H28419696   0.446   0.055   3.982 -0.6155  2.1299  0.2472
   47MOL   H28519697   0.558   0.034   3.847  2.6354  1.0413  0.4159
   47MOL   H28619698   0.359   0.020   3.768 -1.1074 -0.0765  1.5055
   47MOL   H28719699   0.047   0.200   4.033 -1.1984 -0.7776  0.6284
   47MOL   H28819700   0.101   0.039   4.088 -0.8587  0.3863  0.5823
   47MOL   H28919701   7.838   7.806   3.859 -0.3138  0.8601 -1.3919
   47MOL   H29019702   7.744   0.014   3.995  0.6962 -1.9395 -0.5647
   47MOL   H29119703   7.815   0.170   3.739  1.8793  2.2098  1.4601
   47MOL   H29219704   7.731   0.232   3.871  0.9827 -0.0892 -1.1576
   47MOL   H29319705   7.569   0.130   3.693 -0.0039 -0.7852 -1.3860
   47MOL   H29419706   7.546   0.045   3.842 -0.2861  1.7208  0.6324
   47MOL   H29519707   7.645   7.836   3.711  1.2557  0.8175  0.1389
   47MOL   C29619708   0.422   0.208   3.671  0.4277 -0.4844 -0.9627
   47MOL   C29719709   0.352   0.177   3.541 -0.2886 -0.6882 -0.6768
   47MOL   C29819710   0.206   0.228   3.518 -0.1180 -0.3455  0.4122
   47MOL   O29919711   0.108   0.154   3.531  1.0253 -0.2940  0.2813
   47MOL   O30019712   0.193   0.362   3.481  0.3221  0.3434 -0.7754
   47MOL   C30119713   0.064   0.420   3.477  0.0145 -0.3112 -0.7246
   47MOL   C30219714   0.064   0.534   3.378 -0.4085 -0.0496  0.1807
   47MOL   C30319715   0.080   0.471   3.237  1.1152 -0.5302 -0.2598
   47MOL   C30419716   0.017   0.551   3.132 -0.4192 -0.9842  0.6120
   47MOL   H30519717   0.531   0.210   3.667  0.3997  0.6560 -1.3940
   47MOL   H30619718   0.401   0.313   3.692  2.7428 -0.7064  2.9810
   47MOL   H30719719   0.349   0.068   3.539 -0.3790 -0.7089  0.4537
   47MOL   H30819720   0.046   0.458   3.578  0.6431 -1.2181 -0.2573
   47MOL   H30919721   7.849   0.335   3.463 -0.4584 -0.2600  1.1786
   47MOL   H31019722   7.821   0.586   3.376 -0.8687 -0.9276 -2.4330
   47MOL   H31119723   0.145   0.598   3.411 -0.0646 -0.7582  0.7303
   47MOL   H31219724   0.046   0.368   3.232 -3.0432  0.6636  1.3236
   47MOL   H31319725   0.184   0.455   3.209  2.2059  2.1625  1.9767
   47MOL   H31419726   7.762   0.539   3.136 -0.7630  2.0828  2.0119
   47MOL   H31519727   0.032   0.510   3.033 -1.2943 -0.4347  0.2396
   47MOL   H31619728   0.038   0.657   3.115  0.8030 -0.9348  2.2884
   47MOL   C31719729   0.437   0.228   3.421 -0.4557  0.3381  0.2961
   47MOL   C31819730   0.402   0.175   3.285  0.2964  0.6876 -0.6375
   47MOL   C31919731   0.461   0.252   3.173  0.9955  0.3902 -0.1852
   47MOL   O32019732   0.389   0.304   3.092 -0.1491  0.3738 -0.2295
   47MOL   O32119733   0.596   0.243   3.171  0.7547 -0.0433 -0.4543
   47MOL   C32219734   0.668   0.313   3.071  0.0981  0.5856 -0.2518
   47MOL   C32319735   0.785   0.228   3.029 -0.6754 -0.0383 -0.1085
   47MOL   C32419736   0.836   0.262   2.888 -0.2231  0.1979  0.5129
   47MOL   C32519737   0.945   0.162   2.839 -0.2368 -0.0332  0.5651
   47MOL   H32619738   0.540   0.195   3.438 -0.4837 -0.0845 -0.3336
   47MOL   H32719739   0.443   0.337   3.417  1.8803  0.2096 -0.7081
   47MOL   H32819740   0.296   0.192   3.271 -0.0829 -0.2375  0.9378
   47MOL   H32919741   0.704   0.411   3.103 -0.0572  1.6630 -3.2279
   47MOL   H33019742   0.612   0.341   2.981  1.6593  0.2321 -1.3556
   47MOL   H33119743   0.870   0.250   3.093  0.5655 -0.5826 -1.5324
   47MOL   H33219744   0.760   0.122   3.032 -1.4569  0.0303 -2.5572
   47MOL   H33319745   0.870   0.365   2.883 -0.1712  0.1155 -1.0089
   47MOL   H33419746   0.758   0.242   2.814  2.2346 -1.8689 -1.6590
   47MOL   H33519747   1.032   0.176   2.903 -1.5235  1.6260  1.9895
   47MOL   H33619748   0.992   0.169   2.741 -0.5269 -0.5973  0.3837
   47MOL   H33719749   0.909   0.061   2.860  1.5385 -0.2854  2.5191
   47MOL   C33819750   0.431   0.023   3.273  0.4942 -0.0091  0.4031
   47MOL   C33919751   0.300   7.785   3.270  0.2130  0.3651 -0.5968
   47MOL   C34019752   0.215   7.816   3.145  0.6160 -0.4336  0.9501
   47MOL   O34119753   0.092   7.834   3.151  0.2729  0.0706 -0.1790
   47MOL   O34219754   0.293   7.829   3.031  0.4362  0.1181  0.6705
   47MOL   C34319755   0.216   7.833   2.911  0.2334 -0.2152 -0.4492
   47MOL   C34419756   0.313   7.821   2.795 -0.9357  0.2649  1.0247
   47MOL   C34519757   0.226   7.815   2.661 -0.0049  0.2165 -0.2438
   47MOL   C34619758   0.313   7.750   2.546  1.0257 -0.5057 -0.0265
   47MOL   H34719759   0.502   7.838   3.347 -0.1128 -0.5626  0.7026
   47MOL   H34819760   0.497   0.011   3.187  0.8718 -4.5585  1.1931
   47MOL   H34919761   0.236   7.818   3.351 -1.2188 -1.7094 -0.8238
   47MOL   H35019762   0.157   0.071   2.903  0.0450 -0.1581  1.3155
   47MOL   H35119763   0.138   7.758   2.898 -0.2950  0.1225  0.7579
   47MOL   H35219764   0.374   0.057   2.809 -0.4354  0.3545 -1.4680
   47MOL   H35319765   0.369   7.727   2.790  0.4526  1.1468 -0.7269
   47MOL   H35419766   0.190   0.063   2.646 -1.5006  0.1014  2.3546
   47MOL   H35519767   0.135   7.757   2.673 -0.4378  1.1634  1.1006
   47MOL   H35619768   0.407   7.798   2.517  0.0903  1.3501 -0.0538
   47MOL   H35719769   0.251   7.742   2.457 -0.8403  2.4201  0.9734
   47MOL   H35819770   0.326   7.646   2.578  3.0164 -0.0942  0.5996
   47MOL   C35919771   0.320   7.628   3.280  0.1046 -0.7237 -0.3879
   47MOL   C36019772   0.404   7.589   3.406 -0.1452  0.7071  0.7128
   47MOL   C36119773   0.339   7.634   3.544  0.3756 -0.2352  0.0039
   47MOL   O36219774   0.392   7.715   3.618 -0.2662 -0.1526 -0.0834
   47MOL   O36319775   0.226   7.580   3.563  0.2073  0.0807 -0.2284
   47MOL   C36419776   0.149   7.610   3.679 -0.4362 -0.4446  0.4763
   47MOL   C36519777   0.022   7.528   3.678 -0.2593 -0.1611 -0.3608
   47MOL   C36619778   0.032   7.372   3.682  0.0864 -0.6607 -0.5478
   47MOL   C36719779   7.745   7.311   3.653 -0.5785  0.5958 -0.2485
   47MOL   H36819780   0.380   7.589   3.198  2.6665  0.1758  1.0110
   47MOL   H36919781   0.224   7.577   3.288  0.1881 -0.7195  0.7059
   47MOL   H37019782   0.497   7.645   3.402  0.0664  0.2581 -1.1200
   47MOL   H37119783   0.137   7.717   3.689 -0.3242 -0.4124  0.2853
   47MOL   H37219784   0.200   7.600   3.774  0.7336 -0.5724 -0.1509
   47MOL   H37319785   7.818   7.556   3.766 -1.5078 -2.4039 -0.4024
   47MOL   H37419786   7.806   7.547   3.596  0.9283  1.6782 -0.9462
   47MOL   H37519787   0.075   7.334   3.775 -2.4266 -1.5425  0.2980
   47MOL   H37619788   0.085   7.333   3.595  0.9605 -2.4075  0.7247
   47MOL   H37719789   7.674   7.330   3.734 -0.3625  0.7977 -0.1089
   47MOL   H37819790   7.743   7.202   3.641  1.0741  0.6613 -1.1907
   47MOL   H37919791   7.693   7.352   3.566 -1.6609  1.3546  0.7334
   47MOL   C38019792   0.426   7.437   3.413 -0.0067  0.4678  0.3839
   47MOL   C38119793   0.533   7.391   3.315  0.1815 -0.0374 -0.7492
   47MOL   C38219794   0.654   7.486   3.294  0.5476  0.4877 -1.1547
   47MOL   O38319795   0.754   7.479   3.366 -0.1929  0.4243  0.1698
   47MOL   O38419796   0.655   7.558   3.171  0.2571 -0.3825 -0.4500
   47MOL   C38519797   0.740   7.665   3.143 -0.3162 -0.8685  0.0907
   47MOL   C38619798   0.753   7.673   2.990 -0.5853 -0.1325 -0.2502
   47MOL   C38719799   0.630   7.725   2.903 -0.1006  0.0621  0.4752
   47MOL   C38819800   0.663   7.712   2.755  0.4054  0.6947  0.1707
   47MOL   H38919801   0.342   7.367   3.411 -0.3183  0.8594 -0.3012
   47MOL   H39019802   0.468   7.418   3.512 -1.0342  0.6033  0.8551
   47MOL   H39119803   0.497   7.390   3.212  2.5686  1.9678 -1.6652
   47MOL   H39219804   0.838   7.663   3.190  0.0146 -0.4584 -0.5715
   47MOL   H39319805   0.703   7.759   3.184  0.6961 -0.5059  0.1724
   47MOL   H39419806   0.841   7.732   2.963 -0.3745 -0.0369  0.6358
   47MOL   H39519807   0.784   7.575   2.954  1.7366  0.5060 -0.0445
   47MOL   H39619808   0.602   7.828   2.927 -0.4724  0.0762 -0.0198
   47MOL   H39719809   0.550   7.653   2.919 -2.2458  1.8342 -2.0079
   47MOL   H39819810   0.733   7.631   2.733 -1.6425 -0.7595 -1.0945
   47MOL   H39919811   0.720   7.800   2.723  1.2900  0.9154  2.2547
   47MOL   H40019812   0.576   7.715   2.691  0.9861  1.1335 -0.6043
   47MOL   C40119813   0.580   7.244   3.360 -0.7742 -0.5285  0.1146
   47MOL   C40219814   0.481   7.127   3.364 -0.2397 -0.2480 -0.1536
   47MOL   C40319815   0.442   7.082   3.226  0.3952 -0.0634 -0.4745
   47MOL   O40419816   0.327   7.072   3.183 -0.4657  0.0699 -0.5303
   47MOL   O40519817   0.551   7.029   3.162 -0.5462  0.1985  0.3550
   47MOL   C40619818   0.526   6.962   3.036 -0.3591  0.6697 -0.3224
   47MOL   C40719819   0.651   6.874   3.002  0.1264  0.0048 -0.6534
   47MOL   C40819820   0.630   6.793   2.875 -0.0819  0.1872 -0.3768
   47MOL   C40919821   0.633   6.877   2.748  0.5585 -0.4647 -0.4419
   47MOL   H41019822   0.605   7.253   3.466  0.5694 -1.0514 -0.1566
   47MOL   H41119823   0.677   7.217   3.319 -0.3635 -0.6799  1.1692
   47MOL   H41219824   0.389   7.165   3.409 -0.6687 -0.6711 -0.6549
   47MOL   H41319825   0.501   7.036   2.961  1.5197  1.8914  0.2127
   47MOL   H41419826   0.434   6.903   3.040  0.1195 -0.0766 -0.1514
   47MOL   H41519827   0.749   6.923   3.002  0.4694 -0.6552  0.3823
   47MOL   H41619828   0.664   6.802   3.083 -0.2983  1.2907  0.5722
   47MOL   H41719829   0.539   6.733   2.884  0.6218 -0.8091  0.3025
   47MOL   H41819830   0.707   6.717   2.862 -0.8535 -0.1795 -2.9270
   47MOL   H41919831   0.735   6.908   2.722 -0.1158  2.9084  0.5911
   47MOL   H42019832   0.578   6.971   2.761  1.0786  0.1645 -2.5633
   47MOL   H42119833   0.577   6.820   2.674  1.2766 -2.2018  0.3433
   47MOL   H42219834   0.524   7.045   3.422  2.7681  1.5071  0.1735
   48MOL     C119835   2.594   0.488   3.036  0.4948 -0.2431  0.3424
   48MOL     C219836   2.716   0.393   3.018  0.7389 -0.3688 -0.1282
   48MOL     C319837   2.776   0.398   2.876 -0.5358  0.1685  0.0198
   48MOL     O419838   2.762   0.306   2.797 -0.2706 -0.1915 -0.5524
   48MOL     O519839   2.824   0.517   2.840  0.2069  0.0204 -0.3012
   48MOL     C619840   2.870   0.538   2.715  0.1209  0.8799 -0.3359
   48MOL     C719841   3.023   0.526   2.707 -0.2705 -0.3424  0.1603
   48MOL     C819842   3.075   0.582   2.568  1.0786  0.4722 -1.0699
   48MOL     C919843   3.046   0.728   2.536 -0.0655  0.0648  0.1986
   48MOL    H1019844   2.605   0.588   2.993 -0.1071  0.7810  2.5185
   48MOL    H1119845   2.503   0.443   2.996 -0.0964 -0.1461  1.5454
   48MOL    H1219846   2.691   0.291   3.047  0.8916 -0.5257 -0.5396
   48MOL    H1319847   2.821   0.629   2.683 -2.2397 -0.1266  0.3239
   48MOL    H1419848   2.829   0.465   2.645 -0.8779  1.1376 -0.0227
   48MOL    H1519849   3.064   0.594   2.782  2.1053 -1.0530 -0.4427
   48MOL    H1619850   3.042   0.423   2.737  1.3040 -0.0649  0.1676
   48MOL    H1719851   3.040   0.517   2.487 -0.6163  0.6567 -0.5054
   48MOL    H1819852   3.184   0.581   2.570  1.0651 -0.8929  1.2599
   48MOL    H1919853   3.065   0.794   2.620  1.8119  3.1951 -2.5826
   48MOL    H2019854   2.938   0.729   2.518 -0.4281  0.0301  2.2963
   48MOL    H2119855   3.107   0.749   2.448  1.0987 -1.0109  0.7426
   48MOL    H2219856   2.588   0.511   3.142  0.7207  2.0163 -0.1099
   48MOL    C2319857   2.831   0.424   3.122  0.2972  0.4458 -0.3685
   48MOL    C2419858   2.800   0.399   3.273 -0.1726 -0.1072  0.2427
   48MOL    C2519859   2.809   0.254   3.305  0.6809  0.3247 -0.3841
   48MOL    O2619860   2.906   0.194   3.344 -0.1133 -0.0513 -0.2717
   48MOL    O2719861   2.688   0.204   3.279  0.0065  0.4580  0.0475
   48MOL    C2819862   2.674   0.064   3.262 -0.1775 -0.5901  0.2318
   48MOL    C2919863   2.661   0.017   3.122 -0.1005  0.3128  0.4923
   48MOL    C3019864   2.621   7.720   3.121 -0.4952  0.1759 -0.2244
   48MOL    C3119865   2.614   7.653   2.979 -0.0143  0.0648  0.1260
   48MOL    H3219866   2.866   0.523   3.094  0.7528 -0.4071 -3.0063
   48MOL    H3319867   2.918   0.361   3.100 -0.3874 -0.5413 -0.3047
   48MOL    H3419868   2.705   0.447   3.296  0.4359  1.0469  0.4036
   48MOL    H3519869   2.591   0.026   3.321 -0.0050 -1.0721  0.1645
   48MOL    H3619870   2.757   0.012   3.309 -0.5809 -1.0962  0.3797
   48MOL    H3719871   2.583   0.078   3.077  0.0038  0.7854  0.9432
   48MOL    H3819872   2.759   0.038   3.079 -0.8695  1.6608 -0.6519
   48MOL    H3919873   2.530   7.698   3.177  0.7405 -1.3206  1.2498
   48MOL    H4019874   2.692   7.666   3.183 -1.0835  0.1365  0.4339
   48MOL    H4119875   2.575   7.551   2.972 -0.6226  0.3296 -0.3543
   48MOL    H4219876   2.709   7.651   2.926 -0.6889  1.0639 -1.1450
   48MOL    H4319877   2.552   7.709   2.909 -1.8449  1.7984  3.0207
   48MOL    C4419878   2.899   0.474   3.365 -0.2257 -0.2504  0.2029
   48MOL    C4519879   2.938   0.614   3.319  0.4251  0.1207  0.6358
   48MOL    C4619880   2.820   0.703   3.293 -0.0854 -0.0386  0.0460
   48MOL    O4719881   2.723   0.687   3.358  0.4551  0.2161 -0.3127
   48MOL    O4819882   2.834   0.792   3.196 -0.6553 -0.2162 -0.9088
   48MOL    C4919883   2.729   0.876   3.159  0.0604 -0.0556 -0.5218
   48MOL    C5019884   2.791   1.002   3.098 -0.3852  0.9731 -0.4587
   48MOL    C5119885   2.889   1.077   3.187 -0.3412  0.1897  0.2804
   48MOL    C5219886   2.937   1.220   3.138  0.2894  0.0114 -0.4143
   48MOL    H5319887   2.990   0.415   3.367 -0.4647 -0.6748 -1.2833
   48MOL    H5419888   2.859   0.492   3.466  0.9576  1.8229  0.3292
   48MOL    H5519889   2.983   0.610   3.220  0.8761  1.4598  0.7817
   48MOL    H5619890   2.658   0.899   3.238  0.6294  3.4744 -0.9925
   48MOL    H5719891   2.663   0.817   3.095 -1.1593 -0.6120  1.2207
   48MOL    H5819892   2.847   0.984   3.007 -1.4736  2.1344 -1.3796
   48MOL    H5919893   2.706   1.060   3.061 -0.8234  0.8160  0.2853
   48MOL    H6019894   2.982   1.021   3.202  0.1991  0.9334 -0.2870
   48MOL    H6119895   2.844   1.088   3.286 -0.9623  2.2553 -0.2253
   48MOL    H6219896   2.980   1.224   3.038 -0.6350  0.5972 -0.7985
   48MOL    H6319897   3.013   1.260   3.205 -0.8887 -1.4043  1.8078
   48MOL    H6419898   2.856   1.293   3.128 -0.2774 -0.4951  0.4637
   48MOL    C6519899   3.043   0.675   3.418 -0.5254  0.5531 -0.7314
   48MOL    C6619900   3.101   0.812   3.377  0.7597  0.1871 -0.5641
   48MOL    C6719901   3.094   0.910   3.499  0.3235 -0.1032 -0.0839
   48MOL    O6819902   3.057   0.867   3.605  0.9850  0.0354  0.0616
   48MOL    O6919903   3.133   1.034   3.472  0.7843 -0.0145 -0.2964
   48MOL    C7019904   3.104   1.134   3.565 -0.1078  0.0532 -0.3675
   48MOL    C7119905   2.976   1.217   3.550 -0.0069 -0.1232  0.2982
   48MOL    C7219906   2.942   1.293   3.680  0.3541 -0.2736 -0.3310
   48MOL    C7319907   3.043   1.408   3.717  1.3623  0.3588  0.1205
   48MOL    H7419908   3.119   0.599   3.434 -0.8721 -0.1811 -2.4366
   48MOL    H7519909   2.985   0.679   3.510  1.9402  0.0379  0.8990
   48MOL    H7619910   3.026   0.849   3.307  1.0515 -1.0955 -1.5707
   48MOL    H7719911   3.183   1.209   3.576  0.0043 -0.2821  1.2826
   48MOL    H7819912   3.101   1.094   3.666  0.8133  1.9707  0.4494
   48MOL    H7919913   2.980   1.281   3.462  1.2061 -0.0565  0.3834
   48MOL    H8019914   2.904   1.140   3.525 -1.8545  1.6876 -0.1222
   48MOL    H8119915   2.944   1.220   3.761  0.8869  1.0150  0.8378
   48MOL    H8219916   2.838   1.327   3.679  1.0788  1.9696 -0.4517
   48MOL    H8319917   3.147   1.382   3.701  1.9409  2.1827  0.7449
   48MOL    H8419918   3.030   1.446   3.819 -0.0445 -1.0869  0.4933
   48MOL    H8519919   3.009   1.485   3.648  2.1301 -1.0317 -1.8387
   48MOL    C8619920   3.241   0.809   3.316  0.3308  0.5266 -0.0772
   48MOL    C8719921   3.249   0.731   3.179 -0.3178 -0.0468  0.1001
   48MOL    C8819922   3.190   0.810   3.068 -0.4509 -0.3910 -0.1252
   48MOL    O8919923   3.106   0.762   2.992  0.1043  0.1219 -0.1336
   48MOL    O9019924   3.241   0.936   3.074  0.2503  0.8352 -0.2907
   48MOL    C9119925   3.193   1.040   2.981  0.6369 -0.3551 -0.2778
   48MOL    C9219926   3.265   1.177   3.014  0.3097  0.0694 -0.4071
   48MOL    C9319927   3.400   1.194   2.967  0.1025  0.3803 -0.4174
   48MOL    C9419928   3.461   1.327   3.003 -0.7317 -0.2162 -0.5111
   48MOL    H9519929   3.296   0.762   3.397  0.3464  0.6189 -0.0349
   48MOL    H9619930   3.291   0.905   3.307  1.6787 -0.2185 -0.7842
   48MOL    H9719931   3.188   0.640   3.182 -0.9391  0.3914  1.3881
   48MOL    H9819932   3.085   1.042   2.996  0.5019 -1.1708 -1.0941
   48MOL    H9919933   3.206   1.014   2.876  0.2432 -1.1144 -0.1380
   48MOL   H10019934   3.199   1.256   2.980 -2.1010 -2.0260 -0.7775
   48MOL   H10119935   3.260   1.199   3.121  1.2728 -0.7615 -0.1905
   48MOL   H10219936   3.402   1.182   2.858 -2.1610 -1.3402 -0.3040
   48MOL   H10319937   3.456   1.107   2.999 -0.7371  0.2417  0.7186
   48MOL   H10419938   3.561   1.342   2.965 -0.1937  1.2891  1.3973
   48MOL   H10519939   3.464   1.349   3.110 -2.9639 -0.1283 -0.4416
   48MOL   H10619940   3.409   1.413   2.959  2.2216  0.9265 -1.8550
   48MOL   C10719941   3.392   0.683   3.153 -0.5423 -0.4138  0.4627
   48MOL   C10819942   3.449   0.585   3.257 -0.0799 -0.3844  0.5601
   48MOL   C10919943   3.373   0.453   3.278 -0.6502  0.2630 -0.2073
   48MOL   O11019944   3.310   0.425   3.384 -0.0690 -0.3278 -0.3794
   48MOL   O11119945   3.388   0.365   3.178  0.5862  0.6802 -0.4187
   48MOL   C11219946   3.313   0.240   3.195 -0.1519 -0.0363 -0.0443
   48MOL   C11319947   3.284   0.171   3.061  0.2290 -0.2792 -0.7123
   48MOL   C11419948   3.150   0.216   3.001 -0.4951  0.0997 -0.5914
   48MOL   C11519949   3.130   0.171   2.851  0.4094  0.4037 -0.1007
   48MOL   H11619950   3.458   0.770   3.157  1.7701 -2.0055 -1.2565
   48MOL   H11719951   3.388   0.634   3.055 -0.8062 -1.3528  0.9383
   48MOL   H11819952   3.453   0.634   3.355 -0.1907  1.4919 -0.3611
   48MOL   H11919953   3.216   0.249   3.244  0.1782  1.6773  0.3159
   48MOL   H12019954   3.364   0.171   3.263  0.7214  1.0221  0.3852
   48MOL   H12119955   3.368   0.184   2.993  1.2938  1.1349  0.8282
   48MOL   H12219956   3.282   0.064   3.082  1.2142 -1.0292 -4.2633
   48MOL   H12319957   3.146   0.325   3.003 -0.1261  0.1042  0.2479
   48MOL   H12419958   3.057   0.192   3.053  0.1660 -0.4731  0.3411
   48MOL   H12519959   3.048   0.227   2.806  1.3177  0.2893 -1.9804
   48MOL   H12619960   3.102   0.066   2.840 -1.0646  1.0392 -2.7897
   48MOL   H12719961   3.222   0.177   2.792 -1.0006 -2.0789 -2.7019
   48MOL   C12819962   3.603   0.553   3.239  0.1200  0.3066 -0.3801
   48MOL   C12919963   3.668   0.522   3.097 -0.1606  0.2710 -0.1527
   48MOL   C13019964   3.697   0.645   3.022  0.3009 -0.4528  0.3138
   48MOL   O13119965   3.732   0.751   3.074  0.4383  0.1187 -0.1020
   48MOL   O13219966   3.669   0.632   2.898  0.0285 -0.0328 -0.0844
   48MOL   C13319967   3.694   0.732   2.802  0.4071  0.4476 -0.2206
   48MOL   C13419968   3.547   0.760   2.739  0.7037  0.2369  0.2519
   48MOL   C13519969   3.502   0.904   2.749 -0.2302  0.3228  0.5334
   48MOL   C13619970   3.368   0.924   2.677 -0.1847  0.0041  0.5221
   48MOL   H13719971   3.626   0.463   3.296  0.7097 -0.4858 -1.8291
   48MOL   H13819972   3.667   0.621   3.296  1.8070 -2.1217  0.7163
   48MOL   H13919973   3.595   0.477   3.029 -0.6575  0.7477  0.0556
   48MOL   H14019974   3.767   0.703   2.726  1.9594 -1.0983  1.7971
   48MOL   H14119975   3.732   0.825   2.845 -3.3789  1.9618  0.0445
   48MOL   H14219976   3.543   0.742   2.632 -0.5344  0.7306  0.2127
   48MOL   H14319977   3.473   0.693   2.781 -1.3965  2.0413 -0.4659
   48MOL   H14419978   3.578   0.957   2.691 -1.0445 -1.0842 -1.9124
   48MOL   H14519979   3.504   0.943   2.850  3.6971 -1.0695  1.0847
   48MOL   H14619980   3.389   0.908   2.571 -1.0715 -0.8114  0.4630
   48MOL   H14719981   3.315   1.018   2.698 -1.6809 -0.7570  0.2299
   48MOL   H14819982   3.305   0.840   2.705 -1.5234  0.0341 -2.2288
   48MOL   C14919983   3.800   0.436   3.111 -0.2761  0.1853 -0.4276
   48MOL   C15019984   3.767   0.285   3.113 -0.1451  0.1706 -0.2373
   48MOL   C15119985   3.789   0.228   2.973 -0.0106 -0.0151  0.4772
   48MOL   O15219986   3.877   0.145   2.947 -0.2789  0.4156 -0.2105
   48MOL   O15319987   3.715   0.293   2.887  0.1281 -0.3341  0.4302
   48MOL   C15419988   3.740   0.284   2.746  0.6162 -0.2839 -0.1734
   48MOL   C15519989   3.610   0.272   2.663  0.0135  0.4014 -0.2258
   48MOL   C15619990   3.559   0.420   2.637 -0.0299 -0.3386 -0.4636
   48MOL   C15719991   3.416   0.422   2.588 -0.0893  0.7142  0.6561
   48MOL   H15819992   3.856   0.460   3.202 -2.0523 -0.8319  0.9717
   48MOL   H15919993   3.865   0.455   3.025  1.4574 -1.3127  0.5064
   48MOL   H16019994   3.664   0.268   3.142 -1.1897  2.5755 -2.3383
   48MOL   H16119995   3.806   0.202   2.718  0.4803 -0.3929 -0.1714
   48MOL   H16219996   3.793   0.378   2.728  0.4233  0.0984  1.2171
   48MOL   H16319997   3.630   0.228   2.566  2.0105  0.7431  0.0097
   48MOL   H16419998   3.532   0.227   2.724  0.6842  0.6846  0.8642
   48MOL   H16519999   3.612   0.466   2.554  0.7328 -1.8345 -0.8207
   48MOL   H16620000   3.558   0.489   2.722  0.1280  0.7586 -1.3445
   48MOL   H16720001   3.355   0.377   2.666  0.8399  0.8795  1.4789
   48MOL   H16820002   3.409   0.359   2.498  0.2913  1.3001  0.2156
   48MOL   H16920003   3.387   0.524   2.563  0.9872  1.0489  0.7588
   48MOL   C17020004   3.854   0.207   3.216  0.0728 -0.0335 -0.1480
   48MOL   C17120005   3.811   0.227   3.364 -0.1387  0.0698 -0.4056
   48MOL   C17220006   3.682   0.152   3.393  0.0753 -0.0946  0.1044
   48MOL   O17320007   3.620   0.077   3.313  0.6987  0.2758  0.3996
   48MOL   O17420008   3.642   0.172   3.523  0.0660 -0.4466  0.2735
   48MOL   C17520009   3.515   0.131   3.563  0.7514 -0.4536  0.2178
   48MOL   C17620010   3.511   0.168   3.710 -0.0720  0.4437 -0.3342
   48MOL   C17720011   3.607   0.083   3.792 -0.1264 -0.1449  1.3130
   48MOL   C17820012   3.582   0.080   3.936  0.0161 -0.1692 -0.6700
   48MOL   H17920013   3.961   0.228   3.207  0.3087 -0.0086  2.2257
   48MOL   H18020014   3.838   0.103   3.188  0.3588 -0.4335  1.1468
   48MOL   H18120015   3.795   0.334   3.379 -1.1869 -0.3095  1.4631
   48MOL   H18220016   3.505   0.023   3.565  1.4009 -0.5274 -0.2900
   48MOL   H18320017   3.434   0.181   3.510 -0.8167 -2.3295  0.7696
   48MOL   H18420018   3.541   0.271   3.728 -2.1012  1.1036 -0.5814
   48MOL   H18520019   3.409   0.165   3.747  0.8406 -2.0228  2.1076
   48MOL   H18620020   3.709   0.119   3.776  0.2651 -0.3640  3.2543
   48MOL   H18720021   3.605   7.832   3.760  2.7930 -0.8781  3.3307
   48MOL   H18820022   3.503   0.146   3.972  1.8548  1.7511  0.0396
   48MOL   H18920023   3.674   0.099   3.992  0.1062 -2.5022  0.0324
   48MOL   H19020024   3.537   7.839   3.967  0.6221 -0.1830  0.2011
   48MOL   C19120025   3.922   0.194   3.464  1.0109 -0.1755 -1.0783
   48MOL   C19220026   4.061   0.279   3.468  0.2869  0.0445 -0.2056
   48MOL   C19320027   4.053   0.438   3.493 -0.1525  0.8824 -0.6706
   48MOL   O19420028   4.085   0.519   3.408 -0.0246 -0.2084  0.2508
   48MOL   O19520029   4.010   0.486   3.614 -0.0194 -0.1065  0.4392
   48MOL   C19620030   3.985   0.628   3.629  0.2771 -0.0949  0.1524
   48MOL   C19720031   3.840   0.656   3.563 -0.0860  0.1145  0.5495
   48MOL   C19820032   3.731   0.614   3.664  0.6503  0.2990  0.0746
   48MOL   C19920033   3.584   0.623   3.615 -0.0977  0.0598 -0.5857
   48MOL   H20020034   3.939   0.088   3.445 -0.8441 -0.9028  1.0003
   48MOL   H20120035   3.879   0.205   3.564  0.1467 -0.6936 -1.3918
   48MOL   H20220036   4.098   0.274   3.365  1.0063 -0.1451  0.0634
   48MOL   H20320037   4.060   0.692   3.583 -1.9405  2.1771 -0.4192
   48MOL   H20420038   3.977   0.643   3.737  0.5601  0.0105  0.1610
   48MOL   H20520039   3.829   0.762   3.540 -1.0471 -0.1133 -0.0908
   48MOL   H20620040   3.829   0.593   3.474  2.4490  1.9380 -1.1385
   48MOL   H20720041   3.730   0.686   3.746 -1.0571  0.7194 -0.2874
   48MOL   H20820042   3.753   0.515   3.704 -0.0846  0.8433  1.9300
   48MOL   H20920043   3.534   0.544   3.671 -2.7802  1.2696 -1.2020
   48MOL   H21020044   3.563   0.589   3.513 -0.4280  1.9862 -1.1699
   48MOL   H21120045   3.537   0.720   3.602 -0.7349 -0.4757 -2.4459
   48MOL   C21220046   4.170   0.204   3.556  0.3291  0.1988  0.1555
   48MOL   C21320047   4.311   0.261   3.565 -0.4886  0.2325  0.9492
   48MOL   C21420048   4.369   0.269   3.425  0.0786  0.1629  0.1419
   48MOL   O21520049   4.445   0.174   3.389 -0.6102  0.4807 -0.0646
   48MOL   O21620050   4.326   0.364   3.350  0.4891 -0.5027  0.1198
   48MOL   C21720051   4.385   0.398   3.228 -0.7447  0.0409  0.4302
   48MOL   C21820052   4.502   0.489   3.252  0.2630  0.6078  0.4626
   48MOL   C21920053   4.473   0.628   3.304  0.3800  0.4612  0.2016
   48MOL   C22020054   4.593   0.701   3.353 -0.0017 -0.9708 -0.0231
   48MOL   H22120055   4.178   0.104   3.514 -0.1020 -0.5760  1.8783
   48MOL   H22220056   4.133   0.199   3.658  0.8734 -1.2635  0.2924
   48MOL   H22320057   4.367   0.186   3.620  1.8960  2.3169  1.4867
   48MOL   H22420058   4.303   0.445   3.175  0.0531 -0.2525 -1.1014
   48MOL   H22520059   4.418   0.312   3.169 -0.6153 -1.0786  2.1099
   48MOL   H22620060   4.566   0.429   3.317 -1.1121 -1.9331 -0.4223
   48MOL   H22720061   4.557   0.496   3.158  0.5927  2.6716  0.7960
   48MOL   H22820062   4.392   0.634   3.377 -0.2071  2.8056 -0.5691
   48MOL   H22920063   4.424   0.681   3.223  1.1189  0.6269 -0.1392
   48MOL   H23020064   4.566   0.804   3.374  0.9728 -0.2202 -2.2701
   48MOL   H23120065   4.662   0.704   3.268  2.1423  0.2328  1.7288
   48MOL   H23220066   4.632   0.651   3.441 -1.0347  0.0444  1.0264
   48MOL   C23320067   4.326   0.383   3.662 -0.3286  0.2538  0.9467
   48MOL   C23420068   4.463   0.380   3.734 -0.4626 -0.9400 -0.4568
   48MOL   C23520069   4.513   0.525   3.768  0.3285  0.6405 -0.6510
   48MOL   O23620070   4.613   0.566   3.724 -0.2056  0.2993  0.0813
   48MOL   O23720071   4.430   0.597   3.848  0.0328 -0.1595 -0.1062
   48MOL   C23820072   4.464   0.737   3.883  0.4294  0.3459 -0.5118
   48MOL   C23920073   4.380   0.830   3.803  0.1057 -0.6565 -0.1550
   48MOL   C24020074   4.408   0.834   3.653 -0.0334  0.3308  0.3763
   48MOL   C24120075   4.325   0.918   3.564 -0.4370 -0.5985  0.0106
   48MOL   H24220076   4.249   0.388   3.738 -2.9275 -1.5107 -1.4656
   48MOL   H24320077   4.327   0.477   3.606 -2.6363 -0.9043 -1.1611
   48MOL   H24420078   4.530   0.351   3.653  1.5546  2.6302 -0.1559
   48MOL   H24520079   4.562   0.777   3.856  0.1420  0.5592 -1.2587
   48MOL   H24620080   4.442   0.765   3.986  1.1187  3.3084 -1.1218
   48MOL   H24720081   4.275   0.803   3.814 -0.2974 -0.1389 -2.3712
   48MOL   H24820082   4.385   0.933   3.839 -0.3924 -1.9236  3.7968
   48MOL   H24920083   4.420   0.739   3.602 -1.6089  1.1600 -1.5943
   48MOL   H25020084   4.505   0.885   3.649  0.2718 -0.2465  0.3426
   48MOL   H25120085   4.219   0.893   3.556 -0.7784  0.6403  0.3781
   48MOL   H25220086   4.360   0.912   3.461 -1.3714 -0.8296 -0.2957
   48MOL   H25320087   4.331   1.024   3.589 -2.1015 -0.4739 -0.0773
   48MOL   C25420088   4.477   0.289   3.857  0.2092  0.3114  0.3262
   48MOL   C25520089   4.617   0.207   3.856  0.2024 -0.1598 -0.2148
   48MOL   C25620090   4.617   0.110   3.739 -0.0290 -0.3263  0.3047
   48MOL   O25720091   4.704   0.115   3.651  0.0795  0.3703 -0.1565
   48MOL   O25820092   4.518   0.021   3.747  0.4208 -0.2623  0.0874
   48MOL   C25920093   4.498   7.781   3.641 -0.8974 -0.7563  0.4799
   48MOL   C26020094   4.408   7.674   3.692 -0.6805  0.6288 -0.2940
   48MOL   C26120095   4.489   7.568   3.765 -1.1449 -0.3454 -0.5113
   48MOL   C26220096   4.397   7.464   3.822  0.6555  0.0733 -0.3292
   48MOL   H26320097   4.389   0.226   3.871  0.4241  0.4136  2.3624
   48MOL   H26420098   4.476   0.339   3.954 -2.3846 -0.6079  0.8045
   48MOL   H26520099   4.621   0.144   3.945 -0.8025 -0.4691 -0.3750
   48MOL   H26620100   4.595   7.734   3.623 -0.0658  1.7574 -1.9496
   48MOL   H26720101   4.460   7.815   3.545  0.4529 -2.0240 -0.5258
   48MOL   H26820102   4.341   7.709   3.770 -2.3505 -0.9880 -0.9699
   48MOL   H26920103   4.369   7.629   3.601  0.4157  0.9358 -0.9316
   48MOL   H27020104   4.549   7.616   3.843 -0.3933 -1.2868 -0.5093
   48MOL   H27120105   4.561   7.523   3.698  0.0372  2.2392 -1.0558
   48MOL   H27220106   4.329   7.418   3.750  0.1062 -0.5634  0.5879
   48MOL   H27320107   4.335   7.504   3.902  2.0779 -0.8358  1.2654
   48MOL   H27420108   4.447   7.378   3.866  0.4996  0.7415  1.1671
   48MOL   C27520109   4.742   0.299   3.867  0.5031 -0.2390 -0.1386
   48MOL   C27620110   4.746   0.396   3.988 -0.3712  1.1259 -0.2939
   48MOL   C27720111   4.726   0.315   4.116 -0.3982  0.3563  0.0930
   48MOL   O27820112   4.620   0.316   4.178  0.4963 -0.1050 -0.1372
   48MOL   O27920113   4.835   0.234   4.147 -0.0224  0.3744  0.1663
   48MOL   C28020114   4.837   0.143   4.259 -0.1176 -0.0230 -0.5373
   48MOL   C28120115   4.918   0.016   4.237 -0.3253 -0.0318 -0.1991
   48MOL   C28220116   4.835   7.769   4.149  0.6260 -0.0079 -0.5538
   48MOL   C28320117   4.931   7.649   4.105  0.3298  0.6128 -0.1992
   48MOL   H28420118   4.765   0.343   3.770  1.5995 -2.3341 -0.8545
   48MOL   H28520119   4.827   0.231   3.878 -0.4519 -1.2986  0.9201
   48MOL   H28620120   4.658   0.461   3.987 -2.7961 -2.0636 -0.4726
   48MOL   H28720121   4.735   0.114   4.282 -0.4850 -0.6144 -2.7630
   48MOL   H28820122   4.874   0.193   4.348  0.2510 -1.2911  0.0272
   48MOL   H28920123   5.018   0.038   4.201 -0.4624  1.6321  0.3699
   48MOL   H29020124   4.938   7.819   4.331 -0.5261 -0.1684 -0.2284
   48MOL   H29120125   4.785   7.817   4.065  0.3956 -1.1211 -1.0627
   48MOL   H29220126   4.751   7.733   4.208  0.8079  2.9798  1.6668
   48MOL   H29320127   5.012   7.691   4.045  0.1049  0.0589 -0.8916
   48MOL   H29420128   4.876   7.578   4.044 -0.3448  0.4266  0.6141
   48MOL   H29520129   4.963   7.588   4.189 -0.9943  0.5964  0.3169
   48MOL   C29620130   4.882   0.481   3.994  0.3835  0.2769 -0.8457
   48MOL   C29720131   4.895   0.588   4.108  0.2206  0.3952  0.2440
   48MOL   C29820132   5.034   0.655   4.111 -0.5276 -0.4518  0.2198
   48MOL   O29920133   5.105   0.659   4.208 -0.2635  0.0980  1.1169
   48MOL   O30020134   5.075   0.696   3.993  0.1548 -0.4022  0.0252
   48MOL   C30120135   5.205   0.726   3.963  0.2029 -0.6696  0.6550
   48MOL   C30220136   5.277   0.596   3.909  0.0896  0.7831  0.1579
   48MOL   C30320137   5.421   0.616   3.874 -0.0160  0.0940  0.2181
   48MOL   C30420138   5.491   0.484   3.855 -0.2511  0.0699 -0.7058
   48MOL   H30520139   4.878   0.540   3.902  3.2165  2.1453  0.1957
   48MOL   H30620140   4.964   0.410   3.986 -0.4436 -0.6659 -1.0707
   48MOL   H30720141   4.894   0.525   4.196  0.2823 -0.0761 -0.0916
   48MOL   H30820142   5.272   0.749   4.046 -1.1071 -2.6911  2.3143
   48MOL   H30920143   5.226   0.798   3.883  0.8417 -0.8755  0.6333
   48MOL   H31020144   5.250   0.512   3.973  1.2923 -0.9858 -1.5880
   48MOL   H31120145   5.220   0.575   3.818 -2.2028 -1.0144  1.9581
   48MOL   H31220146   5.462   0.683   3.950  0.7862 -1.3612  1.0918
   48MOL   H31320147   5.437   0.684   3.790  0.0901 -1.2497 -0.8508
   48MOL   H31420148   5.598   0.484   3.835  0.2322 -0.4829  1.6636
   48MOL   H31520149   5.445   0.443   3.766 -1.3968 -0.0002 -0.0903
   48MOL   H31620150   5.497   0.412   3.938  0.7272  0.5337 -0.3617
   48MOL   C31720151   4.781   0.691   4.105 -0.0127  0.4923 -0.1956
   48MOL   C31820152   4.740   0.732   4.244 -0.5412 -0.2371  0.5302
   48MOL   C31920153   4.661   0.866   4.234  0.4308 -0.1670  0.1449
   48MOL   O32020154   4.608   0.905   4.131  0.2944  0.3698  0.6312
   48MOL   O32120155   4.675   0.938   4.342  0.2198 -0.2964 -0.5085
   48MOL   C32220156   4.629   1.072   4.352 -0.2696  0.9578  0.5553
   48MOL   C32320157   4.654   1.113   4.497 -0.6393  0.2572 -0.3329
   48MOL   C32420158   4.613   1.261   4.523 -0.0319  0.5217 -0.3219
   48MOL   C32520159   4.642   1.306   4.662 -0.5910  0.3557  0.2810
   48MOL   H32620160   4.687   0.660   4.059 -0.8042 -0.6785  2.0820
   48MOL   H32720161   4.806   0.774   4.040  0.9838 -0.0619 -0.5239
   48MOL   H32820162   4.838   0.758   4.285 -0.6290 -0.2669  0.7612
   48MOL   H32920163   4.522   1.082   4.329 -0.2039 -0.1099 -0.2558
   48MOL   H33020164   4.685   1.144   4.291 -0.8818  0.0300 -1.1416
   48MOL   H33120165   4.589   1.051   4.558  0.5037 -0.6018  0.0294
   48MOL   H33220166   4.759   1.100   4.524 -1.0059 -0.4143  0.8004
   48MOL   H33320167   4.508   1.273   4.495 -0.0252  0.5394 -0.3392
   48MOL   H33420168   4.666   1.323   4.451  1.7448 -1.5656 -0.8426
   48MOL   H33520169   4.612   1.409   4.680  1.6347  0.4359  3.8199
   48MOL   H33620170   4.745   1.289   4.691 -0.7560 -1.3361 -0.0736
   48MOL   H33720171   4.589   1.255   4.743 -1.3150  0.4435 -0.1289
   48MOL   C33820172   4.664   0.619   4.324 -0.6329 -0.6507  0.1753
   48MOL   C33920173   4.638   0.653   4.474 -0.0645 -0.2165 -0.4748
   48MOL   C34020174   4.534   0.552   4.529  0.5103  0.1907  0.6588
   48MOL   O34120175   4.433   0.600   4.573 -0.1362 -0.1175  0.0974
   48MOL   O34220176   4.567   0.424   4.517 -0.0969  0.8177 -0.1593
   48MOL   C34320177   4.478   0.325   4.567 -0.3894  0.0356  0.8935
   48MOL   C34420178   4.356   0.293   4.484  0.3126  0.3415  0.2159
   48MOL   C34520179   4.291   0.153   4.532  0.1978 -0.5389 -0.2629
   48MOL   C34620180   4.143   0.135   4.473 -0.0707  0.4328 -0.0866
   48MOL   H34720181   4.723   0.528   4.327 -2.8224 -2.0612  2.1657
   48MOL   H34820182   4.569   0.603   4.273 -0.9820  0.9861  0.2805
   48MOL   H34920183   4.593   0.752   4.487 -0.7291 -0.9080  3.0134
   48MOL   H35020184   4.468   0.327   4.675 -0.2771 -2.2702  0.9766
   48MOL   H35120185   4.537   0.234   4.555  0.4570  0.6284  0.5240
   48MOL   H35220186   4.287   0.377   4.493  0.7834  0.6062  1.5193
   48MOL   H35320187   4.378   0.290   4.378  0.8915 -2.3026  0.3740
   48MOL   H35420188   4.275   0.149   4.640  1.4616 -2.8516 -0.1265
   48MOL   H35520189   4.351   0.063   4.517 -0.0294 -1.2747  2.8999
   48MOL   H35620190   4.135   0.199   4.384  1.6389  0.0437 -0.5331
   48MOL   H35720191   4.067   0.169   4.544  2.3572 -0.0152  2.8102
   48MOL   H35820192   4.108   0.035   4.446 -4.7515  1.3702  2.0146
   48MOL   C35920193   4.776   0.656   4.554  0.4248  0.7713  0.3632
   48MOL   C36020194   4.758   0.668   4.706  0.7033  0.1538  0.2702
   48MOL   C36120195   4.865   0.603   4.792  1.0754  0.6565  0.0995
   48MOL   O36220196   4.827   0.527   4.881 -0.5362  0.2998 -0.4331
   48MOL   O36320197   4.990   0.632   4.761 -0.7924 -0.2787 -0.0886
   48MOL   C36420198   5.096   0.585   4.841  0.1097 -0.2117 -0.0038
   48MOL   C36520199   5.229   0.637   4.789 -0.7471 -0.3235  0.0400
   48MOL   C36620200   5.349   0.574   4.867  0.2490  0.3201  0.3932
   48MOL   C36720201   5.463   0.543   4.768 -0.2223  0.4137  0.5354
   48MOL   H36820202   4.833   0.738   4.512 -0.2365  1.5609  0.9821
   48MOL   H36920203   4.835   0.568   4.531 -0.4616  0.5104 -1.0112
   48MOL   H37020204   4.669   0.608   4.722  1.0738 -0.4272  0.1853
   48MOL   H37120205   5.082   0.481   4.871 -1.5940 -0.5920 -1.9815
   48MOL   H37220206   5.079   0.641   4.933 -3.7885  2.2970 -2.1165
   48MOL   H37320207   5.230   0.597   4.688 -0.5604  0.8091 -0.4110
   48MOL   H37420208   5.241   0.744   4.803 -0.6188 -0.8006  4.2756
   48MOL   H37520209   5.322   0.480   4.915  2.8442 -1.2870 -1.1351
   48MOL   H37620210   5.374   0.649   4.943  1.1047  2.3210 -1.7754
   48MOL   H37720211   5.472   0.620   4.692 -0.5678 -0.7142 -0.6781
   48MOL   H37820212   5.435   0.448   4.721 -1.3068  0.9979 -0.0127
   48MOL   H37920213   5.559   0.543   4.818 -0.3378 -0.6186  0.7619
   48MOL   C38020214   4.751   0.819   4.732 -0.0811  0.7012  0.1291
   48MOL   C38120215   4.677   0.852   4.862 -0.7059 -0.0723  0.0881
   48MOL   C38220216   4.743   0.958   4.946  0.5181 -0.4330  0.0033
   48MOL   O38320217   4.692   1.068   4.963  0.1007  0.0335 -0.0062
   48MOL   O38420218   4.864   0.916   4.987  0.3635 -0.3074 -0.0778
   48MOL   C38520219   4.942   1.008   5.057 -0.3618  0.5317  0.2196
   48MOL   C38620220   5.075   0.951   5.088  0.0229  0.1795 -0.2967
   48MOL   C38720221   5.051   0.833   5.188 -0.1046  0.5795  0.0256
   48MOL   C38820222   5.177   0.734   5.206 -0.4038 -0.2654  0.2460
   48MOL   H38920223   4.705   0.881   4.656 -0.2117 -0.7618 -1.0078
   48MOL   H39020224   4.850   0.863   4.749  0.0634  0.3298  0.2478
   48MOL   H39120225   4.690   0.764   4.926 -1.8672 -0.6050 -0.3892
   48MOL   H39220226   4.894   1.057   5.142  0.0951 -0.4881  1.0624
   48MOL   H39320227   4.971   1.090   4.991 -0.4154  0.5579  0.2287
   48MOL   H39420228   5.124   0.925   4.994 -0.1060  0.5648 -0.4736
   48MOL   H39520229   5.148   1.015   5.137  0.8477 -0.8486 -0.1720
   48MOL   H39620230   4.965   0.770   5.164  1.7240 -1.4564 -1.4089
   48MOL   H39720231   5.035   0.875   5.287  1.8603  0.7678  0.2887
   48MOL   H39820232   5.162   0.658   5.283  0.3740 -1.5611 -0.8488
   48MOL   H39920233   5.249   0.809   5.238  0.0441 -0.5770 -0.0322
   48MOL   H40020234   5.199   0.674   5.117 -1.5904  0.2460 -0.4129
   48MOL   C40120235   4.525   0.868   4.830  0.4120  0.0896  0.6285
   48MOL   C40220236   4.438   0.861   4.945  0.0814 -0.0046 -0.3580
   48MOL   C40320237   4.292   0.862   4.906 -0.2109 -0.1442 -1.1689
   48MOL   O40420238   4.232   0.969   4.915 -0.0209 -0.2496  0.0525
   48MOL   O40520239   4.239   0.751   4.846  0.1482  0.0485 -0.0318
   48MOL   C40620240   4.109   0.749   4.791 -0.7586 -0.0302  0.4400
   48MOL   C40720241   4.123   0.647   4.681 -0.5322  0.1096 -0.9810
   48MOL   C40820242   3.997   0.621   4.588 -0.0054 -0.7015 -0.3241
   48MOL   C40920243   4.017   0.504   4.488  0.1940  0.6497  0.0989
   48MOL   H41020244   4.504   0.799   4.749  1.7589 -0.4175  0.6896
   48MOL   H41120245   4.507   0.962   4.778 -0.6772 -0.0980  0.6712
   48MOL   H41220246   4.459   0.952   5.002 -0.1486  0.1141 -0.4629
   48MOL   H41320247   4.075   0.845   4.753 -3.7006 -1.1905 -0.0032
   48MOL   H41420248   4.036   0.715   4.864 -1.3685  1.3728  0.4946
   48MOL   H41520249   4.207   0.673   4.616 -1.9568  2.9484 -1.7902
   48MOL   H41620250   4.162   0.556   4.727 -0.8820  0.5849  0.2773
   48MOL   H41720251   3.994   0.716   4.535 -2.3949 -1.4365 -1.5927
   48MOL   H41820252   3.910   0.618   4.653  1.0536  0.1010  1.1596
   48MOL   H41920253   4.020   0.410   4.543 -2.5919 -0.0205 -0.7743
   48MOL   H42020254   4.108   0.513   4.430  0.0706 -0.7736 -0.3301
   48MOL   H42120255   3.927   0.492   4.428 -0.2620  0.0925  0.8801
   48MOL   H42220256   4.456   0.774   5.008  1.3951 -0.4719 -1.3424
   49MOL     C120257   5.456   6.453   6.634 -0.3886  0.6559  0.3620
   49MOL     C220258   5.359   6.556   6.681 -0.2613 -0.1254  0.3373
   49MOL     C320259   5.297   6.639   6.562  0.2588  0.1714 -0.6113
   49MOL     O420260   5.187   6.612   6.514  0.2063 -0.2066 -0.1038
   49MOL     O520261   5.378   6.735   6.517  0.5509  0.3685 -0.4736
   49MOL     C620262   5.330   6.809   6.410  0.0712 -0.0023  0.0596
   49MOL     C720263   5.401   6.943   6.385  0.2476  0.1408  0.1371
   49MOL     C820264   5.309   7.038   6.305  1.0555 -0.3091 -0.4070
   49MOL     C920265   5.382   7.174   6.270 -0.3957 -0.1315 -0.0785
   49MOL    H1020266   5.534   6.488   6.566 -1.0486  0.9405 -0.2567
   49MOL    H1120267   5.514   6.405   6.713 -1.5597  0.4942  1.1383
   49MOL    H1220268   5.420   6.634   6.727  1.8207 -1.7423  0.3799
   49MOL    H1320269   5.227   6.839   6.425 -0.0246  0.5751 -1.6747
   49MOL    H1420270   5.328   6.740   6.325 -1.5346 -0.6288  0.5752
   49MOL    H1520271   5.427   6.987   6.481  0.8899 -0.5598  0.2976
   49MOL    H1620272   5.492   6.920   6.329 -0.5075 -1.7318 -0.3623
   49MOL    H1720273   5.218   7.046   6.365  1.9521  0.4712  0.8702
   49MOL    H1820274   5.278   7.001   6.207  3.5557 -0.2265 -1.2435
   49MOL    H1920275   5.374   7.245   6.352  0.7597  0.2732 -0.3129
   49MOL    H2020276   5.340   7.225   6.183 -2.3037 -0.1097  0.8305
   49MOL    H2120277   5.490   7.171   6.259 -0.5255  0.4183 -1.6022
   49MOL    H2220278   5.400   6.374   6.583 -1.4836  0.2650  2.1227
   49MOL    C2320279   5.250   6.501   6.774 -0.1003 -0.2787  0.7255
   49MOL    C2420280   5.167   6.603   6.860  0.1408 -0.0081 -0.2073
   49MOL    C2520281   5.038   6.537   6.911 -0.2060 -0.2215 -0.2055
   49MOL    O2620282   5.045   6.441   6.982 -0.3992  0.6555  0.2347
   49MOL    O2720283   4.929   6.608   6.871 -0.3512  0.1387 -0.4667
   49MOL    C2820284   4.799   6.582   6.920  0.6196 -0.1803 -0.9058
   49MOL    C2920285   4.779   6.643   7.067 -0.1976  1.0341 -0.3326
   49MOL    C3020286   4.654   6.591   7.138  0.2224 -0.7332 -0.5210
   49MOL    C3120287   4.661   6.589   7.293  0.2143  0.4347 -0.0861
   49MOL    H3220288   5.303   6.428   6.834 -0.7608  1.2439  3.2051
   49MOL    H3320289   5.174   6.456   6.710 -1.2112 -1.7847  3.0750
   49MOL    H3420290   5.129   6.683   6.796 -2.3982 -1.4949 -0.6604
   49MOL    H3520291   4.779   6.475   6.920 -3.6095  0.4742  1.9088
   49MOL    H3620292   4.731   6.624   6.847  0.4512 -0.4086 -0.8805
   49MOL    H3720293   4.867   6.622   7.128 -0.4141 -1.2366 -0.7667
   49MOL    H3820294   4.763   6.751   7.066 -1.2750  0.8827 -0.1965
   49MOL    H3920295   4.620   6.496   7.097  1.0783 -1.1335 -0.3216
   49MOL    H4020296   4.573   6.662   7.119  0.2091 -0.3889  0.7580
   49MOL    H4120297   4.562   6.577   7.338 -0.3581  0.1632 -1.3977
   49MOL    H4220298   4.704   6.681   7.332  0.2209  0.4211 -0.0606
   49MOL    H4320299   4.718   6.500   7.323 -0.3784  0.5551  1.4512
   49MOL    C4420300   5.243   6.664   6.981  0.7155  0.1630 -0.0694
   49MOL    C4520301   5.313   6.798   6.957  0.3704 -0.0537 -0.5028
   49MOL    C4620302   5.217   6.907   6.900  0.3055 -0.2132 -0.6214
   49MOL    O4720303   5.235   6.958   6.790 -1.0084  0.0281  0.0594
   49MOL    O4820304   5.123   6.941   6.981 -0.0610 -0.2870 -0.2486
   49MOL    C4920305   5.032   7.042   6.938 -0.1715  0.2575  0.0586
   49MOL    C5020306   4.901   7.004   7.000  0.4082 -0.2294 -0.0332
   49MOL    C5120307   4.916   6.999   7.150 -0.0972  0.3597  0.0189
   49MOL    C5220308   4.935   7.132   7.219 -0.1865  0.1223 -0.1257
   49MOL    H5320309   5.312   6.589   7.019  0.8964  0.2820 -0.1607
   49MOL    H5420310   5.186   6.677   7.073  0.7329  0.7446 -0.1358
   49MOL    H5520311   5.381   6.783   6.873  0.0082  3.4029 -1.5116
   49MOL    H5620312   5.023   7.051   6.830  0.6524  0.2665 -0.0086
   49MOL    H5720313   5.066   7.142   6.966  0.3782  0.8117 -2.4594
   49MOL    H5820314   4.819   7.069   6.969  0.6634 -0.7479 -1.8831
   49MOL    H5920315   4.877   6.903   6.967 -0.5205 -0.1639  0.4474
   49MOL    H6020316   4.989   6.927   7.188 -0.6989  0.1308  0.7718
   49MOL    H6120317   4.830   6.952   7.198  0.0419  1.3702  1.3186
   49MOL    H6220318   5.026   7.175   7.176 -0.3159  1.1882  0.6561
   49MOL    H6320319   4.935   7.117   7.327  0.0181 -1.3191 -0.3089
   49MOL    H6420320   4.854   7.199   7.192  0.0702 -0.0229 -1.2935
   49MOL    C6520321   5.388   6.837   7.087  0.9170 -1.0093  0.6512
   49MOL    C6620322   5.525   6.775   7.123  0.2262  0.7950  0.5627
   49MOL    C6720323   5.635   6.853   7.039 -0.7151  0.1350 -0.6910
   49MOL    O6820324   5.716   6.924   7.104  0.1280 -0.0426 -0.0779
   49MOL    O6920325   5.635   6.838   6.909  0.6917 -0.3067  0.4828
   49MOL    C7020326   5.733   6.913   6.834  0.2464  0.6662  0.3859
   49MOL    C7120327   5.729   6.904   6.679 -0.5147 -0.2376 -0.4744
   49MOL    C7220328   5.820   7.013   6.617 -0.1308 -0.4867 -0.1201
   49MOL    C7320329   5.816   7.028   6.466 -0.0232  0.0210  0.5292
   49MOL    H7420330   5.324   6.827   7.175  0.6968  0.5614  0.6963
   49MOL    H7520331   5.394   6.946   7.077 -3.2331 -0.6786  0.5487
   49MOL    H7620332   5.528   6.673   7.085 -1.0472  0.8683  0.2263
   49MOL    H7720333   5.836   6.894   6.865  0.1137 -0.5789  0.0821
   49MOL    H7820334   5.710   7.017   6.858  2.8681  1.8553 -1.9256
   49MOL    H7920335   5.753   6.802   6.651 -1.4266  0.0372 -2.3746
   49MOL    H8020336   5.629   6.918   6.637 -2.2057  0.4491  3.5149
   49MOL    H8120337   5.922   6.995   6.651  0.2964  0.6131 -0.7887
   49MOL    H8220338   5.805   7.108   6.667  0.2525 -0.4330 -0.0997
   49MOL    H8320339   5.817   6.927   6.425 -2.7812  0.0641  0.2620
   49MOL    H8420340   5.911   7.076   6.445 -0.6072  0.5488 -0.9847
   49MOL    H8520341   5.729   7.085   6.431 -0.6728 -1.0284  0.4156
   49MOL    C8620342   5.559   6.784   7.274  0.3893 -0.6855  0.1600
   49MOL    C8720343   5.636   6.665   7.337 -0.5219  0.0363 -0.7540
   49MOL    C8820344   5.559   6.530   7.328 -0.4526  0.4404  0.8282
   49MOL    O8920345   5.469   6.513   7.253 -0.1246 -0.4384 -0.2196
   49MOL    O9020346   5.608   6.434   7.413 -0.0796  0.2388 -0.4527
   49MOL    C9120347   5.544   6.306   7.426  0.2640 -0.3799 -0.1976
   49MOL    C9220348   5.638   6.192   7.478  0.0674 -0.5502  0.8265
   49MOL    C9320349   5.692   6.238   7.620  0.1122 -0.1200  0.6623
   49MOL    C9420350   5.773   6.135   7.700 -0.4440 -0.3449 -0.4960
   49MOL    H9520351   5.469   6.789   7.335 -0.7296  0.3192 -1.5222
   49MOL    H9620352   5.605   6.877   7.306  0.5795 -1.1803  1.3808
   49MOL    H9720353   5.642   6.685   7.444 -2.4417  0.3572 -0.6890
   49MOL    H9820354   5.500   6.274   7.332 -0.8445  3.4169 -1.0201
   49MOL    H9920355   5.455   6.305   7.488  1.5292  0.7295  1.6756
   49MOL   H10020356   5.586   6.098   7.499 -0.4219 -0.2854  0.8034
   49MOL   H10120357   5.723   6.175   7.412 -0.1396  2.5869 -0.3459
   49MOL   H10220358   5.607   6.273   7.679  0.0741  2.8401 -1.0580
   49MOL   H10320359   5.747   6.331   7.609  1.5150 -0.8653  1.2798
   49MOL   H10420360   5.775   6.169   7.804  2.1690 -0.1293 -0.5625
   49MOL   H10520361   5.873   6.119   7.659 -0.2003  1.3979 -0.6493
   49MOL   H10620362   5.718   6.042   7.694  0.7222 -0.9064 -3.2817
   49MOL   C10720363   5.784   6.645   7.277 -0.1115  0.4651 -0.6103
   49MOL   C10820364   5.899   6.727   7.353  0.3523 -0.4215 -0.6108
   49MOL   C10920365   5.904   6.693   7.501 -0.5090  0.3668 -0.5656
   49MOL   O11020366   5.884   6.786   7.578  0.2489 -0.0416  0.0577
   49MOL   O11120367   5.941   6.573   7.531  0.1379 -0.4915  0.7798
   49MOL   C11220368   5.992   6.538   7.658 -0.1045  0.0646 -0.4386
   49MOL   C11320369   6.141   6.567   7.677 -0.0743  0.2320 -0.2230
   49MOL   C11420370   6.189   6.534   7.816 -0.0698 -0.1471  0.2110
   49MOL   C11520371   6.340   6.568   7.834  0.6754 -0.4850  0.2441
   49MOL   H11620372   5.793   6.668   7.171  2.3952  0.7056 -0.3855
   49MOL   H11720373   5.805   6.538   7.289 -1.0768  0.3599  0.1892
   49MOL   H11820374   5.862   6.829   7.356 -1.1048 -0.9718  2.2813
   49MOL   H11920375   5.971   6.432   7.676 -1.1232  0.3306 -0.0045
   49MOL   H12020376   5.940   6.602   7.729 -0.2468  1.1601 -1.5114
   49MOL   H12120377   6.202   6.509   7.607 -0.1717  1.3747 -1.2773
   49MOL   H12220378   6.162   6.673   7.665  1.1335 -0.2647 -3.1245
   49MOL   H12320379   6.173   6.427   7.833  1.1389 -0.5472 -1.0425
   49MOL   H12420380   6.133   6.589   0.038 -0.8258 -2.1393  1.1509
   49MOL   H12520381   6.360   6.664   7.788  0.9486 -1.4603 -1.7181
   49MOL   H12620382   6.402   6.498   7.777  0.4051  0.2563 -0.9820
   49MOL   H12720383   6.389   6.561   0.078  2.4292  1.9441 -0.4183
   49MOL   C12820384   6.037   6.716   7.286  0.4634  0.8580 -0.3010
   49MOL   C12920385   6.048   6.805   7.159 -0.0571  0.3613 -0.2601
   49MOL   C13020386   6.097   6.946   7.189  0.1697 -0.0581  0.3696
   49MOL   O13120387   6.033   7.040   7.137 -0.0971 -0.0242 -0.3395
   49MOL   O13220388   6.206   6.954   7.266  0.3775  0.2242 -0.0087
   49MOL   C13320389   6.266   7.080   7.298 -0.7625  0.6090  0.1301
   49MOL   C13420390   6.352   7.146   7.199  0.0116  0.1450 -0.2167
   49MOL   C13520391   6.491   7.067   7.191  0.3311 -0.4122 -0.5956
   49MOL   C13620392   6.573   7.111   7.068 -0.0850  0.4095 -0.8122
   49MOL   H13720393   6.048   6.609   7.266 -0.0972  0.2462  2.3892
   49MOL   H13820394   6.112   6.747   7.358  1.3148  0.3834 -0.9739
   49MOL   H13920395   5.950   6.805   7.113 -1.4995 -1.7605  2.6277
   49MOL   H14020396   6.307   7.064   7.398 -0.0002  0.2622 -0.2390
   49MOL   H14120397   6.183   7.147   7.321 -0.4062  1.3139 -0.6336
   49MOL   H14220398   6.317   7.150   7.096  0.9016  1.3888 -0.4840
   49MOL   H14320399   6.376   7.248   7.227 -0.3609  0.6262 -1.6121
   49MOL   H14420400   6.480   6.959   7.182 -1.5326 -0.1568 -1.7258
   49MOL   H14520401   6.540   7.094   7.284 -0.7642  0.3398 -0.2188
   49MOL   H14620402   6.676   7.080   7.085 -1.0527 -2.5120  0.2546
   49MOL   H14720403   6.586   7.219   7.071  0.4163  0.3569 -1.0728
   49MOL   H14820404   6.529   7.070   6.977  0.2916 -0.0178 -0.8050
   49MOL   C14920405   6.147   6.738   7.057  0.3504  0.1203  0.5625
   49MOL   C15020406   6.116   6.589   7.006  1.0015 -0.1331 -0.0890
   49MOL   C15120407   5.973   6.577   6.939  0.0134  0.2637 -0.4681
   49MOL   O15220408   5.929   6.643   6.850  0.3598  0.8558 -0.1288
   49MOL   O15320409   5.910   6.476   6.998 -0.2530 -0.6155 -0.0137
   49MOL   C15420410   5.779   6.443   6.965  0.4861 -0.3822  0.2404
   49MOL   C15520411   5.732   6.327   7.045  0.8769  0.4917 -0.0457
   49MOL   C15620412   5.588   6.282   7.025  0.8097  0.2418 -0.1727
   49MOL   C15720413   5.574   6.141   7.082  0.2016  0.3629 -0.3980
   49MOL   H15820414   6.248   6.733   7.099  0.4852 -1.4221  0.0893
   49MOL   H15920415   6.151   6.797   6.965 -1.7980  0.2051  0.5024
   49MOL   H16020416   6.104   6.533   7.099 -0.6936  1.0882  0.4618
   49MOL   H16120417   5.768   6.411   6.862 -0.8092 -0.8600  0.5076
   49MOL   H16220418   5.704   6.522   6.971  0.2741 -0.4187 -1.7253
   49MOL   H16320419   5.799   6.247   7.014 -1.5396 -1.7708  0.3708
   49MOL   H16420420   5.756   6.345   7.150 -3.9391  0.9824  1.1062
   49MOL   H16520421   5.555   6.284   6.921  2.1864 -0.6695 -0.6520
   49MOL   H16620422   5.527   6.345   7.088  1.0548  0.3055 -0.0004
   49MOL   H16720423   5.472   6.117   7.112  1.6178 -0.7453  3.8627
   49MOL   H16820424   5.635   6.127   7.172  0.4993  0.2097 -0.6246
   49MOL   H16920425   5.598   6.068   7.005 -1.7802  0.1538 -0.8277
   49MOL   C17020426   6.223   6.517   6.920  0.0010  0.3787 -0.3418
   49MOL   C17120427   6.350   6.491   7.004 -0.2931  0.5687  0.0768
   49MOL   C17220428   6.321   6.412   7.138  1.0128  0.1830  0.3526
   49MOL   O17320429   6.313   6.472   7.241 -0.2119 -0.0749 -0.3636
   49MOL   O17420430   6.290   6.283   7.111 -0.1198  0.1924 -0.5072
   49MOL   C17520431   6.227   6.201   7.209  0.7187 -0.2056 -0.3072
   49MOL   C17620432   6.109   6.136   7.138 -0.4341  0.4681  0.2955
   49MOL   C17720433   6.040   6.036   7.237  0.3637  0.3812 -0.4980
   49MOL   C17820434   5.907   5.975   7.183  0.4038  0.4827 -0.5941
   49MOL   H17920435   6.240   6.575   6.829 -2.1311 -0.2544 -1.1792
   49MOL   H18020436   6.182   6.421   6.891 -0.1889  0.2471  0.3582
   49MOL   H18120437   6.380   6.591   7.037  1.6824 -0.6464  2.0679
   49MOL   H18220438   6.201   6.273   7.287  1.3385 -0.1818 -0.1197
   49MOL   H18320439   6.307   6.135   7.244  0.6964 -0.4420 -0.7003
   49MOL   H18420440   6.039   6.212   7.102 -1.4096 -0.3387  0.4617
   49MOL   H18520441   6.140   6.079   7.050  1.1411  0.8101  0.6210
   49MOL   H18620442   6.013   6.085   7.331  0.4505  1.8891 -1.2517
   49MOL   H18720443   6.108   5.952   7.249  1.2449  1.0161 -0.9712
   49MOL   H18820444   5.831   6.049   7.158  1.9220  2.1322 -0.4130
   49MOL   H18920445   5.863   5.910   7.258  2.4421 -0.9064 -0.5531
   49MOL   H19020446   5.932   5.907   7.101  0.9034  0.7282 -0.6466
   49MOL   C19120447   6.474   6.434   6.924  0.3360  1.0704 -1.0177
   49MOL   C19220448   6.613   6.463   6.986 -0.8303  0.0601  0.2165
   49MOL   C19320449   6.729   6.391   6.910 -0.2767 -0.3974 -0.5531
   49MOL   O19420450   6.728   6.347   6.797  0.5881  0.1365  0.2589
   49MOL   O19520451   6.841   6.396   6.983 -0.1474  0.4539 -0.2407
   49MOL   C19620452   6.966   6.345   6.943  0.2730 -0.0900 -0.2258
   49MOL   C19720453   7.081   6.415   7.025  0.1012 -0.2285 -0.0602
   49MOL   C19820454   7.057   6.445   7.168  0.0465 -0.5085  0.9197
   49MOL   C19920455   7.089   6.341   7.275  0.1780 -0.2969 -0.3398
   49MOL   H20020456   6.472   6.481   6.826  1.3220  0.6032 -1.2645
   49MOL   H20120457   6.454   6.328   6.913 -0.6699  1.2514 -0.9957
   49MOL   H20220458   6.619   6.428   7.090  0.2899  0.7165  0.3795
   49MOL   H20320459   6.973   6.362   6.835 -0.4309 -1.2045 -0.4492
   49MOL   H20420460   6.973   6.242   6.978  0.3951 -0.0569 -0.1519
   49MOL   H20520461   7.170   6.352   7.012 -0.3094 -0.6463 -0.8700
   49MOL   H20620462   7.118   6.509   6.985 -0.8369  0.4754  0.7265
   49MOL   H20720463   6.955   6.482   7.179 -0.5194 -0.9933 -2.2861
   49MOL   H20820464   7.124   6.529   7.190 -0.2937  0.0901 -0.3018
   49MOL   H20920465   7.043   6.367   7.370  0.2680  1.8299 -0.8438
   49MOL   H21020466   7.196   6.329   7.290  0.5920  2.7168 -0.5553
   49MOL   H21120467   7.056   6.240   7.251 -0.9370 -0.4723  1.8539
   49MOL   C21220468   6.659   6.618   6.997  0.1979  0.6906 -0.0111
   49MOL   C21320469   6.675   6.701   6.860 -0.1517  0.0703 -0.5023
   49MOL   C21420470   6.546   6.769   6.811 -0.2522  0.4532 -0.2476
   49MOL   O21520471   6.458   6.806   6.887 -0.0522  0.3381  0.2458
   49MOL   O21620472   6.556   6.807   6.676  0.4978 -0.3468 -0.0548
   49MOL   C21720473   6.458   6.891   6.607 -0.4536  0.5100  0.3627
   49MOL   C21820474   6.515   7.033   6.591  0.4331 -0.3016  0.2338
   49MOL   C21920475   6.422   7.092   6.482 -0.5929 -0.1464 -0.4743
   49MOL   C22020476   6.458   7.239   6.461  0.9116 -0.1949 -0.4581
   49MOL   H22120477   6.749   6.629   7.057 -0.3943  1.0549  0.8245
   49MOL   H22220478   6.577   6.662   7.053 -0.4574  1.2385 -1.3592
   49MOL   H22320479   6.697   6.627   6.783 -2.0303 -1.4451  0.3730
   49MOL   H22420480   6.358   6.903   6.650 -1.6636 -2.6702 -1.3227
   49MOL   H22520481   6.439   6.846   6.510  0.1210  1.7433 -0.3266
   49MOL   H22620482   6.512   7.088   6.685  1.0808  0.1573 -0.0030
   49MOL   H22720483   6.614   7.028   6.544  0.3270  0.0580 -0.0306
   49MOL   H22820484   6.318   7.079   6.511 -0.2183  0.1643  1.0410
   49MOL   H22920485   6.436   7.029   6.394  0.4859 -0.8941  0.2271
   49MOL   H23020486   6.431   7.290   6.554  0.3325  2.2282 -1.9062
   49MOL   H23120487   6.390   7.285   6.389 -0.3322 -1.9701 -0.4488
   49MOL   H23220488   6.563   7.258   6.441  1.0728 -0.7241 -0.1333
   49MOL   C23320489   6.781   6.811   6.886  0.8100  0.0088  0.4123
   49MOL   C23420490   6.932   6.768   6.897 -0.3758 -0.2029  0.5073
   49MOL   C23520491   6.974   6.719   6.766  0.6171 -0.1223  0.0792
   49MOL   O23620492   6.973   6.599   6.745  0.3628  0.0965  0.1091
   49MOL   O23720493   7.007   6.806   6.679 -0.0968  0.6467 -0.6596
   49MOL   C23820494   7.060   6.770   6.546 -0.2267  0.1749 -0.5546
   49MOL   C23920495   7.090   6.897   6.472 -0.1273 -0.2637  0.2710
   49MOL   C24020496   6.965   6.984   6.461 -0.4107 -0.3176 -0.9712
   49MOL   C24120497   6.967   7.078   6.337 -0.5625 -0.1619  0.7995
   49MOL   H24220498   6.765   6.857   6.984 -0.8834  0.3560 -0.0176
   49MOL   H24320499   6.776   6.889   6.811 -1.7489 -0.2358  0.3040
   49MOL   H24420500   6.947   6.691   6.973  0.0756 -1.4850 -0.8581
   49MOL   H24520501   6.988   6.711   6.489 -0.7092  1.9533 -1.8226
   49MOL   H24620502   7.157   6.721   6.553 -0.9136 -0.9906  1.1503
   49MOL   H24720503   7.177   6.945   6.515  0.1430 -0.5288  0.0236
   49MOL   H24820504   7.123   6.861   6.375  0.2934  1.7517 -0.3555
   49MOL   H24920505   6.932   7.037   6.551  1.6961 -0.6657  0.0433
   49MOL   H25020506   6.890   6.907   6.442  1.3031 -1.7971 -1.9300
   49MOL   H25120507   7.068   7.107   6.308 -0.7011 -0.2262  0.2476
   49MOL   H25220508   6.921   7.175   6.355  1.8998  1.3376 -0.7706
   49MOL   H25320509   6.923   7.033   6.249  2.4923 -0.9197 -0.4218
   49MOL   C25420510   7.020   6.893   6.937  0.2692  0.5249  1.1195
   49MOL   C25520511   7.017   6.964   7.072 -0.1873  0.0811  0.3304
   49MOL   C25620512   6.998   6.863   7.188  0.8199 -0.3137  0.3193
   49MOL   O25720513   7.094   6.832   7.259 -0.1771  0.1908 -0.6817
   49MOL   O25820514   6.868   6.828   7.202  0.2194  0.3703  0.0442
   49MOL   C25920515   6.824   6.758   7.312 -0.0623 -0.6160  0.3650
   49MOL   C26020516   6.681   6.804   7.351  0.3405 -0.5310 -0.6331
   49MOL   C26120517   6.636   6.730   7.481  0.0129  0.1914 -0.3418
   49MOL   C26220518   6.479   6.718   7.484  0.6120 -0.1556 -0.1346
   49MOL   H26320519   6.985   6.978   6.878 -1.0266  0.6733  2.1018
   49MOL   H26420520   7.125   6.870   6.917 -0.4322  0.0861 -2.4205
   49MOL   H26520521   6.921   7.014   7.081 -0.8885 -1.4623  1.8345
   49MOL   H26620522   6.886   6.759   7.401  2.0521 -0.2207 -1.0524
   49MOL   H26720523   6.830   6.655   7.277  1.6889  0.5618 -3.0256
   49MOL   H26820524   6.671   6.910   7.371 -1.6251 -0.7933 -0.1244
   49MOL   H26920525   6.617   6.778   7.267  0.9933 -0.4920 -1.1519
   49MOL   H27020526   6.676   6.790   7.562  0.5251 -0.1445 -0.3479
   49MOL   H27120527   6.679   6.630   7.488  0.0894  0.2871  0.6298
   49MOL   H27220528   6.435   6.657   7.405  2.0619 -1.6711  0.2049
   49MOL   H27320529   6.425   6.812   7.472  0.5139 -0.3119 -0.9648
   49MOL   H27420530   6.441   6.685   7.581  0.1029 -1.8142 -0.8803
   49MOL   C27520531   7.130   7.068   7.086  0.0463 -0.1409  0.6455
   49MOL   C27620532   7.102   7.179   7.184  0.1789  0.1822  0.4262
   49MOL   C27720533   6.982   7.267   7.142  0.2830 -1.0262  0.2510
   49MOL   O27820534   6.879   7.286   7.209  0.2753  0.5312 -0.0533
   49MOL   O27920535   6.993   7.320   7.015 -0.4413 -0.2304  0.2011
   49MOL   C28020536   6.889   7.397   6.955 -0.1014  0.1180  0.2701
   49MOL   C28120537   6.814   7.303   6.858  0.4906 -0.8325  0.4981
   49MOL   C28220538   6.711   7.368   6.768 -0.0767 -0.0558  0.0245
   49MOL   C28320539   6.582   7.418   6.837  0.3430 -0.4574  0.0328
   49MOL   H28420540   7.165   7.108   6.991  0.1030 -1.9237 -0.1017
   49MOL   H28520541   7.221   7.013   7.112 -0.0329  0.2112  1.6910
   49MOL   H28620542   7.185   7.248   7.168 -0.5296  0.4034 -2.5632
   49MOL   H28720543   6.938   7.476   6.899  0.5431 -0.1749  0.4227
   49MOL   H28820544   6.820   7.432   7.032  0.5077 -4.6246  3.1378
   49MOL   H28920545   6.889   7.258   6.792  0.6309 -0.1913  0.2232
   49MOL   H29020546   6.756   7.228   6.912 -0.3882  0.4103  1.2979
   49MOL   H29120547   6.690   7.309   6.678 -1.0973  1.3599 -0.6860
   49MOL   H29220548   6.761   7.458   6.732 -0.5969  0.5891  0.8895
   49MOL   H29320549   6.607   7.491   6.914 -1.8715 -1.6770  1.9776
   49MOL   H29420550   6.540   7.332   6.890  2.7993 -1.2100  0.8274
   49MOL   H29520551   6.508   7.467   6.774  2.1146  0.3171 -1.4612
   49MOL   C29620552   7.101   7.145   7.339  0.6014  0.3564  0.2568
   49MOL   C29720553   7.224   7.080   7.396 -0.0772  1.1386 -0.5481
   49MOL   C29820554   7.340   7.181   7.403 -0.4042  0.7821 -0.5617
   49MOL   O29920555   7.325   7.301   7.431  0.1343 -0.1920 -0.1545
   49MOL   O30020556   7.459   7.130   7.376 -0.4556 -0.2981  0.1285
   49MOL   C30120557   7.579   7.210   7.384 -0.2629  0.2898  0.1005
   49MOL   C30220558   7.613   7.289   7.255 -0.0725  0.8878  0.1346
   49MOL   C30320559   7.616   7.193   7.137 -0.1195 -0.4133 -0.1304
   49MOL   C30420560   7.629   7.263   7.000 -0.9627  0.1931 -0.0700
   49MOL   H30520561   7.008   7.088   7.348  1.0929 -0.3168  1.0964
   49MOL   H30620562   7.097   7.239   7.393  2.7761  0.8068 -0.3271
   49MOL   H30720563   7.257   6.992   7.340  0.3197  1.0938 -0.2469
   49MOL   H30820564   7.661   7.141   7.403  1.4593  2.3908  0.3958
   49MOL   H30920565   7.578   7.273   7.472 -0.1128  1.7980 -0.9703
   49MOL   H31020566   7.537   7.364   7.232 -0.8267  0.5104  1.3209
   49MOL   H31120567   7.710   7.337   7.248  1.2750 -1.8779 -0.7050
   49MOL   H31220568   7.524   7.134   7.138  0.5763 -1.5185  0.5421
   49MOL   H31320569   7.703   7.127   7.146  0.2955 -0.0786 -1.5304
   49MOL   H31420570   7.671   7.198   6.923  1.2887 -0.6428  1.8115
   49MOL   H31520571   7.689   7.354   6.999 -1.9553  0.8691 -1.5504
   49MOL   H31620572   7.531   7.299   6.967 -1.2947 -1.0493 -0.4863
   49MOL   C31720573   7.195   7.002   7.526 -0.0838 -0.1088 -0.1523
   49MOL   C31820574   7.114   7.068   7.637  0.4329 -0.1417  0.0849
   49MOL   C31920575   6.964   7.039   7.622 -0.2467 -0.4838 -0.4649
   49MOL   O32020576   6.914   6.927   7.635 -0.3267  0.3710 -0.5693
   49MOL   O32120577   6.894   7.151   7.594  0.3640 -0.1757 -0.8472
   49MOL   C32220578   6.752   7.137   7.572  0.3831  0.6958  0.2091
   49MOL   C32320579   6.697   7.273   7.552  0.7264  0.6674  0.3640
   49MOL   C32420580   6.551   7.276   7.513  0.1415 -0.3048 -0.0312
   49MOL   C32520581   6.470   7.297   7.640  0.0239  0.6288  0.7975
   49MOL   H32620582   7.283   6.970   7.580  0.3077 -0.0341 -0.7387
   49MOL   H32720583   7.141   6.910   7.503  1.3119 -0.9112 -0.2752
   49MOL   H32820584   7.112   7.177   7.630  0.0477 -0.1882 -0.6708
   49MOL   H32920585   6.693   7.098   7.655  3.5628 -2.4989  1.1113
   49MOL   H33020586   6.752   7.081   7.478  1.9158  0.2075  0.4801
   49MOL   H33120587   6.726   7.339   7.634 -1.4758  0.9368  0.9347
   49MOL   H33220588   6.748   7.315   7.465 -0.5128  1.6857  0.1173
   49MOL   H33320589   6.512   7.183   7.472  0.1759  0.0787 -0.9436
   49MOL   H33420590   6.535   7.341   7.428 -2.6773 -2.6521 -1.3990
   49MOL   H33520591   6.484   7.215   7.710  1.4299  1.3748  1.4001
   49MOL   H33620592   6.365   7.309   7.614  0.0496 -1.6343 -0.5265
   49MOL   H33720593   6.498   7.394   7.680 -0.7294  0.9348  0.5911
   49MOL   C33820594   7.169   7.029   7.774  0.4848  0.3368 -0.2367
   49MOL   C33920595   7.310   7.079   7.819  0.2111 -0.6536  0.1457
   49MOL   C34020596   7.303   7.233   0.002  0.5023 -0.1408  0.4108
   49MOL   O34120597   7.201   7.278   0.065 -0.3011  0.2790 -0.0379
   49MOL   O34220598   7.413   7.304   7.800  0.0522  0.0938 -0.9347
   49MOL   C34320599   7.411   7.450   7.828  0.7930  0.9360  0.3257
   49MOL   C34420600   7.557   7.510   7.797 -0.0628 -0.5310  0.4739
   49MOL   C34520601   7.564   7.591   7.663 -0.2350 -0.1217 -0.2599
   49MOL   C34620602   7.705   7.643   7.638  0.2391  0.1652 -0.2377
   49MOL   H34720603   7.171   6.920   7.771  1.8751  0.3995 -3.2976
   49MOL   H34820604   7.093   7.055   7.848  0.7337 -0.9425  0.4850
   49MOL   H34920605   7.384   7.075   7.739 -0.8986  1.2168 -1.0402
   49MOL   H35020606   7.372   7.472   0.074 -1.9481  2.4312 -1.0103
   49MOL   H35120607   7.339   7.499   7.763  1.0979  0.8594 -0.0756
   49MOL   H35220608   7.598   7.579   0.018  4.1936  0.2767 -2.4911
   49MOL   H35320609   7.629   7.429   7.804 -1.4006 -1.6073  2.3989
   49MOL   H35420610   7.498   7.677   7.673 -2.7346 -1.8073 -1.6477
   49MOL   H35520611   7.526   7.539   7.575  0.0494  1.7756 -1.5187
   49MOL   H35620612   7.766   7.554   7.620 -0.1649 -0.2433  0.4151
   49MOL   H35720613   7.741   7.711   7.715  0.9913  0.2731 -0.6746
   49MOL   H35820614   7.701   7.712   7.554  0.1771 -1.5716 -1.7058
   49MOL   C35920615   7.380   6.984   0.071  0.1368  1.0081  0.3198
   49MOL   C36020616   7.434   6.853   0.011 -0.5798 -0.3240  0.1174
   49MOL   C36120617   7.503   6.869   7.730 -0.6090 -0.7014  0.0131
   49MOL   O36220618   7.489   6.789   7.639 -0.0023 -0.2344  1.0731
   49MOL   O36320619   7.589   6.970   7.733  0.3959  0.0817  0.0261
   49MOL   C36420620   7.710   6.969   7.660 -0.3280  0.3908  0.3872
   49MOL   C36520621   7.816   7.020   7.756 -0.0300  0.0554  0.2364
   49MOL   C36620622   7.775   7.159   7.799  0.9548 -0.3017 -0.5802
   49MOL   C36720623   0.020   7.224   0.042 -0.4775 -0.4026  0.5429
   49MOL   H36820624   7.309   6.967   0.152 -0.6804 -0.3209 -0.6602
   49MOL   H36920625   7.458   7.040   0.122  0.0858  2.6136 -1.3163
   49MOL   H37020626   7.346   6.791   7.847  0.2532 -1.7190  0.8426
   49MOL   H37120627   7.703   7.042   7.580 -0.6927  0.5473  0.5625
   49MOL   H37220628   7.746   6.876   7.615  3.6626  2.4663 -0.9783
   49MOL   H37320629   7.834   6.961   7.846 -0.2692  0.6546  0.6845
   49MOL   H37420630   0.063   7.032   7.716 -1.8942  3.7713 -3.7007
   49MOL   H37520631   7.683   7.147   0.003  1.9379 -2.3154  0.6574
   49MOL   H37620632   7.755   7.226   7.716  1.6818 -0.4899 -0.9135
   49MOL   H37720633   0.109   7.257   7.842 -1.3385  0.9467 -0.0859
   49MOL   H37820634   0.049   7.169   0.132  0.0424  0.6932  1.0466
   49MOL   H37920635   7.829   7.318   0.075 -1.7369 -1.2257  1.2588
   49MOL   C38020636   7.532   6.771   0.108 -0.0772 -0.0578 -0.8252
   49MOL   C38120637   7.462   6.722   0.244 -0.2359 -0.1955 -0.6875
   49MOL   C38220638   7.354   6.615   0.213 -0.2175 -0.7655 -0.1271
   49MOL   O38320639   7.386   6.498   0.227 -0.3783 -0.5384  0.3498
   49MOL   O38420640   7.235   6.666   0.174  0.4866 -0.1365  0.1078
   49MOL   C38520641   7.119   6.582   0.152 -0.5266  0.3069 -0.0272
   49MOL   C38620642   7.019   6.655   0.074  0.0109 -0.7731 -0.6642
   49MOL   C38720643   6.915   6.558   0.018 -0.2888  0.1727  0.1124
   49MOL   C38820644   6.818   6.627   7.779  0.3890 -0.1789  0.5006
   49MOL   H38920645   7.618   6.829   0.141  0.7232 -2.2512  1.1632
   49MOL   H39020646   7.565   6.684   0.050 -1.2989  0.3672 -2.1943
   49MOL   H39120647   7.406   6.804   0.288 -1.9570 -1.3436 -0.6820
   49MOL   H39220648   7.076   6.552   0.248  0.1907  0.3116  0.2966
   49MOL   H39320649   7.149   6.487   0.108  1.0844  0.7446  0.1084
   49MOL   H39420650   6.973   6.739   0.126 -1.2832 -0.3511 -2.4368
   49MOL   H39520651   7.065   6.709   7.844 -0.0081  1.4430  0.7292
   49MOL   H39620652   6.857   6.519   0.101 -0.3145  3.0409  1.5371
   49MOL   H39720653   6.951   6.472   7.816  0.7857  1.0224 -0.5470
   49MOL   H39820654   6.768   6.555   7.714  1.8999 -1.4520  0.7000
   49MOL   H39920655   6.860   6.692   7.702  0.5831  1.2662  1.8000
   49MOL   H40020656   6.741   6.687   7.826  0.1180 -0.4601  0.4122
   49MOL   C40120657   7.558   6.678   0.354  0.9410 -0.5072  0.1880
   49MOL   C40220658   7.504   6.659   0.496 -0.5384 -0.6119  0.0697
   49MOL   C40320659   7.433   6.784   0.549 -0.3258  0.1070  0.6781
   49MOL   O40420660   7.314   6.778   0.583  0.6030 -0.0589  0.1685
   49MOL   O40520661   7.520   6.891   0.570 -0.0272 -0.5807 -0.0275
   49MOL   C40620662   7.477   7.003   0.643 -0.5842  0.1637 -0.1471
   49MOL   C40720663   7.536   7.126   0.560 -0.4009 -0.4160  0.5837
   49MOL   C40820664   7.504   7.127   0.408 -0.0158  0.0652  0.1203
   49MOL   C40920665   7.616   7.195   0.325 -0.4341  0.0867 -0.0528
   49MOL   H41020666   7.642   6.746   0.364  0.9725 -0.4014 -0.7188
   49MOL   H41120667   7.609   6.589   0.318  1.7129  0.9396 -2.4451
   49MOL   H41220668   7.583   6.638   0.569  0.6158  0.8613 -0.7270
   49MOL   H41320669   7.519   7.002   0.743 -2.0297 -2.2327  0.4739
   49MOL   H41420670   7.369   7.016   0.642 -0.7857 -1.3333  0.6802
   49MOL   H41520671   7.516   7.220   0.612  3.7172 -0.0755  1.6781
   49MOL   H41620672   7.642   7.127   0.585 -0.7227 -1.7457  2.0337
   49MOL   H41720673   7.411   7.184   0.402 -0.9075 -1.3047  0.7376
   49MOL   H41820674   7.485   7.030   0.363  1.7516  0.4449 -1.4616
   49MOL   H41920675   7.613   7.165   0.220  2.2717  0.1918 -0.1747
   49MOL   H42020676   7.711   7.157   0.361 -0.3825 -0.7579 -1.0347
   49MOL   H42120677   7.609   7.303   0.329  1.1332  0.1538  1.0790
   49MOL   H42220678   7.437   6.574   0.492 -0.5409 -0.5932 -0.2901
   50MOL     C120679   5.223   1.144   6.148 -0.3434 -0.0404  0.6411
   50MOL     C220680   5.260   1.235   6.028  0.1586 -0.4723 -0.1505
   50MOL     C320681   5.140   1.256   5.940  0.1520  0.4118 -0.4942
   50MOL     O420682   5.062   1.346   5.956 -0.0158 -0.6148  0.0077
   50MOL     O520683   5.140   1.157   5.842  0.4445  0.2869  0.0919
   50MOL     C620684   5.049   1.157   5.733 -0.1111 -0.0388  0.4359
   50MOL     C720685   5.076   1.042   5.633  0.8096  0.3501  0.5383
   50MOL     C820686   5.213   1.056   5.562  0.4104  0.4737  0.6418
   50MOL     C920687   5.185   1.126   5.424 -0.4940  0.6488 -0.4806
   50MOL    H1020688   5.127   1.171   6.191 -0.8353 -1.9331  0.7765
   50MOL    H1120689   5.206   1.038   6.131  1.4875 -0.2923  0.2780
   50MOL    H1220690   5.333   1.182   5.967 -1.9807 -0.4639 -2.8159
   50MOL    H1320691   5.063   1.257   5.690  1.7340 -0.5189 -0.1378
   50MOL    H1420692   4.954   1.147   5.785  0.4889  0.5510  1.6780
   50MOL    H1520693   5.074   0.949   5.691 -0.8071 -0.6864 -1.1137
   50MOL    H1620694   4.989   1.018   5.573  1.6753  1.9920 -1.4086
   50MOL    H1720695   5.259   0.963   5.532  2.4861  1.7419 -0.1862
   50MOL    H1820696   5.288   1.110   5.620 -0.4881 -0.0490  2.3229
   50MOL    H1920697   5.206   1.232   5.437 -1.3465  0.4780  2.6756
   50MOL    H2020698   5.083   1.096   5.400 -0.4700 -1.1480  1.4571
   50MOL    H2120699   5.246   1.086   5.342 -1.0171  0.1027 -0.6086
   50MOL    H2220700   5.303   1.142   6.222 -0.1587  3.3877  0.6233
   50MOL    C2320701   5.319   1.378   6.075  1.1272  0.9144  0.0347
   50MOL    C2420702   5.472   1.369   6.094 -0.4392  0.4605 -0.4860
   50MOL    C2520703   5.543   1.333   5.967 -0.0781  0.0133  0.5146
   50MOL    O2620704   5.547   1.402   5.869 -0.8101  0.0672 -0.1910
   50MOL    O2720705   5.611   1.213   5.975  0.1814 -0.1078  0.3497
   50MOL    C2820706   5.670   1.154   5.862 -0.5764 -0.1544 -0.1927
   50MOL    C2920707   5.810   1.213   5.839  0.0018 -0.0918  0.1580
   50MOL    C3020708   5.882   1.150   5.720  0.2595  0.6863  0.2079
   50MOL    C3120709   5.825   1.211   5.586  0.8885 -0.2956  0.7365
   50MOL    H3220710   5.273   1.417   6.166 -2.3436 -0.8045 -0.9035
   50MOL    H3320711   5.304   1.450   5.995 -2.6476  1.9620  1.5751
   50MOL    H3420712   5.493   1.295   6.171  1.1268  1.0303 -0.3536
   50MOL    H3520713   5.609   1.179   5.775 -1.7063 -0.1652  0.5886
   50MOL    H3620714   5.669   1.047   5.885 -0.2000  0.2354  1.6549
   50MOL    H3720715   5.813   1.321   5.821  2.1943 -0.1636 -0.0737
   50MOL    H3820716   5.862   1.193   5.933 -0.4988 -1.6241  0.1113
   50MOL    H3920717   5.865   1.043   5.718  0.7299  0.6124 -0.4145
   50MOL    H4020718   5.990   1.167   5.725  0.2282  1.0306 -0.1664
   50MOL    H4120719   5.835   1.319   5.585  0.5482 -0.2653  0.6023
   50MOL    H4220720   5.716   1.198   5.587  0.4366  2.9015 -0.9516
   50MOL    H4320721   5.873   1.166   5.499 -1.5722 -0.4462 -0.6009
   50MOL    C4420722   5.521   1.503   6.154 -0.2769 -0.0463  0.1631
   50MOL    C4520723   5.652   1.492   6.237  0.2185  0.0222  0.0812
   50MOL    C4620724   5.637   1.387   6.357 -0.2180  0.1671  0.7894
   50MOL    O4720725   5.728   1.306   6.375 -0.0424  0.3875  0.4176
   50MOL    O4820726   5.531   1.411   6.442 -0.1192  0.8093 -1.1239
   50MOL    C4920727   5.507   1.323   6.551 -0.5152 -0.6773  0.2719
   50MOL    C5020728   5.591   1.359   6.673  0.8701 -0.3889  0.1767
   50MOL    C5120729   5.559   1.258   6.790 -0.7525 -0.1294  0.0127
   50MOL    C5220730   5.669   1.257   6.890  0.4741  0.0871 -0.1861
   50MOL    H5320731   5.441   1.528   6.223 -2.2912 -0.9439 -1.8132
   50MOL    H5420732   5.529   1.575   6.073  0.0112 -1.9512 -1.5407
   50MOL    H5520733   5.673   1.588   6.284  0.9580 -0.4249  0.6949
   50MOL    H5620734   5.523   1.220   6.517  0.4429 -0.2251 -0.6819
   50MOL    H5720735   5.402   1.331   6.581  0.4419  0.5708  3.4016
   50MOL    H5820736   5.697   1.363   6.649  0.9783 -0.0409  0.7055
   50MOL    H5920737   5.575   1.463   6.702 -1.4817 -1.3382  2.4946
   50MOL    H6020738   5.541   1.156   6.758 -0.7349 -0.9788  2.6294
   50MOL    H6120739   5.462   1.289   6.828 -0.1031  0.8824  0.8788
   50MOL    H6220740   5.668   1.175   6.961  2.5822  1.2075  1.1998
   50MOL    H6320741   5.664   1.343   6.957  0.9829  0.5600 -0.7463
   50MOL    H6420742   5.764   1.257   6.837  0.3152  1.2193 -0.4923
   50MOL    C6520743   5.785   1.461   6.153 -0.5336 -0.9579  0.0923
   50MOL    C6620744   5.832   1.571   6.058  0.5382  0.7626  0.7389
   50MOL    C6720745   5.845   1.707   6.124 -0.3349 -0.2221  0.3732
   50MOL    O6820746   5.954   1.758   6.165 -0.6298 -0.5207 -1.2608
   50MOL    O6920747   5.722   1.767   6.134 -0.6841  0.2858  0.0036
   50MOL    C7020748   5.709   1.883   6.213 -0.5825  0.2523  0.3193
   50MOL    C7120749   5.568   1.905   6.263  0.7916  0.6031 -0.2970
   50MOL    C7220750   5.465   1.900   6.148 -0.0981 -0.5086 -0.1293
   50MOL    C7320751   5.318   1.911   6.202 -0.0452 -0.2301  0.3915
   50MOL    H7420752   5.799   1.358   6.120  1.0836 -1.0837  1.0935
   50MOL    H7520753   5.858   1.471   6.234  0.5072 -0.1014 -0.9289
   50MOL    H7620754   5.759   1.587   5.978 -0.0677  0.2445  1.1785
   50MOL    H7720755   5.710   1.970   6.147  0.7024  0.2985  0.3766
   50MOL    H7820756   5.779   1.902   6.294  0.2432  1.1413 -0.5828
   50MOL    H7920757   5.535   1.821   6.324  0.5289  0.3247 -0.8171
   50MOL    H8020758   5.572   2.003   6.311  2.5044  0.9927 -1.1868
   50MOL    H8120759   5.464   1.807   6.091 -1.5860  0.0908 -1.1030
   50MOL    H8220760   5.486   1.982   6.079  2.2445 -1.0740 -0.1632
   50MOL    H8320761   5.315   1.992   6.275  2.5516 -1.4813  1.9311
   50MOL    H8420762   5.274   1.827   6.255  2.2780 -0.8734  1.3709
   50MOL    H8520763   5.251   1.933   6.118 -0.0962 -1.0092  0.2236
   50MOL    C8620764   5.972   1.536   5.997  0.0671 -0.2646  0.7606
   50MOL    C8720765   5.999   1.588   5.851  0.2439 -0.5619  0.8305
   50MOL    C8820766   6.067   1.731   5.859 -0.1129 -0.1541  0.5674
   50MOL    O8920767   6.189   1.740   5.878  0.4895 -0.2059 -0.1776
   50MOL    O9020768   5.980   1.826   5.834 -0.3713  0.6025 -0.5603
   50MOL    C9120769   6.019   1.964   5.862  0.5023 -0.4046  0.0880
   50MOL    C9220770   5.887   2.042   5.834 -0.0880 -0.1340  0.8324
   50MOL    C9320771   5.905   2.179   5.893  0.1919  0.6162  0.0838
   50MOL    C9420772   5.769   2.240   5.882  0.2466  0.2551  0.2269
   50MOL    H9520773   5.991   1.429   5.994 -0.1036 -0.3059  1.1318
   50MOL    H9620774   6.049   1.560   6.071 -0.1182 -1.4404  1.3380
   50MOL    H9720775   5.895   1.588   5.820  0.0680 -0.9171  1.4083
   50MOL    H9820776   6.103   1.984   5.797 -0.0559  1.2172 -0.1487
   50MOL    H9920777   6.047   1.976   5.967 -3.0467 -0.2746  1.0819
   50MOL   H10020778   5.858   2.039   5.729 -0.2154 -3.3694  0.9138
   50MOL   H10120779   5.800   1.995   5.880  0.4151 -1.0086  0.8917
   50MOL   H10220780   5.981   2.237   5.841  1.1094 -0.7116 -0.0593
   50MOL   H10320781   5.938   2.180   5.996  1.4402  3.0562 -0.3110
   50MOL   H10420782   5.790   2.338   5.926  0.5959 -0.2160  1.1137
   50MOL   H10520783   5.695   2.191   5.945  1.3719 -0.6833  0.8494
   50MOL   H10620784   5.730   2.236   5.780 -0.8785 -0.1757  0.6683
   50MOL   C10720785   6.088   1.489   5.759 -0.3509  0.0394 -0.1320
   50MOL   C10820786   6.236   1.447   5.788  1.1623 -0.3827 -0.3908
   50MOL   C10920787   6.249   1.385   5.926  0.4047  0.6930  0.4886
   50MOL   O11020788   6.288   1.446   6.024  0.2021 -0.3613  0.6013
   50MOL   O11120789   6.210   1.253   5.920 -0.4189 -0.0655  0.5207
   50MOL   C11220790   6.213   1.171   6.032  0.7301  0.2119  0.3730
   50MOL   C11320791   6.211   1.025   5.979  0.0258 -0.2418 -0.2990
   50MOL   C11420792   6.212   0.931   6.101 -0.0017 -0.3854  0.0864
   50MOL   C11520793   6.082   0.920   6.184 -0.5758 -0.7028  0.5682
   50MOL   H11620794   6.077   1.537   5.661  2.2429  0.2874 -0.3218
   50MOL   H11720795   6.028   1.399   5.744  0.3954 -0.6813  1.1615
   50MOL   H11820796   6.273   1.546   5.814  2.6931 -1.4996  1.7751
   50MOL   H11920797   6.119   1.204   6.074 -0.3342 -2.0683 -0.1302
   50MOL   H12020798   6.293   1.199   6.102 -0.6910  2.9766  0.9423
   50MOL   H12120799   6.129   1.006   5.910  0.7162 -0.4917 -1.0576
   50MOL   H12220800   6.299   1.008   5.916 -0.3298  1.9304 -1.4658
   50MOL   H12320801   6.299   0.950   6.163  0.5030 -0.1614 -0.6773
   50MOL   H12420802   6.234   0.831   6.061  2.0060  0.1401 -0.1966
   50MOL   H12520803   6.067   1.007   6.249  2.0920  0.0428  0.2504
   50MOL   H12620804   6.108   0.835   6.247 -1.0735 -1.2861 -0.0097
   50MOL   H12720805   5.988   0.900   6.133  0.0616 -0.2367 -0.8167
   50MOL   C12820806   6.314   1.373   5.677 -0.0118  0.1452 -0.3801
   50MOL   C12920807   6.436   1.457   5.619  0.2244  0.7429 -0.6022
   50MOL   C13020808   6.415   1.586   5.538 -0.1403  0.0012  0.1703
   50MOL   O13120809   6.472   1.609   5.433 -0.2756  0.3457 -0.9157
   50MOL   O13220810   6.320   1.670   5.594 -0.1668  0.1289  0.1201
   50MOL   C13320811   6.297   1.795   5.520  0.6463 -0.3751 -1.0265
   50MOL   C13420812   6.196   1.775   5.407 -0.9883  0.0906  0.2932
   50MOL   C13520813   6.110   1.903   5.371 -0.1210  1.1621 -0.0103
   50MOL   C13620814   6.011   1.858   5.272 -0.0958 -0.5649  0.0676
   50MOL   H13720815   6.257   1.341   5.590 -0.9857  1.7684 -0.3624
   50MOL   H13820816   6.357   1.279   5.711  0.3479  1.0354  1.7602
   50MOL   H13920817   6.486   1.400   5.540  1.9543  0.0710  0.9462
   50MOL   H14020818   6.393   1.834   5.486  0.9164 -0.2569 -0.1367
   50MOL   H14120819   6.265   1.877   5.585 -1.7788 -0.6273 -1.8487
   50MOL   H14220820   6.258   1.753   5.320 -2.3938  0.6476 -0.8646
   50MOL   H14320821   6.131   1.688   5.417  0.1941 -0.6835  1.4601
   50MOL   H14420822   6.161   1.995   5.344  1.4890 -0.4643 -2.7835
   50MOL   H14520823   6.050   1.932   5.457 -1.0930 -0.3924 -0.1317
   50MOL   H14620824   5.993   1.750   5.267  0.4387 -0.6969  0.7454
   50MOL   H14720825   6.047   1.881   5.172  0.4431  1.5555  0.7202
   50MOL   H14820826   5.910   1.898   5.280  0.0158 -0.4046  0.7261
   50MOL   C14920827   6.547   1.468   5.728  0.5256  0.4717 -0.5269
   50MOL   C15020828   6.691   1.490   5.671  0.0864 -0.4791  0.2850
   50MOL   C15120829   6.747   1.632   5.683  0.0273  0.6829  0.2512
   50MOL   O15220830   6.691   1.719   5.752 -0.0013 -0.2220 -0.0165
   50MOL   O15320831   6.852   1.641   5.593 -0.6144  0.3267  0.1599
   50MOL   C15420832   6.932   1.756   5.604 -0.8254  0.3953  0.2492
   50MOL   C15520833   7.049   1.734   5.701  0.7357  0.8969  0.5821
   50MOL   C15620834   7.138   1.620   5.650  0.1165  0.4413  0.3833
   50MOL   C15720835   7.270   1.612   5.734  0.0564 -0.3251  0.5409
   50MOL   H15820836   6.545   1.366   5.766 -3.2953  0.5193 -0.4603
   50MOL   H15920837   6.522   1.523   5.819 -2.4058 -2.1568  0.3346
   50MOL   H16020838   6.679   1.471   5.564  1.1391  0.1162  0.0543
   50MOL   H16120839   6.863   1.835   5.634  0.7754  1.1225  2.0894
   50MOL   H16220840   6.972   1.795   5.511 -1.5750 -1.4106 -0.8493
   50MOL   H16320841   7.111   1.823   5.711 -0.1494  1.6601 -0.6631
   50MOL   H16420842   7.016   1.704   5.800  1.2189 -0.0975  0.4508
   50MOL   H16520843   7.165   1.647   5.548  0.3952  1.4875  0.7315
   50MOL   H16620844   7.090   1.523   5.634  0.6959  0.0468  1.0155
   50MOL   H16720845   7.331   1.529   5.697  1.9019  1.3519 -0.2958
   50MOL   H16820846   7.247   1.587   5.837  0.8963  0.9516  1.0547
   50MOL   H16920847   7.331   1.702   5.743 -2.4537  1.4374  0.6103
   50MOL   C17020848   6.790   1.384   5.732 -0.3131 -0.5430 -0.3666
   50MOL   C17120849   6.775   1.233   5.680  0.2536 -0.4527 -0.1776
   50MOL   C17220850   6.841   1.216   5.543  0.2064  0.1037 -0.0890
   50MOL   O17320851   6.917   1.126   5.527 -0.3502  0.2374  0.3259
   50MOL   O17420852   6.830   1.322   5.465 -0.8778  0.2719  0.4171
   50MOL   C17520853   6.903   1.327   5.345  0.1789  0.0590 -0.2397
   50MOL   C17620854   6.873   1.450   5.271 -0.1186  0.2323 -0.1627
   50MOL   C17720855   6.721   1.461   5.236 -0.2121 -0.8286  0.5607
   50MOL   C17820856   6.697   1.578   5.133  0.3016  0.0528 -0.4530
   50MOL   H17920857   6.777   1.392   5.840 -4.6356 -1.6563 -0.7232
   50MOL   H18020858   6.890   1.408   5.697  0.1486 -1.3445  0.3906
   50MOL   H18120859   6.668   1.217   5.666 -0.1820  3.5954 -2.1699
   50MOL   H18220860   6.883   1.241   5.281 -0.5115  0.3752 -0.4493
   50MOL   H18320861   7.011   1.326   5.359  0.1516  1.4329  0.1229
   50MOL   H18420862   6.898   1.525   5.347  2.4415 -0.5747 -0.1699
   50MOL   H18520863   6.925   1.455   5.175 -1.4849  1.1829 -0.8650
   50MOL   H18620864   6.663   1.481   5.326  1.6947 -3.2689  2.4360
   50MOL   H18720865   6.681   1.376   5.181  1.6858  0.0048 -2.2552
   50MOL   H18820866   6.592   1.596   5.115  0.6722 -0.7857 -3.7040
   50MOL   H18920867   6.743   1.564   5.035 -1.8870  1.8413 -1.7674
   50MOL   H19020868   6.742   1.671   5.168  0.2758 -0.0643 -0.0988
   50MOL   C19120869   6.821   1.118   5.774  0.3385  0.1914 -0.8150
   50MOL   C19220870   6.971   1.105   5.817 -0.2486  0.3871  0.9246
   50MOL   C19320871   7.009   1.240   5.890  0.1342 -0.0821 -0.1940
   50MOL   O19420872   7.099   1.316   5.850 -0.1517  0.0614 -0.4707
   50MOL   O19520873   6.941   1.265   6.002 -0.4404 -0.6510  0.1498
   50MOL   C19620874   6.978   1.378   6.081 -0.0450 -0.3087  0.3221
   50MOL   C19720875   7.075   1.345   6.191 -0.6966  0.2353 -0.3453
   50MOL   C19820876   7.009   1.259   6.302  0.5746 -0.4392 -0.3786
   50MOL   C19920877   7.109   1.231   6.408  0.4022  0.2554  0.4011
   50MOL   H20020878   6.792   1.020   5.738  1.2313 -0.7981  1.0958
   50MOL   H20120879   6.761   1.134   5.863 -0.1698  0.0067 -1.1244
   50MOL   H20220880   7.037   1.105   5.730 -2.1611  2.5458 -0.5854
   50MOL   H20320881   6.884   1.416   6.121  0.8827  0.6724  1.6278
   50MOL   H20420882   7.012   1.459   6.017 -1.7270 -0.5665 -0.9513
   50MOL   H20520883   7.175   1.309   6.168 -0.2293  1.2456  0.0414
   50MOL   H20620884   7.100   1.441   6.237  1.5821 -1.2522  1.6369
   50MOL   H20720885   6.975   1.161   6.268  1.6714 -0.8759 -0.2156
   50MOL   H20820886   6.922   1.315   6.338  1.7527  0.1611  1.5641
   50MOL   H20920887   7.192   1.163   6.388  0.3846  0.3911 -0.1554
   50MOL   H21020888   7.060   1.202   6.501 -0.3951 -0.6882 -0.2964
   50MOL   H21120889   7.158   1.324   6.435  0.0692  0.2979  0.8626
   50MOL   C21220890   6.992   0.989   5.917  0.0269 -0.0194  0.4826
   50MOL   C21320891   7.136   0.976   5.971 -0.5550 -0.2862 -0.0221
   50MOL   C21420892   7.137   0.911   6.113 -0.0896  0.0377 -0.1069
   50MOL   O21520893   7.183   0.971   6.209  0.3929 -0.2516 -0.0777
   50MOL   O21620894   7.090   0.785   6.115  0.2515 -0.0639  0.4023
   50MOL   C21720895   7.097   0.712   6.234 -0.2430  0.0800 -0.5958
   50MOL   C21820896   7.194   0.586   6.229  0.4526  0.6147  0.3628
   50MOL   C21920897   7.340   0.626   6.175 -0.0506  0.0365 -0.2669
   50MOL   C22020898   7.413   0.725   6.267  0.9516  0.5373 -0.3159
   50MOL   H22120899   6.961   0.892   5.880 -0.5508 -0.1724  1.3657
   50MOL   H22220900   6.924   1.015   5.998  1.0588  1.0539  1.0233
   50MOL   H22320901   7.183   1.072   5.992 -1.2167 -0.1664  0.9503
   50MOL   H22420902   7.003   0.658   6.247  0.7051 -1.0695  1.8627
   50MOL   H22520903   7.107   0.778   6.320  0.0715  1.6670 -1.8300
   50MOL   H22620904   7.191   0.556   6.334 -2.1921  0.4924  0.2829
   50MOL   H22720905   7.149   0.512   6.163 -2.0018  0.7520  1.8586
   50MOL   H22820906   7.333   0.677   6.079 -1.1495  0.8197  0.2264
   50MOL   H22920907   7.399   0.535   6.166 -1.7077 -1.1830  0.8887
   50MOL   H23020908   7.520   0.726   6.245  0.9129  0.8764 -0.4925
   50MOL   H23120909   7.401   0.689   6.369 -1.8616 -0.1639 -0.8659
   50MOL   H23220910   7.375   0.825   6.245  2.7163  1.4284  0.6083
   50MOL   C23320911   7.232   0.917   5.873 -0.0292 -0.8336  0.0998
   50MOL   C23420912   7.374   0.962   5.886  0.2057 -0.2845  0.0461
   50MOL   C23520913   7.475   0.876   5.809 -0.3061  0.7908 -0.3322
   50MOL   O23620914   7.581   0.843   5.863  0.1345 -0.6272  0.4247
   50MOL   O23720915   7.447   0.857   5.678 -0.4859  0.8006 -0.9480
   50MOL   C23820916   7.546   0.792   5.607 -0.0610 -0.4319  0.7800
   50MOL   C23920917   7.484   0.721   5.487  0.3418 -0.2391 -0.3153
   50MOL   C24020918   7.417   0.804   5.381  0.3491  0.3972  0.2641
   50MOL   C24120919   7.513   0.916   5.338 -0.7249 -0.2769 -0.6390
   50MOL   H24220920   7.201   0.932   5.770  0.9682 -1.5690 -0.3151
   50MOL   H24320921   7.226   0.808   5.886  1.9878 -0.6529  3.0566
   50MOL   H24420922   7.391   0.937   5.991  1.0248  0.4761  0.0973
   50MOL   H24520923   7.600   0.715   5.660  0.3260  1.3604  3.0584
   50MOL   H24620924   7.633   0.854   5.585  0.6671 -1.1844  1.5270
   50MOL   H24720925   7.560   0.655   5.443 -1.5930 -1.2113 -2.2714
   50MOL   H24820926   7.415   0.643   5.519 -1.1508  1.1706 -0.0606
   50MOL   H24920927   7.321   0.842   5.418 -0.7776 -1.0041 -1.1342
   50MOL   H25020928   7.410   0.733   5.298 -0.3138 -0.3260  0.9263
   50MOL   H25120929   7.489   0.956   5.240 -0.5090  0.6892 -0.3027
   50MOL   H25220930   7.610   0.869   5.324 -1.2314 -1.5320 -0.0120
   50MOL   H25320931   7.516   0.988   5.420 -0.2130 -0.2531 -0.6803
   50MOL   C25420932   7.400   1.116   5.880  0.1587  0.0527  0.8220
   50MOL   C25520933   7.454   1.180   6.016 -0.1466  0.3542 -0.1465
   50MOL   C25620934   7.599   1.141   6.039  0.0176 -0.1416 -0.1126
   50MOL   O25720935   7.641   1.111   6.146  0.7497  0.0009 -0.2838
   50MOL   O25820936   7.680   1.166   5.930  0.3349  0.3249  0.1313
   50MOL   C25920937   7.820   1.146   5.941  0.0813  0.0022  0.1066
   50MOL   C26020938   0.033   1.161   5.811 -0.5851 -0.4202 -0.5858
   50MOL   C26120939   7.846   1.039   5.720 -0.3993 -0.4154  0.7666
   50MOL   C26220940   0.068   1.028   5.587  0.0026 -0.0710  0.2919
   50MOL   H26320941   7.305   1.163   5.857  0.1977  0.3965  1.3652
   50MOL   H26420942   7.474   1.133   5.802  0.9221 -0.2121  1.4821
   50MOL   H26520943   7.394   1.147   6.101 -0.7579 -1.8077 -1.3610
   50MOL   H26620944   7.832   1.051   5.993  0.2081 -0.8087 -1.3899
   50MOL   H26720945   7.851   1.220   6.016  0.0644  0.9864 -0.8517
   50MOL   H26820946   0.019   1.263   5.776  1.0827 -0.1120 -0.3767
   50MOL   H26920947   0.141   1.156   5.826 -0.6854 -2.5228 -0.3667
   50MOL   H27020948   7.745   1.073   5.695  0.6683  0.4981 -2.7094
   50MOL   H27120949   7.839   0.947   5.778 -1.2583 -0.6293  0.3436
   50MOL   H27220950   0.022   0.948   5.529 -1.0625 -0.6900  1.9606
   50MOL   H27320951   0.173   0.999   5.591  0.0654 -0.2086 -1.9305
   50MOL   H27420952   0.049   1.121   5.533 -1.5708  0.7544  2.2107
   50MOL   C27520953   7.440   1.331   5.997 -0.5531 -0.6929  0.1826
   50MOL   C27620954   7.489   1.416   6.123 -0.3775 -0.3053  0.5348
   50MOL   C27720955   7.465   1.561   6.088  0.2272  0.0066  0.1665
   50MOL   O27820956   7.565   1.631   6.055  0.3954  0.3445 -0.2955
   50MOL   O27920957   7.338   1.597   6.105 -0.1334 -0.9804 -0.1430
   50MOL   C28020958   7.308   1.730   6.088  0.0217  0.6031  0.7496
   50MOL   C28120959   7.159   1.750   6.119 -0.3154 -0.5602  0.3597
   50MOL   C28220960   7.123   1.753   6.269 -0.4110 -0.0676  0.4180
   50MOL   C28320961   6.971   1.756   6.290 -0.2694 -0.1788 -0.6196
   50MOL   H28420962   7.337   1.361   5.975 -0.7338 -0.5272  1.2565
   50MOL   H28520963   7.490   1.373   5.910  0.4482 -3.0618 -0.4189
   50MOL   H28620964   7.598   1.417   6.123 -0.3579  1.5193  2.4665
   50MOL   H28720965   7.332   1.754   5.985  3.8055  0.0574  1.4327
   50MOL   H28820966   7.379   1.793   6.142 -0.7844  2.9255 -0.8190
   50MOL   H28920967   7.138   1.851   6.083 -0.6518  0.2014  2.5852
   50MOL   H29020968   7.095   1.679   6.068 -1.5544  0.7298  0.0928
   50MOL   H29120969   7.168   1.845   6.307  3.4620 -0.8919 -1.9093
   50MOL   H29220970   7.157   1.670   6.331 -1.7170  0.7842  2.3225
   50MOL   H29320971   6.922   1.670   6.246 -2.5701  0.2891  0.8934
   50MOL   H29420972   6.926   1.842   6.239 -0.4039 -0.2365 -0.5991
   50MOL   H29520973   6.934   1.760   6.393  0.9449 -0.4636 -0.1636
   50MOL   C29620974   7.443   1.371   6.261  0.2396 -0.3552 -0.4344
   50MOL   C29720975   7.536   1.406   6.379  0.1987 -0.3804  0.5917
   50MOL   C29820976   7.500   1.544   6.429  0.3551  0.1337 -0.1410
   50MOL   O29920977   7.385   1.578   6.448  0.2545 -0.6691  0.0195
   50MOL   O30020978   7.613   1.614   6.446 -0.4021  0.2562  0.1850
   50MOL   C30120979   7.593   1.745   6.504 -0.2209 -0.0620  0.1479
   50MOL   C30220980   7.573   1.841   6.384  0.6225 -0.1826  0.6951
   50MOL   C30320981   7.690   1.838   6.286  0.0603  0.2316  0.3275
   50MOL   C30420982   7.665   1.929   6.163  0.0397  0.5042  0.5442
   50MOL   H30520983   7.426   1.264   6.272  0.9861 -0.2168  2.3678
   50MOL   H30620984   7.340   1.408   6.261  0.5067  0.4125 -0.3904
   50MOL   H30720985   7.637   1.397   6.338 -0.2747  1.1856 -1.0222
   50MOL   H30820986   7.688   1.764   6.555 -0.3078 -1.6282  0.9432
   50MOL   H30920987   7.513   1.746   6.578 -0.0502  2.4905  0.3330
   50MOL   H31020988   7.473   1.835   6.341  1.6824 -0.1727 -1.8080
   50MOL   H31120989   7.583   1.944   6.418 -1.4103  0.2929 -0.0613
   50MOL   H31220990   7.707   1.741   6.238  1.6234  1.0188 -0.7498
   50MOL   H31320991   7.784   1.862   6.334  0.5436  0.2749 -0.6365
   50MOL   H31420992   7.574   1.906   6.108  1.0794 -2.6802  0.0424
   50MOL   H31520993   7.751   1.927   6.096 -1.3323  0.4842 -1.2498
   50MOL   H31620994   7.658   2.034   6.192  1.3161  1.3656 -2.1479
   50MOL   C31720995   7.530   1.288   6.484  0.4661 -0.2610  0.1283
   50MOL   C31820996   7.602   1.303   6.617 -0.1686 -0.4129 -0.2148
   50MOL   C31920997   7.574   1.183   6.710  0.1481  0.3599 -0.5428
   50MOL   O32020998   7.514   1.203   6.817 -1.0378 -0.1898 -0.3366
   50MOL   O32120999   7.621   1.063   6.671  0.1993 -0.2770  0.3284
   50MOL   C32221000   7.601   0.950   6.749  0.2804 -0.5489  0.2788
   50MOL   C32321001   7.590   0.835   6.648  0.0691 -0.2733 -0.3728
   50MOL   C32421002   7.599   0.698   6.724  0.0567  0.3524 -0.7401
   50MOL   C32521003   7.579   0.576   6.626 -0.3974 -0.2191  0.1079
   50MOL   H32621004   7.565   1.203   6.426 -1.5877 -0.6416 -0.6075
   50MOL   H32721005   7.426   1.267   6.507  0.3375 -0.7811 -0.9250
   50MOL   H32821006   7.549   1.379   6.674 -0.3455 -0.0346 -0.8736
   50MOL   H32921007   7.517   0.947   6.818  1.8318  3.7042  2.5429
   50MOL   H33021008   7.687   0.940   6.815 -0.3435  0.1586  1.2103
   50MOL   H33121009   7.495   0.843   6.595 -0.7501  0.6673  1.2047
   50MOL   H33221010   7.668   0.840   6.572 -0.0619  0.7206 -0.4412
   50MOL   H33321011   7.519   0.704   6.797  2.2068  2.2851  1.5392
   50MOL   H33421012   7.691   0.676   6.778 -0.5511 -2.2049 -0.6822
   50MOL   H33521013   7.661   0.560   6.556 -0.1280 -3.3878  1.0700
   50MOL   H33621014   7.493   0.593   6.562  0.7582  2.5285 -0.7635
   50MOL   H33721015   7.572   0.478   6.674 -1.4831  0.6438  1.7356
   50MOL   C33821016   7.757   1.339   6.603 -0.4030 -0.1771  0.0523
   50MOL   C33921017   7.827   1.372   6.731 -0.3383 -0.1449  0.4864
   50MOL   C34021018   0.020   1.246   6.807 -1.1331 -0.0070 -0.4282
   50MOL   O34121019   7.834   1.239   6.924 -0.2912 -0.3874  0.2332
   50MOL   O34221020   0.100   1.162   6.737  0.4161 -0.4059  0.2189
   50MOL   C34321021   0.175   1.059   6.803 -0.2250 -0.2120 -0.6082
   50MOL   C34421022   0.172   0.943   6.696 -0.5038  0.1257  0.2739
   50MOL   C34521023   0.268   0.830   6.739  0.1972 -0.0844 -0.0235
   50MOL   C34621024   0.238   0.757   6.870  0.6303 -0.0966 -0.6152
   50MOL   H34721025   7.750   1.432   6.546 -2.6765 -2.0561 -2.8806
   50MOL   H34821026   7.817   1.266   6.549  0.8836  1.5306 -0.9077
   50MOL   H34921027   7.753   1.419   6.797  0.4662 -0.2338  1.4632
   50MOL   H35021028   0.142   1.040   6.905  0.7168  1.1023 -0.0409
   50MOL   H35121029   0.278   1.095   6.811 -0.4787  0.5740 -0.8422
   50MOL   H35221030   0.068   0.922   6.676 -0.1994  1.3442 -2.7460
   50MOL   H35321031   0.200   0.977   6.597  1.6986 -3.3449 -0.4030
   50MOL   H35421032   0.367   0.876   6.744  0.6221 -0.8994 -0.8046
   50MOL   H35521033   0.273   0.758   6.658 -0.5916  0.7224 -0.8089
   50MOL   H35621034   0.320   0.692   6.901 -0.8495 -2.1693 -0.8948
   50MOL   H35721035   0.152   0.690   6.875  0.6944 -0.0759  1.3524
   50MOL   H35821036   0.239   0.835   6.946 -0.5394 -0.9641  0.3161
   50MOL   C35921037   0.095   1.473   6.716 -0.1919  0.5710 -0.0397
   50MOL   C36021038   0.170   1.530   6.840 -0.1378  0.4558 -0.7443
   50MOL   C36121039   0.295   1.455   6.880  0.8062 -0.2017  0.4313
   50MOL   O36221040   0.341   1.359   6.821 -0.1507 -0.1143 -0.0097
   50MOL   O36321041   0.348   1.495   7.001  0.3242  0.4536 -0.4842
   50MOL   C36421042   0.462   1.437   7.055  0.4122  0.4761 -0.1897
   50MOL   C36521043   0.498   1.524   7.179  0.4742 -0.1370 -0.3169
   50MOL   C36621044   0.563   1.656   7.151 -0.5916  0.7013 -0.2657
   50MOL   C36721045   0.560   1.756   7.267 -0.0203  0.2577 -1.0221
   50MOL   H36821046   0.047   1.563   6.679  1.6266  1.7870  0.4641
   50MOL   H36921047   0.161   1.447   6.633 -0.0861 -0.0543  0.2379
   50MOL   H37021048   0.110   1.517   6.931  0.9542  2.5695  0.3197
   50MOL   H37121049   0.550   1.436   6.990 -0.8278 -1.2449 -1.9282
   50MOL   H37221050   0.450   1.335   7.092  2.7429  0.1347 -0.2896
   50MOL   H37321051   0.404   1.535   7.233  1.0761 -0.6780  0.8601
   50MOL   H37421052   0.570   1.461   7.231 -0.7218  0.5747  2.3001
   50MOL   H37521053   0.509   1.699   7.066  0.9406  1.4298 -0.9086
   50MOL   H37621054   0.659   1.632   7.105 -1.5809 -1.8233 -1.0813
   50MOL   H37721055   0.456   1.772   7.295 -0.5990 -1.0525 -2.4109
   50MOL   H37821056   0.592   1.859   7.249 -1.0133  0.8227  0.3776
   50MOL   H37921057   0.622   1.725   7.351 -1.1398  2.0071  0.4807
   50MOL   C38021058   0.207   1.682   6.816 -0.7572  0.2453  0.3727
   50MOL   C38121059   0.102   1.785   6.788 -0.3500 -0.9608 -0.5651
   50MOL   C38221060   7.845   1.770   6.887  0.7312 -0.4713  0.3987
   50MOL   O38321061   7.724   1.751   6.855  0.3418 -0.1995 -0.1925
   50MOL   O38421062   0.038   1.774   7.017  0.4091 -0.2208 -0.5795
   50MOL   C38521063   7.804   1.747   7.125  0.1859 -0.0779 -0.7050
   50MOL   C38621064   7.808   1.595   7.154  0.4968  0.1366  0.0254
   50MOL   C38721065   0.089   1.564   7.221  0.3735  1.0406  0.5214
   50MOL   C38821066   0.096   1.409   7.251 -0.7070  0.5775  0.5360
   50MOL   H38921067   0.254   1.672   6.718  0.6710  0.0250  1.0763
   50MOL   H39021068   0.281   1.719   6.886  1.0963 -1.0586 -0.8355
   50MOL   H39121069   0.062   1.776   6.687 -0.7115  0.0101 -0.5091
   50MOL   H39221070   7.699   1.764   7.101 -0.7225 -1.1699  2.1927
   50MOL   H39321071   7.825   1.811   7.211 -1.0524 -0.2018 -0.2995
   50MOL   H39421072   7.717   1.574   7.211  0.2062 -0.2662 -0.5842
   50MOL   H39521073   7.789   1.552   7.056 -1.7447  2.9088 -0.8318
   50MOL   H39621074   0.082   1.626   7.310  0.9185  2.3188 -0.3068
   50MOL   H39721075   0.170   1.602   7.159 -0.9858  1.8058 -0.8268
   50MOL   H39821076   0.088   1.354   7.158  1.7068  1.1295 -0.0533
   50MOL   H39921077   0.016   1.375   7.317 -0.3337  1.2486  1.3412
   50MOL   H40021078   0.195   1.393   7.295 -1.3212  0.1600  1.7824
   50MOL   C40121079   0.151   1.937   6.792 -0.4284 -0.1432 -0.7533
   50MOL   C40221080   0.061   2.064   6.763 -0.1848 -0.3342  0.1065
   50MOL   C40321081   0.013   2.076   6.625  0.9149 -0.6394 -0.0108
   50MOL   O40421082   0.013   1.983   6.546  0.1209 -0.0607 -0.2266
   50MOL   O40521083   7.809   2.197   6.601  0.4759  0.0441  0.0297
   50MOL   C40621084   7.738   2.229   6.481 -0.2464 -0.1557 -0.5326
   50MOL   C40721085   7.827   2.264   6.363 -0.7319 -0.0871 -0.4047
   50MOL   C40821086   0.054   2.398   6.375  0.3207 -0.6711 -0.5120
   50MOL   C40921087   0.184   2.397   6.295 -0.3362 -0.0996 -0.4641
   50MOL   H41021088   0.235   1.937   6.722 -0.5572 -1.7105 -0.9122
   50MOL   H41121089   0.206   1.962   6.883 -0.6907  0.1557 -0.6757
   50MOL   H41221090   0.126   2.149   6.784  0.2676 -0.0998 -2.0975
   50MOL   H41321091   7.661   2.304   6.492 -0.7279 -0.4079 -2.0267
   50MOL   H41421092   7.677   2.141   6.459 -2.0405  0.3675  2.1497
   50MOL   H41521093   0.041   2.178   6.355  0.6671  0.9541 -0.0171
   50MOL   H41621094   7.772   2.265   6.269  0.0755  0.2099 -0.8841
   50MOL   H41721095   0.079   2.408   6.481  1.6641  0.0156 -0.8926
   50MOL   H41821096   7.853   2.490   6.352 -0.7127 -0.8114  1.2684
   50MOL   H41921097   0.248   2.313   6.322  0.9779  1.0095 -0.1088
   50MOL   H42021098   0.234   2.488   6.326  0.5493 -0.2652 -1.3670
   50MOL   H42121099   0.167   2.390   6.187 -0.7900 -3.8851 -0.2175
   50MOL   H42221100   7.837   2.063   6.840 -0.6003  0.7634 -0.2867
   51MOL     C121101   4.281   2.315   2.831 -0.2552  0.2633 -0.4005
   51MOL     C221102   4.219   2.268   2.961  0.0582  0.5427 -0.4298
   51MOL     C321103   4.302   2.312   3.088 -0.0228  0.4115  0.3094
   51MOL     O421104   4.349   2.234   3.170 -0.0722 -0.6036 -0.5063
   51MOL     O521105   4.317   2.447   3.085 -0.5908 -0.0321  0.2570
   51MOL     C621106   4.384   2.519   3.190  0.4978 -0.7028 -0.6099
   51MOL     C721107   4.286   2.560   3.304 -0.0421  0.1705 -0.0224
   51MOL     C821108   4.275   2.458   3.414 -0.5156  0.2259  0.5168
   51MOL     C921109   4.217   2.511   3.546 -0.1748 -1.1645 -0.9229
   51MOL    H1021110   4.263   2.422   2.822  1.5656  0.5499 -0.8804
   51MOL    H1121111   4.390   2.310   2.836 -0.2824  1.7524  2.3223
   51MOL    H1221112   4.232   2.160   2.954 -0.6447  0.5005 -1.0254
   51MOL    H1321113   4.423   2.614   3.154 -0.8964  0.0527 -0.1844
   51MOL    H1421114   4.468   2.466   3.234  0.1217  1.3840  2.7347
   51MOL    H1521115   4.326   2.654   3.341  0.0760 -0.1589  0.6978
   51MOL    H1621116   4.186   2.584   3.267  0.3666 -0.4139 -1.5430
   51MOL    H1721117   4.369   2.413   3.447 -0.0243  0.4381 -0.5714
   51MOL    H1821118   4.211   2.374   3.384  0.1325  0.3618 -1.3050
   51MOL    H1921119   4.267   2.603   3.575 -2.4557  0.3205 -1.6108
   51MOL    H2021120   4.233   2.447   3.633 -3.6709 -1.7891 -0.6323
   51MOL    H2121121   4.110   2.531   3.542  0.4901  2.3871 -2.7042
   51MOL    H2221122   4.240   2.266   2.743 -0.9095  1.0766 -0.5510
   51MOL    C2321123   4.066   2.302   2.974  0.5200  0.1941  0.5205
   51MOL    C2421124   3.984   2.255   3.100  0.1896 -0.3673 -0.1554
   51MOL    C2521125   3.845   2.323   3.097  0.2187  0.1491  0.2105
   51MOL    O2621126   3.798   2.391   3.190 -0.2793 -0.3234  0.3322
   51MOL    O2721127   3.779   2.302   2.987  0.2770 -0.3121  0.2888
   51MOL    C2821128   3.644   2.340   2.970 -0.1069 -0.6392 -0.0588
   51MOL    C2921129   3.555   2.223   3.010  0.4613 -0.5151  0.1168
   51MOL    C3021130   3.410   2.269   2.998  0.0058  1.3900 -0.9267
   51MOL    C3121131   3.317   2.148   3.025  0.5456  0.2975 -0.0740
   51MOL    H3221132   4.016   2.261   2.887 -0.7906  1.6877  0.5474
   51MOL    H3321133   4.061   2.410   2.972 -1.2300  0.2099  3.0174
   51MOL    H3421134   4.036   2.291   3.189 -0.8273 -1.2939  0.8209
   51MOL    H3521135   3.630   2.355   2.863 -1.2872 -0.8777  0.0494
   51MOL    H3621136   3.618   2.434   3.019  0.1612  0.1669 -1.4297
   51MOL    H3721137   3.573   2.139   2.943 -0.3914  0.1680 -0.9881
   51MOL    H3821138   3.577   2.181   3.108  2.1911  0.2126  0.0542
   51MOL    H3921139   3.397   2.304   2.895  1.5129 -1.2463 -2.0874
   51MOL    H4021140   3.379   2.348   3.066 -1.1948 -1.5494  2.0776
   51MOL    H4121141   3.358   2.047   3.013 -0.2658 -0.2022  1.2257
   51MOL    H4221142   3.225   2.167   2.970  0.2650  1.7660  0.8778
   51MOL    H4321143   3.293   2.163   3.130  0.5966  0.5461 -0.0993
   51MOL    C4421144   3.969   2.099   3.099  0.0753  0.1110  0.0430
   51MOL    C4521145   3.940   2.054   3.246  0.7020 -0.4591  0.4840
   51MOL    C4621146   3.876   1.913   3.252  0.4936  0.1470 -0.2546
   51MOL    O4721147   3.915   1.821   3.325  0.4159 -0.3755 -0.4656
   51MOL    O4821148   3.761   1.910   3.176 -0.4280  0.1881 -0.6864
   51MOL    C4921149   3.679   1.795   3.170 -0.6672 -0.4442  0.3743
   51MOL    C5021150   3.563   1.814   3.072  1.2699 -0.1615 -0.0784
   51MOL    C5121151   3.507   1.682   3.025  0.4477  0.3709  0.1360
   51MOL    C5221152   3.401   1.709   2.928 -0.8370  0.0947 -0.5659
   51MOL    H5321153   4.059   2.048   3.064 -2.1624 -1.7718 -3.2118
   51MOL    H5421154   3.886   2.077   3.031 -0.8348  0.8288  0.9116
   51MOL    H5521155   3.856   2.119   3.271  1.4541  0.7530 -0.0745
   51MOL    H5621156   3.638   1.752   3.262  0.6009 -1.6788  0.3752
   51MOL    H5721157   3.739   1.713   3.133 -0.5783 -1.1658  2.0495
   51MOL    H5821158   3.491   1.887   3.107 -0.0875 -2.9604  3.3246
   51MOL    H5921159   3.607   1.867   2.988  0.9685  0.4713  0.1650
   51MOL    H6021160   3.466   1.625   3.109 -3.0420 -0.5854 -2.1133
   51MOL    H6121161   3.586   1.623   2.978  0.0127  0.8870 -1.2551
   51MOL    H6221162   3.437   1.782   2.855 -1.7806  1.0522 -0.0889
   51MOL    H6321163   3.312   1.753   2.972  0.1822  0.1645  1.4970
   51MOL    H6421164   3.371   1.620   2.873  0.0516 -0.3868 -0.2958
   51MOL    C6521165   4.052   2.078   3.354  0.0624  0.3176  0.2067
   51MOL    C6621166   4.005   2.082   3.495 -0.2189 -0.7735  1.5769
   51MOL    C6721167   4.132   2.090   3.588  0.5770 -0.5980  0.0153
   51MOL    O6821168   4.237   2.147   3.558 -0.3478  0.4265 -0.6520
   51MOL    O6921169   4.101   2.036   3.713  0.3305  0.6141  0.4354
   51MOL    C7021170   4.204   2.044   3.814 -0.0231 -0.7598  0.2080
   51MOL    C7121171   4.163   2.147   3.922 -0.2349  0.8536  0.0794
   51MOL    C7221172   4.018   2.129   3.968  0.3640 -0.0143 -1.1102
   51MOL    C7321173   3.982   2.206   4.100 -0.2141  1.3668  0.2499
   51MOL    H7421174   4.103   2.174   3.347 -0.4139  0.5152 -0.7043
   51MOL    H7521175   4.132   2.006   3.338 -1.2199 -1.6871  2.4697
   51MOL    H7621176   3.967   1.982   3.515 -0.8880 -1.1397 -1.2689
   51MOL    H7721177   4.304   2.062   3.773 -0.9065  0.9428 -1.3145
   51MOL    H7821178   4.205   1.947   3.863  0.0158 -2.2875 -2.6623
   51MOL    H7921179   4.227   2.124   4.007 -0.6263 -1.2480 -0.1609
   51MOL    H8021180   4.185   2.246   3.883  3.6790 -0.7153 -2.0364
   51MOL    H8121181   3.992   2.024   3.975 -0.6901  0.2207 -1.3328
   51MOL    H8221182   3.956   2.155   3.882 -0.5742 -1.8013 -0.9851
   51MOL    H8321183   3.882   2.201   4.144 -0.5961  0.3042 -0.7155
   51MOL    H8421184   3.982   2.315   4.089  3.0306  1.3804 -0.0048
   51MOL    H8521185   4.046   2.180   4.184  1.2391 -0.2994 -1.3417
   51MOL    C8621186   3.896   2.189   3.512 -0.3459  0.4994  0.2022
   51MOL    C8721187   3.760   2.128   3.544  0.4215  0.0764  0.1839
   51MOL    C8821188   3.755   2.104   3.692  0.7660 -0.8552  0.7702
   51MOL    O8921189   3.806   2.004   3.733 -0.3588  0.0027 -0.1103
   51MOL    O9021190   3.697   2.199   3.765  0.0335  0.2164  0.2587
   51MOL    C9121191   3.677   2.175   3.903 -0.4901  0.6248 -0.1416
   51MOL    C9221192   3.534   2.136   3.915  0.1371  0.1660 -0.0480
   51MOL    C9321193   3.431   2.264   3.897 -0.5916 -0.3806 -0.3771
   51MOL    C9421194   3.291   2.210   3.893  0.3172  0.1653  0.2241
   51MOL    H9521195   3.897   2.258   3.427  0.7555 -1.0976 -1.1018
   51MOL    H9621196   3.911   2.265   3.589 -0.9729  0.8259  0.0061
   51MOL    H9721197   3.748   2.030   3.498  0.0702  1.0233 -1.8377
   51MOL    H9821198   3.695   2.263   3.964  0.9590 -0.2006  0.6343
   51MOL    H9921199   3.738   2.092   3.939 -1.1198  0.0610 -0.3583
   51MOL   H10021200   3.500   2.056   3.850 -0.8097  2.6941 -2.7514
   51MOL   H10121201   3.518   2.095   4.015  3.4485  0.5522  0.6967
   51MOL   H10221202   3.451   2.316   3.803  0.0858  0.1804  0.0778
   51MOL   H10321203   3.438   2.334   3.980 -3.3727 -0.0143 -0.3864
   51MOL   H10421204   3.222   2.294   3.902 -0.9397 -0.6972 -0.9317
   51MOL   H10521205   3.278   2.148   3.982 -0.4726  1.7379  1.2157
   51MOL   H10621206   3.274   2.152   3.802  1.7257 -1.4886  0.9958
   51MOL   C10721207   3.642   2.213   3.487  0.0894  0.2807 -0.4711
   51MOL   C10821208   3.507   2.150   3.494 -0.0231 -0.0196  0.4505
   51MOL   C10921209   3.399   2.252   3.493  0.6019 -0.3002 -0.5186
   51MOL   O11021210   3.325   2.264   3.590 -0.1396  0.3825  0.4921
   51MOL   O11121211   3.393   2.313   3.382 -0.2498  0.6712  0.2289
   51MOL   C11221212   3.279   2.389   3.348 -0.4649  0.4523  0.1877
   51MOL   C11321213   3.313   2.538   3.353  0.1541  0.7936 -0.1100
   51MOL   C11421214   3.412   2.576   3.250 -1.2453  0.4663  0.4580
   51MOL   C11521215   3.438   2.730   3.260  0.2327  0.8468 -0.3825
   51MOL   H11621216   3.663   2.242   3.384  3.8690  0.6310  0.3220
   51MOL   H11721217   3.643   2.315   3.526 -0.7000 -0.3717  1.3162
   51MOL   H11821218   3.495   2.113   3.597  1.8712 -0.0188  0.6824
   51MOL   H11921219   3.199   2.360   3.417 -1.2709  2.5101  0.1472
   51MOL   H12021220   3.239   2.372   3.248 -1.2385  1.7062  0.2701
   51MOL   H12121221   3.223   2.599   3.348 -0.6792 -0.4072  0.1999
   51MOL   H12221222   3.359   2.564   3.449 -0.5971 -3.2088  1.4329
   51MOL   H12321223   3.371   2.548   3.153 -0.7701 -1.8929  0.9072
   51MOL   H12421224   3.508   2.528   3.272 -0.4042  2.0718  0.3614
   51MOL   H12521225   3.491   2.766   3.172  3.2288  2.3209  1.9549
   51MOL   H12621226   3.481   2.752   3.358 -1.4808  1.7476  0.1981
   51MOL   H12721227   3.343   2.784   3.266 -0.9602 -1.2457  0.0215
   51MOL   C12821228   3.494   2.035   3.388 -0.2506 -0.2566  0.4260
   51MOL   C12921229   3.428   1.901   3.435  0.3149  0.0458  0.1376
   51MOL   C13021230   3.509   1.830   3.544  0.2568  0.2384 -0.1915
   51MOL   O13121231   3.473   1.826   3.662 -0.1310  0.0979  0.2126
   51MOL   O13221232   3.627   1.773   3.501 -0.0930  0.3027  0.6146
   51MOL   C13321233   3.701   1.692   3.587  0.3496 -0.4498  0.5846
   51MOL   C13421234   3.647   1.557   3.564 -0.0482  1.0052 -0.3677
   51MOL   C13521235   3.715   1.446   3.652  0.6433  0.2138 -0.1183
   51MOL   C13621236   3.657   1.448   3.793  0.0040 -0.3621 -0.4740
   51MOL   H13721237   3.587   2.028   3.330 -0.2211 -3.1257  0.7516
   51MOL   H13821238   3.433   2.075   3.307  0.5319 -0.4026 -0.2486
   51MOL   H13921239   3.429   1.836   3.347  0.0168 -0.7079  0.6822
   51MOL   H14021240   3.697   1.730   3.689  3.3154  0.5557  0.3816
   51MOL   H14121241   3.807   1.692   3.562 -0.2109 -1.1335 -1.9086
   51MOL   H14221242   3.543   1.558   3.596  0.6953 -0.2423  2.2887
   51MOL   H14321243   3.657   1.525   3.460  1.6137  2.1193 -0.5709
   51MOL   H14421244   3.819   1.476   3.664  0.6238  0.2093  0.0600
   51MOL   H14521245   3.709   1.344   3.612  1.9227  0.0797  0.0098
   51MOL   H14621246   3.569   1.384   3.797  0.4665 -1.0859 -1.7475
   51MOL   H14721247   3.627   1.548   3.823  1.1425 -0.1444  0.0031
   51MOL   H14821248   3.731   1.409   3.863  1.3006  3.4130  0.3829
   51MOL   C14921249   3.275   1.923   3.482 -0.1099  0.1196 -0.1169
   51MOL   C15021250   3.182   1.959   3.366 -1.1751 -0.7188 -0.8753
   51MOL   C15121251   3.171   1.842   3.268 -0.6635  0.4130 -0.1620
   51MOL   O15221252   3.164   1.863   3.147 -0.0558  0.1831 -0.5981
   51MOL   O15321253   3.177   1.718   3.325 -0.5552 -0.0453 -0.1137
   51MOL   C15421254   3.155   1.599   3.246  0.5796 -0.1951  0.1488
   51MOL   C15521255   3.184   1.481   3.346  0.3221 -0.4203  0.5008
   51MOL   C15621256   3.338   1.472   3.377  0.0467 -0.0516  1.4670
   51MOL   C15721257   3.378   1.346   3.444 -0.7597 -0.2655  0.5248
   51MOL   H15821258   3.267   1.988   3.569  0.9523 -1.7384  1.4165
   51MOL   H15921259   3.246   1.824   3.516  1.6013 -0.5862 -0.6520
   51MOL   H16021260   3.219   2.048   3.315 -2.3890  0.8458  0.9211
   51MOL   H16121261   3.219   1.603   3.157  2.0235 -1.6430  1.0925
   51MOL   H16221262   3.051   1.592   3.214  0.6089  0.7715 -0.1898
   51MOL   H16321263   3.128   1.499   3.438  1.4885 -0.6619  1.2829
   51MOL   H16421264   3.151   1.387   3.302 -0.2180  0.4992 -1.0767
   51MOL   H16521265   3.379   1.560   3.426 -0.4183  0.9075  0.1590
   51MOL   H16621266   3.389   1.468   3.280 -4.5745 -1.9027 -1.0757
   51MOL   H16721267   3.333   1.262   3.391 -2.3571 -0.3666  1.9962
   51MOL   H16821268   3.353   1.335   3.550  1.0974 -0.0573  1.0104
   51MOL   H16921269   3.487   1.340   3.437 -0.9115 -4.2578  0.4434
   51MOL   C17021270   3.046   2.006   3.425 -0.3496 -0.0244  0.4479
   51MOL   C17121271   2.927   2.049   3.337 -0.2811 -0.3696  1.0418
   51MOL   C17221272   2.794   2.048   3.411 -0.5668 -0.0029 -0.4082
   51MOL   O17321273   2.693   2.010   3.363 -0.0053 -0.0744  0.8603
   51MOL   O17421274   2.804   2.094   3.528  0.1434  0.6369  0.1170
   51MOL   C17521275   2.685   2.118   3.615  0.1888 -0.0069 -0.5872
   51MOL   C17621276   2.738   2.108   3.758  0.1611 -0.2626  0.3162
   51MOL   C17721277   2.825   2.230   3.812  0.3493  0.4191  0.2228
   51MOL   C17821278   2.882   2.221   3.952 -0.3463 -0.9601 -0.0554
   51MOL   H17921279   3.065   2.101   3.476 -0.5566 -0.8050  1.9993
   51MOL   H18021280   3.010   1.943   3.507 -2.2664 -0.7798 -0.9588
   51MOL   H18121281   2.920   1.979   3.254 -0.2123  0.6681  0.1595
   51MOL   H18221282   2.613   2.036   3.603 -0.7887  0.4008  2.1019
   51MOL   H18321283   2.640   2.216   3.602 -0.9174 -0.3189  0.8044
   51MOL   H18421284   2.656   2.092   3.828 -0.8324  0.3353 -0.6844
   51MOL   H18521285   2.789   2.014   3.781 -2.5580 -1.4390  1.7113
   51MOL   H18621286   2.754   2.312   3.805 -1.8824 -1.3071  1.6750
   51MOL   H18721287   2.913   2.251   3.751  0.2826 -0.1891 -0.0891
   51MOL   H18821288   2.940   2.312   3.961  0.4766 -1.5445  0.6357
   51MOL   H18921289   2.948   2.137   3.975 -1.3888 -2.1488 -1.2763
   51MOL   H19021290   2.813   2.225   4.036 -1.9943  1.4457 -1.4584
   51MOL   C19121291   2.959   2.195   3.285 -0.2747 -0.8722 -0.0678
   51MOL   C19221292   2.893   2.249   3.151  0.2077  0.0117  0.3878
   51MOL   C19321293   2.906   2.158   3.030  0.8397  0.1485  0.5012
   51MOL   O19421294   2.975   2.175   2.934  0.0426 -0.0373 -0.3099
   51MOL   O19521295   2.820   2.052   3.043 -0.4800  0.0256 -0.3651
   51MOL   C19621296   2.819   1.957   2.946  0.1460 -0.4335  0.0341
   51MOL   C19721297   2.907   1.831   2.975  0.0864  0.3634  0.2764
   51MOL   C19821298   2.875   1.703   2.897 -0.2428  0.5940 -0.1356
   51MOL   C19921299   2.975   1.593   2.938  0.3341 -0.3663 -0.5980
   51MOL   H20021300   3.068   2.201   3.283 -0.3304  0.0612 -2.1428
   51MOL   H20121301   2.937   2.262   3.368  3.3251  0.2674  0.0524
   51MOL   H20221302   2.957   2.335   3.127  2.3485 -1.6037  0.1044
   51MOL   H20321303   2.840   1.982   2.841 -2.2000 -3.4930 -1.2155
   51MOL   H20421304   2.716   1.921   2.944 -0.1881  0.4004  1.5526
   51MOL   H20521305   3.013   1.853   2.962 -0.0286  1.2461  0.8097
   51MOL   H20621306   2.895   1.804   3.080  0.0515  1.6411  0.6025
   51MOL   H20721307   2.889   1.721   2.790 -1.9279 -0.2259 -0.5027
   51MOL   H20821308   2.774   1.665   2.910 -0.2431  0.6429 -0.0016
   51MOL   H20921309   2.945   1.563   3.038  0.9236  1.5335  0.1689
   51MOL   H21021310   3.079   1.623   2.948  0.6291 -1.4823 -0.2457
   51MOL   H21121311   2.963   1.506   2.873  1.3738  1.0890 -2.8350
   51MOL   C21221312   2.750   2.304   3.165 -0.0569  0.0916 -0.9619
   51MOL   C21321313   2.717   2.445   3.106  0.5141  0.1499  0.3876
   51MOL   C21421314   2.632   2.434   2.970 -0.8643  0.0494 -0.0082
   51MOL   O21521315   2.546   2.517   2.935  0.2698 -0.2021  0.5527
   51MOL   O21621316   2.673   2.330   2.894  0.1693  0.1843 -0.0863
   51MOL   C21721317   2.600   2.315   2.769  0.1714 -0.3004 -0.4689
   51MOL   C21821318   2.617   2.175   2.705 -0.0394  0.2468  0.3619
   51MOL   C21921319   2.532   2.079   2.785 -0.4883  0.1739  0.0006
   51MOL   C22021320   2.544   1.945   2.708 -0.3094  0.7278  0.1815
   51MOL   H22121321   2.725   2.307   3.271  1.8829  0.3343 -0.5023
   51MOL   H22221322   2.680   2.231   3.124 -0.2590 -1.0396  1.3177
   51MOL   H22321323   2.806   2.501   3.079 -0.6267  0.3512 -3.2796
   51MOL   H22421324   2.637   2.392   2.701 -0.3911  0.4882  0.1134
   51MOL   H22521325   2.494   2.316   2.796  0.4992  0.6328  0.8305
   51MOL   H22621326   2.587   2.187   2.601 -1.7202  2.4539  1.0648
   51MOL   H22721327   2.724   2.157   2.693  0.1119 -0.1201  2.1201
   51MOL   H22821328   2.425   2.101   2.785 -0.6298 -0.4981  0.6395
   51MOL   H22921329   2.566   2.076   2.888  1.1342 -2.3683 -0.5687
   51MOL   H23021330   2.466   1.942   2.631  1.2487 -0.2823 -1.3862
   51MOL   H23121331   2.526   1.859   2.772  0.8414  2.2633  2.6390
   51MOL   H23221332   2.646   1.933   2.674 -0.9897  0.2358 -1.7377
   51MOL   C23321333   2.632   2.523   3.216  0.0603  0.2974 -0.0170
   51MOL   C23421334   2.709   2.558   3.341  0.4082  0.2797 -0.7645
   51MOL   C23521335   2.842   2.625   3.314 -0.5603 -0.3369  0.2055
   51MOL   O23621336   2.941   2.574   3.366 -0.1728  0.0917 -0.4345
   51MOL   O23721337   2.832   2.729   3.228 -0.0213 -0.2627 -0.4267
   51MOL   C23821338   2.954   2.799   3.194  0.0754 -0.2652  0.7005
   51MOL   C23921339   2.943   2.941   3.231  0.0480  0.0425 -0.1251
   51MOL   C24021340   3.045   3.026   3.157 -0.1170 -0.5391 -0.5569
   51MOL   C24121341   3.037   3.175   3.186 -0.3837 -0.3655 -0.0525
   51MOL   H24221342   2.548   2.459   3.244 -0.5471  1.0193 -0.1667
   51MOL   H24321343   2.597   2.608   3.157  0.2556 -0.4192 -1.1708
   51MOL   H24421344   2.734   2.466   3.394  0.4118  0.8254  0.1973
   51MOL   H24521345   2.975   2.797   3.087 -2.3549 -2.1006  0.2143
   51MOL   H24621346   3.039   2.751   3.241  1.0138 -0.7651 -1.4389
   51MOL   H24721347   2.845   2.981   3.206  0.4594 -0.3498 -2.4799
   51MOL   H24821348   2.960   2.956   3.337  0.2707 -1.2247  0.0221
   51MOL   H24921349   3.037   3.005   3.050 -1.6424  0.7527 -0.7074
   51MOL   H25021350   3.139   2.983   3.193 -1.3491 -2.2651  0.7064
   51MOL   H25121351   3.089   3.228   3.106  0.2626  0.4041  0.8741
   51MOL   H25221352   3.072   3.195   3.287 -1.8373 -0.4623  0.4809
   51MOL   H25321353   2.933   3.206   3.184  0.8863  4.3547  1.4073
   51MOL   C25421354   2.614   2.626   3.441 -0.1495  0.0402  0.5337
   51MOL   C25521355   2.573   2.772   3.420 -0.5018  0.2480  0.0951
   51MOL   C25621356   2.460   2.784   3.317  0.5506 -0.7416  0.2368
   51MOL   O25721357   2.479   2.815   3.198 -0.3545 -0.1345 -0.1926
   51MOL   O25821358   2.346   2.756   3.377 -0.8843 -0.1080 -0.4516
   51MOL   C25921359   2.222   2.783   3.303 -0.2325  0.0910  0.1592
   51MOL   C26021360   2.190   2.928   3.260  0.0769 -0.6419 -0.6651
   51MOL   C26121361   2.188   3.022   3.382  1.0189  0.5761 -0.3887
   51MOL   C26221362   2.157   3.166   3.342 -0.5756  0.8738  0.0566
   51MOL   H26321363   2.655   2.618   3.541  2.4503  1.0309 -0.4298
   51MOL   H26421364   2.520   2.572   3.455 -0.1541 -0.0724  0.0906
   51MOL   H26521365   2.652   2.840   3.387  1.2154 -1.2311  1.0346
   51MOL   H26621366   2.137   2.736   3.353  1.2388 -2.2864  0.4933
   51MOL   H26721367   2.223   2.723   3.212  1.9679 -0.1889  0.3517
   51MOL   H26821368   2.270   2.970   3.199  0.9227  0.4224  1.1425
   51MOL   H26921369   2.099   2.929   3.200  0.3026 -0.9058 -1.0110
   51MOL   H27021370   2.290   3.023   3.421  0.4440  0.5475  1.1639
   51MOL   H27121371   2.124   2.989   3.464  1.0752  0.4080 -0.4115
   51MOL   H27221372   2.050   3.178   3.325 -0.8670 -1.2280  0.3036
   51MOL   H27321373   2.214   3.198   3.254 -1.8106 -1.2616 -1.5685
   51MOL   H27421374   2.168   3.234   3.427 -2.7114  0.3913  0.7364
   51MOL   C27521375   2.528   2.834   3.556  0.6774 -0.6472 -0.4493
   51MOL   C27621376   2.645   2.866   3.664  0.6129 -0.6599 -0.5102
   51MOL   C27721377   2.755   2.957   3.603  0.4706  0.4222 -0.4242
   51MOL   O27821378   2.876   2.941   3.613 -0.2394  0.6040  0.1459
   51MOL   O27921379   2.694   3.058   3.542  0.1708 -0.4174  0.8286
   51MOL   C28021380   2.757   3.157   3.461 -0.6717 -0.4340  0.0159
   51MOL   C28121381   2.656   3.238   3.375  0.1646 -0.3608 -0.4065
   51MOL   C28221382   2.564   3.150   3.295  0.0289 -0.4195  0.0575
   51MOL   C28321383   2.473   3.239   3.211 -0.4709  0.0651 -0.1602
   51MOL   H28421384   2.447   2.777   3.602 -0.7296 -0.7814 -2.9751
   51MOL   H28521385   2.485   2.933   3.540  1.5784 -0.6449 -2.9569
   51MOL   H28621386   2.700   2.773   3.676 -0.1321 -1.0311  0.0683
   51MOL   H28721387   2.825   3.111   3.390 -2.0464 -0.0599 -1.5673
   51MOL   H28821388   2.815   3.233   3.513  0.6670 -0.8870 -0.7974
   51MOL   H28921389   2.593   3.289   3.449 -1.1168 -1.9437 -0.3742
   51MOL   H29021390   2.703   3.319   3.319 -0.3903  0.5276  0.3709
   51MOL   H29121391   2.514   3.078   3.361  0.6914  0.0719  1.1150
   51MOL   H29221392   2.640   3.095   3.239 -0.9142 -2.8250  1.0607
   51MOL   H29321393   2.417   3.305   3.277  2.0871  1.0303  1.1139
   51MOL   H29421394   2.394   3.185   3.158 -1.9413  1.6616  0.3507
   51MOL   H29521395   2.537   3.288   3.138  1.8243  0.3372  1.9901
   51MOL   C29621396   2.585   2.912   3.799 -0.5930  0.1855  0.2314
   51MOL   C29721397   2.494   2.810   3.876  0.7824  0.1970  0.2927
   51MOL   C29821398   2.563   2.673   3.920 -0.8841 -0.3667  0.5003
   51MOL   O29921399   2.501   2.566   3.908  0.1967 -0.7248 -0.1572
   51MOL   O30021400   2.684   2.692   3.982 -0.1393 -0.2072  0.4591
   51MOL   C30121401   2.764   2.578   3.993 -0.8750  0.0472 -0.1045
   51MOL   C30221402   2.865   2.633   4.097 -0.1511 -0.5833  0.2059
   51MOL   C30321403   2.937   2.767   4.059 -0.3344 -0.0411 -0.6271
   51MOL   C30421404   3.058   2.773   4.151 -0.4014  0.3821  0.6201
   51MOL   H30521405   2.547   3.013   3.783  0.4060  0.5935  0.3821
   51MOL   H30621406   2.675   2.933   3.857  1.7081 -1.2210 -2.7026
   51MOL   H30721407   2.410   2.789   3.809  2.0395 -0.7785 -0.9943
   51MOL   H30821408   2.814   2.550   3.901  2.9695 -0.1727  1.9419
   51MOL   H30921409   2.703   2.496   4.031  0.5176 -0.3541  1.3119
   51MOL   H31021410   2.825   2.635   4.198  0.8622  0.9570  0.5949
   51MOL   H31121411   2.936   2.550   4.094 -1.4134 -1.6525 -0.4033
   51MOL   H31221412   2.872   2.851   4.085  0.0217  0.5378 -1.6245
   51MOL   H31321413   2.962   2.780   3.954 -3.6144  0.0698 -1.4488
   51MOL   H31421414   3.039   2.754   4.257  1.4249 -1.7884  0.5951
   51MOL   H31521415   3.112   2.867   4.138 -2.1749  1.4422  0.8564
   51MOL   H31621416   3.132   2.698   4.123 -0.6003  0.2489  0.4546
   51MOL   C31721417   2.442   2.876   4.006  0.5000 -0.1831 -0.0524
   51MOL   C31821418   2.313   2.962   3.997  0.2733 -0.7831 -0.1289
   51MOL   C31921419   2.188   2.872   3.962  0.5676  0.0420 -0.1822
   51MOL   O32021420   2.145   2.867   3.845 -0.2074 -0.3699  0.5389
   51MOL   O32121421   2.141   2.813   4.075 -0.1976  0.5664 -0.2942
   51MOL   C32221422   2.037   2.713   4.060 -0.1226  0.4321 -0.3393
   51MOL   C32321423   1.914   2.767   4.140  0.2819  0.4805  0.7648
   51MOL   C32421424   1.791   2.674   4.132 -0.3365  0.2947 -0.2921
   51MOL   C32521425   1.667   2.706   4.217 -0.7118 -0.3167  0.4579
   51MOL   H32621426   2.520   2.942   4.044 -1.6114  0.6023  3.1413
   51MOL   H32721427   2.427   2.793   4.075 -0.0670 -2.0353 -2.3689
   51MOL   H32821428   2.332   3.040   3.923 -1.6001 -0.6446 -0.4953
   51MOL   H32921429   2.078   2.626   4.111  0.5021  0.5602 -0.6162
   51MOL   H33021430   2.015   2.682   3.958 -0.2013  1.1831 -0.5504
   51MOL   H33121431   1.943   2.795   4.241 -1.9891  2.1988  0.9835
   51MOL   H33221432   1.882   2.863   4.099  0.8762  0.8299  1.0959
   51MOL   H33321433   1.815   2.571   4.158 -0.4745  0.8286  2.0927
   51MOL   H33421434   1.762   2.671   4.027  1.6363  0.4380 -0.8628
   51MOL   H33521435   1.692   2.718   4.322 -1.5211  3.0968  0.3070
   51MOL   H33621436   1.593   2.627   4.204 -1.2935  0.3881 -0.6098
   51MOL   H33721437   1.624   2.795   4.172  1.3656 -0.1126 -1.2405
   51MOL   C33821438   2.294   3.035   4.131  0.4242  0.4752  0.0127
   51MOL   C33921439   2.177   3.132   4.150  0.0125  0.1575 -0.1178
   51MOL   C34021440   2.058   3.084   4.235  0.1019  0.4341  0.2299
   51MOL   O34121441   1.942   3.111   4.197 -0.5651 -0.1124 -0.4561
   51MOL   O34221442   2.093   3.035   4.356 -0.3852 -0.1169  0.1606
   51MOL   C34321443   2.001   3.020   4.457 -0.1060 -0.8372 -0.1385
   51MOL   C34421444   2.067   3.010   4.597 -0.1237  0.4161  0.6260
   51MOL   C34521445   2.144   3.141   4.626  0.1709 -0.1109 -0.2547
   51MOL   C34621446   2.232   3.121   4.751  0.2981  0.6506  0.2569
   51MOL   H34721447   2.385   3.096   4.133  2.0251 -1.7829 -0.8183
   51MOL   H34821448   2.295   2.965   4.215  0.1734  2.0228  1.3286
   51MOL   H34921449   2.147   3.158   4.049 -0.2834  0.8461  0.1409
   51MOL   H35021450   1.950   2.925   4.443 -1.7142 -0.2190  1.3153
   51MOL   H35121451   1.942   3.112   4.454 -0.1445 -0.9060 -2.1480
   51MOL   H35221452   2.001   2.989   4.681 -0.7305  0.3764  0.1459
   51MOL   H35321453   2.132   2.923   4.604 -0.8590 -0.0840  1.2232
   51MOL   H35421454   2.078   3.227   4.640 -0.7506 -0.6582 -1.2496
   51MOL   H35521455   2.199   3.169   4.535  0.1712  0.3472 -0.1163
   51MOL   H35621456   2.285   3.210   4.784  1.6932 -0.5318  1.2582
   51MOL   H35721457   2.306   3.042   4.745  0.8508  0.7225  4.6641
   51MOL   H35821458   2.166   3.096   4.835  1.5303  1.1649  1.3966
   51MOL   C35921459   2.229   3.259   4.215 -0.0690  0.1056 -0.9167
   51MOL   C36021460   2.129   3.369   4.250 -0.7676  0.3200 -0.6499
   51MOL   C36121461   2.199   3.482   4.326 -0.6474  0.7246  0.1511
   51MOL   O36221462   2.188   3.491   4.447 -0.0502 -0.3378  0.1763
   51MOL   O36321463   2.290   3.542   4.247  0.5491 -0.3989 -0.2281
   51MOL   C36421464   2.396   3.622   4.297  0.4064  0.7323 -0.5618
   51MOL   C36521465   2.369   3.771   4.328 -0.1397 -0.0278 -0.9992
   51MOL   C36621466   2.329   3.852   4.208 -0.6174  0.2189 -0.3568
   51MOL   C36721467   2.288   3.991   4.245  0.9390 -0.4558 -0.0535
   51MOL   H36821468   2.309   3.301   4.154 -1.4290  1.1026 -2.0454
   51MOL   H36921469   2.279   3.233   4.309 -0.0324  1.3704 -0.5765
   51MOL   H37021470   2.042   3.337   4.308 -1.0286  1.1383 -0.5897
   51MOL   H37121471   2.477   3.619   4.225  0.1057  0.8338 -0.9050
   51MOL   H37221472   2.441   3.578   4.387 -0.4054  0.4664 -0.2832
   51MOL   H37321473   2.277   3.779   4.385 -2.2628  2.1296 -4.5361
   51MOL   H37421474   2.455   3.822   4.372  0.5725  0.6359 -3.0869
   51MOL   H37521475   2.246   3.802   4.159 -1.9268  0.0594  1.9329
   51MOL   H37621476   2.407   3.850   4.132  2.3911 -1.0853  2.6584
   51MOL   H37721477   2.224   4.036   4.169 -0.5411 -0.1722  1.3182
   51MOL   H37821478   2.381   4.046   4.260  0.2783  0.8070 -0.5002
   51MOL   H37921479   2.250   4.000   4.347  0.9898  1.1705 -0.1655
   51MOL   C38021480   2.061   3.431   4.127  0.2930 -0.0399 -0.5098
   51MOL   C38121481   1.960   3.545   4.140  0.7254 -0.0143  0.1890
   51MOL   C38221482   1.952   3.636   4.022 -0.5561  0.2739 -0.1811
   51MOL   O38321483   1.990   3.747   4.022 -0.6226 -0.4627  0.6516
   51MOL   O38421484   1.892   3.576   3.922 -0.4842 -0.0064 -0.1343
   51MOL   C38521485   1.876   3.645   3.801  0.2781 -0.7595 -0.1356
   51MOL   C38621486   1.747   3.592   3.744  0.2514  0.3118 -0.8827
   51MOL   C38721487   1.630   3.623   3.842  0.0613  0.9310 -0.6875
   51MOL   C38821488   1.494   3.556   3.810  0.2105 -0.1004  0.1328
   51MOL   H38921489   1.999   3.347   4.096 -0.5734  0.3346  0.1888
   51MOL   H39021490   2.130   3.437   4.042 -0.6489  0.5418 -1.2459
   51MOL   H39121491   2.014   3.610   4.209  0.4956  0.1632  0.2005
   51MOL   H39221492   1.949   3.618   3.725  0.4536 -1.0256  0.1270
   51MOL   H39321493   1.871   3.753   3.816  2.1972 -0.3984 -1.9636
   51MOL   H39421494   1.724   3.644   3.651  2.4189  2.2714 -0.3671
   51MOL   H39521495   1.752   3.487   3.718  0.9625  0.7046 -2.3863
   51MOL   H39621496   1.626   3.731   3.858  0.9373  0.6688  1.5554
   51MOL   H39721497   1.653   3.587   3.942  0.6420  1.4010 -0.6487
   51MOL   H39821498   1.411   3.602   3.864  0.0018 -0.0175 -0.2605
   51MOL   H39921499   1.507   3.450   3.831  2.7148  0.3547  1.1488
   51MOL   H40021500   1.468   3.573   3.706 -0.0769 -0.7818  0.0947
   51MOL   C40121501   1.825   3.511   4.208  0.1426 -0.0791 -0.8694
   51MOL   C40221502   1.733   3.630   4.214  0.4397 -0.3853  0.8812
   51MOL   C40321503   1.767   3.721   4.337  0.0264  0.0973 -0.4404
   51MOL   O40421504   1.701   3.729   4.444 -0.0863 -0.1715 -0.4407
   51MOL   O40521505   1.873   3.786   4.319  0.1730  0.1323  0.7911
   51MOL   C40621506   1.912   3.881   4.416 -0.2034 -0.6799 -0.4957
   51MOL   C40721507   1.979   3.821   4.538 -0.4091  0.3889 -1.3620
   51MOL   C40821508   2.055   3.925   4.629  0.0727  0.6360  0.2249
   51MOL   C40921509   2.146   3.860   4.738 -0.0896  0.8893  0.1852
   51MOL   H41021510   1.840   3.478   4.311  0.7952  2.6453 -0.0643
   51MOL   H41121511   1.780   3.428   4.153  0.5788  0.0217 -1.3755
   51MOL   H41221512   1.630   3.593   4.214  0.4970 -0.5439  0.6609
   51MOL   H41321513   1.817   3.928   4.444 -0.1334 -1.9204  1.9226
   51MOL   H41421514   1.967   3.960   4.366  0.7250 -0.9511  0.0860
   51MOL   H41521515   1.910   3.758   4.594  0.7423  0.8838  0.6333
   51MOL   H41621516   2.054   3.756   4.494  0.2674  0.4475 -0.3080
   51MOL   H41721517   1.976   3.985   4.673  0.3903 -0.0649  1.7847
   51MOL   H41821518   2.118   3.998   4.578  0.8855 -1.3462 -1.6822
   51MOL   H41921519   2.082   3.833   4.822 -0.3106 -2.1211 -0.8884
   51MOL   H42021520   2.230   3.920   4.772  0.0979  1.3303 -1.0365
   51MOL   H42121521   2.186   3.765   4.701  0.4743  1.7306 -1.4235
   51MOL   H42221522   1.732   3.685   4.120 -0.9664  2.0063  2.2317
   52MOL     C121523   7.215   3.802   7.811 -0.7424 -0.8564 -0.4809
   52MOL     C221524   7.131   3.710   7.727  0.6936  0.0823  0.5653
   52MOL     C321525   7.099   3.769   7.587  0.5470 -0.3639 -0.3881
   52MOL     O421526   7.152   3.871   7.550 -0.2041  0.5392  0.0045
   52MOL     O521527   7.013   3.688   7.520  0.2424  0.6698 -0.4513
   52MOL     C621528   7.011   3.680   7.380 -0.4635  0.2770  1.0386
   52MOL     C721529   6.942   3.804   7.321  0.0850 -0.4493  0.2765
   52MOL     C821530   6.925   3.791   7.169 -0.5719  0.4751 -0.5981
   52MOL     C921531   6.898   3.920   7.102 -0.9266  0.2228  0.2148
   52MOL    H1021532   7.223   3.802   0.067 -0.9352  3.5353 -0.3582
   52MOL    H1121533   7.316   3.788   7.774  0.8585  2.8367  2.0786
   52MOL    H1221534   7.031   3.705   7.772  0.0237  1.4487 -0.7284
   52MOL    H1321535   6.948   3.593   7.360  0.4528 -0.0979 -0.3095
   52MOL    H1421536   7.111   3.672   7.337 -1.5597 -0.2661 -1.4650
   52MOL    H1521537   6.838   3.809   7.356 -1.1220 -1.9918 -2.9371
   52MOL    H1621538   6.994   3.895   7.353 -0.0541  0.1129 -1.0454
   52MOL    H1721539   6.849   3.716   7.145  0.8255 -1.5714  1.1277
   52MOL    H1821540   7.021   3.746   7.140 -2.2302 -2.6265 -1.6139
   52MOL    H1921541   6.823   3.980   7.153  0.8645  1.8117  1.0149
   52MOL    H2021542   6.886   3.915   6.994 -2.4701  1.8044  0.2920
   52MOL    H2121543   6.995   3.969   7.104 -0.2788 -1.0385  0.4546
   52MOL    H2221544   7.193   3.906   7.785  1.6029 -0.7142 -2.0344
   52MOL    C2321545   7.195   3.570   7.717  0.4543 -0.7024  0.1245
   52MOL    C2421546   7.188   3.479   7.844  0.0326  0.1797 -0.3224
   52MOL    C2521547   7.054   3.403   7.844 -0.2152 -0.2737 -0.2305
   52MOL    O2621548   6.972   3.400   7.748  0.6204  0.1369 -0.2218
   52MOL    O2721549   7.043   3.321   0.097  0.5940 -0.3817  0.3094
   52MOL    C2821550   6.916   3.260   0.114 -0.4869 -0.0852  0.0944
   52MOL    C2921551   6.900   3.227   0.261  0.0712  0.2880 -0.1750
   52MOL    C3021552   6.984   3.105   0.308 -0.1140  0.3760 -1.0319
   52MOL    C3121553   6.924   3.055   0.439  0.1628  0.1787 -0.0220
   52MOL    H3221554   7.297   3.584   7.681 -0.1223  0.7682 -0.9832
   52MOL    H3321555   7.156   3.513   7.633 -1.3645  1.7370 -0.7518
   52MOL    H3421556   7.193   3.547   0.076  1.8897  0.8411 -0.9320
   52MOL    H3521557   6.893   3.187   0.037  0.7816 -1.2537  0.8113
   52MOL    H3621558   6.837   3.332   0.091  0.2743  1.3132  1.6904
   52MOL    H3721559   6.917   3.311   0.329 -0.8195 -1.3676  2.1476
   52MOL    H3821560   6.792   3.212   0.263  0.1664 -0.4330  3.3398
   52MOL    H3921561   7.091   3.117   0.320  0.0985 -0.3657 -2.1475
   52MOL    H4021562   6.972   3.021   0.240  0.1239 -0.4912 -0.0161
   52MOL    H4121563   6.948   3.128   0.516 -1.8505  0.7382  0.0894
   52MOL    H4221564   6.979   2.964   0.466 -2.2362 -0.7716  1.8060
   52MOL    H4321565   6.820   3.025   0.443  0.5348 -0.9117  2.2635
   52MOL    C4421566   7.303   3.375   0.007  1.2573 -0.0784  0.6385
   52MOL    C4521567   7.444   3.440   0.024  0.0838  0.5902 -0.3607
   52MOL    C4621568   7.441   3.532   0.152 -1.0137  0.4741  0.6328
   52MOL    O4721569   7.497   3.645   0.145 -0.8187 -0.0113  0.2177
   52MOL    O4821570   7.382   3.476   0.263 -0.2302 -0.4341  0.0284
   52MOL    C4921571   7.364   3.564   0.376  0.2669  0.4895 -0.0863
   52MOL    C5021572   7.225   3.625   0.382  0.4648 -1.1485 -0.3733
   52MOL    C5121573   7.110   3.525   0.419 -0.2086  0.0467  0.2183
   52MOL    C5221574   6.963   3.574   0.407 -0.4027 -0.1639  0.2165
   52MOL    H5321575   7.300   3.331   7.760  1.0803  1.4140 -0.0313
   52MOL    H5421576   7.287   3.300   0.084  1.9724 -0.0876  0.7833
   52MOL    H5521577   7.459   3.504   7.791 -0.6362  0.8292 -0.3127
   52MOL    H5621578   7.433   3.649   0.385 -0.2191  0.5915  3.4652
   52MOL    H5721579   7.380   3.512   0.471 -1.0575 -1.7114 -1.0509
   52MOL    H5821580   7.219   3.700   0.461  0.8698 -0.5688 -0.8872
   52MOL    H5921581   7.215   3.680   0.288  1.3395 -2.3145 -1.1564
   52MOL    H6021582   7.123   3.502   0.525 -3.2100 -2.3917  0.1133
   52MOL    H6121583   7.125   3.436   0.359  2.8947 -0.7307  2.0128
   52MOL    H6221584   6.893   3.498   0.443 -3.1176  1.4307 -1.5354
   52MOL    H6321585   6.948   3.603   0.303  1.7168 -2.2594 -0.7383
   52MOL    H6421586   6.945   3.650   0.483  0.9011 -1.5906  2.0015
   52MOL    C6521587   7.553   3.326   0.029 -0.2448  0.0454  0.2996
   52MOL    C6621588   7.695   3.389   0.013  0.0354  0.0228 -0.2039
   52MOL    C6721589   7.808   3.297   0.051 -0.1374 -0.3094  0.1779
   52MOL    O6821590   7.782   3.175   0.063 -0.1983  0.1376  0.0607
   52MOL    O6921591   0.072   3.361   0.067  0.4206 -0.0097 -0.2517
   52MOL    C7021592   0.195   3.292   0.081  0.3655 -0.0658 -0.2781
   52MOL    C7121593   0.246   3.245   7.791  0.4914  0.1710 -0.0137
   52MOL    C7221594   0.297   3.361   7.712 -0.0003 -0.0651 -0.2871
   52MOL    C7321595   0.346   3.317   7.572 -0.2606 -0.0748 -0.0447
   52MOL    H7421596   7.545   3.249   7.805 -1.8016 -0.1539  0.6340
   52MOL    H7521597   7.544   3.273   0.125  1.5244 -2.6306 -0.9415
   52MOL    H7621598   7.703   3.470   0.085  1.7068  0.2844 -0.6535
   52MOL    H7721599   0.205   3.209   0.151  1.2348  0.4369  0.2087
   52MOL    H7821600   0.262   3.367   0.124  1.8685 -1.8001  0.4386
   52MOL    H7921601   0.320   3.166   7.805 -1.0264 -1.1479  0.7596
   52MOL    H8021602   0.169   3.185   7.743  1.1588 -1.0886  0.4706
   52MOL    H8121603   0.374   3.421   7.761  0.8351  0.6190 -2.4051
   52MOL    H8221604   0.219   3.434   7.692  2.3266  2.7897  0.7174
   52MOL    H8321605   0.431   3.381   7.547 -0.1615  0.1274  0.8273
   52MOL    H8421606   0.265   3.321   7.499 -1.5828  0.8399  1.4499
   52MOL    H8521607   0.394   3.219   7.572  0.9381  0.4966  1.5326
   52MOL    C8621608   7.717   3.444   7.720 -0.7264 -0.5875 -0.4852
   52MOL    C8721609   7.708   3.596   7.711 -0.0362 -0.5429  0.3731
   52MOL    C8821610   7.841   3.659   7.755  0.0598  0.0346  0.2026
   52MOL    O8921611   0.086   3.674   7.675  0.2096 -0.1543 -0.0043
   52MOL    O9021612   7.838   3.695   0.028  0.0551  0.5134 -0.7552
   52MOL    C9121613   0.101   3.755   0.095 -0.0241 -0.4365 -0.2792
   52MOL    C9221614   0.099   3.910   0.068 -0.4381  0.6065 -0.1540
   52MOL    C9321615   0.209   3.976   0.142  0.1041  0.7608  0.2265
   52MOL    C9421616   0.223   4.123   0.114 -0.2645  0.4421  0.4852
   52MOL    H9521617   7.635   3.394   7.669 -1.3919 -1.0829  1.0484
   52MOL    H9621618   7.804   3.405   7.667  0.0131 -0.8596  0.8945
   52MOL    H9721619   7.644   3.626   7.794  1.9298 -0.3852  1.8714
   52MOL    H9821620   0.192   3.707   0.058  0.5091  1.7380 -1.9325
   52MOL    H9921621   0.095   3.736   0.202 -0.7460  0.1653 -0.2072
   52MOL   H10021622   0.125   3.932   7.818 -0.6468 -0.4766 -0.4451
   52MOL   H10121623   0.011   3.965   0.101 -1.7345 -1.3625 -0.2465
   52MOL   H10221624   0.307   3.928   0.138  0.2031  0.9185  0.6974
   52MOL   H10321625   0.201   3.970   0.251  0.3694  0.0437  0.2114
   52MOL   H10421626   0.129   4.174   0.132 -0.4032 -0.4105  2.3081
   52MOL   H10521627   0.257   4.119   0.011  0.0003 -1.3329  0.6265
   52MOL   H10621628   0.303   4.169   0.173  0.2074 -0.9048  0.9170
   52MOL   C10721629   7.660   3.639   7.570 -0.3532 -0.5478  0.4757
   52MOL   C10821630   7.658   3.788   7.537  0.4360 -0.4650  1.2014
   52MOL   C10921631   7.653   3.802   7.382 -0.0800  0.0734  0.6577
   52MOL   O11021632   7.543   3.835   7.337 -0.2641  0.3411  0.4604
   52MOL   O11121633   7.764   3.767   7.328  0.2695 -0.1302  0.1153
   52MOL   C11221634   7.778   3.757   7.188 -0.1614 -0.0529 -0.2642
   52MOL   C11321635   0.055   3.679   7.177  0.4429  0.0619 -0.9231
   52MOL   C11421636   0.035   3.531   7.203  0.0289  0.1168 -0.3667
   52MOL   C11521637   0.162   3.452   7.161  0.1809 -0.4426 -0.7013
   52MOL   H11621638   7.566   3.586   7.553  0.3771 -1.4944 -0.7767
   52MOL   H11721639   7.725   3.589   7.497  0.8596  0.5521  0.7920
   52MOL   H11821640   7.755   3.832   7.561  0.4628 -0.5379  1.2255
   52MOL   H11921641   7.791   3.862   7.161  0.4542  0.1606  0.8455
   52MOL   H12021642   7.697   3.708   7.134 -1.2393  1.9093 -0.4756
   52MOL   H12121643   0.093   3.694   7.076 -0.3288 -3.2137 -1.7562
   52MOL   H12221644   0.138   3.723   7.231  1.8536  0.8141 -3.6069
   52MOL   H12321645   7.799   3.503   7.148 -1.3872  0.7757  1.5490
   52MOL   H12421646   0.003   3.503   7.303 -0.6096 -2.1761 -1.1983
   52MOL   H12521647   0.250   3.485   7.217 -0.6477  2.0351 -0.7852
   52MOL   H12621648   0.160   3.452   7.052 -1.7644 -1.6079 -0.6863
   52MOL   H12721649   0.149   3.346   7.180 -1.1939 -0.5170 -1.9526
   52MOL   C12821650   7.543   3.867   7.606 -0.4603 -0.4057 -0.0873
   52MOL   C12921651   7.554   4.024   7.596  0.1784 -0.4594  0.1706
   52MOL   C13021652   7.431   4.094   7.639  0.3040 -0.9055 -0.1111
   52MOL   O13121653   7.406   4.098   7.758  0.5054 -0.2982 -0.5020
   52MOL   O13221654   7.348   4.144   7.534  0.0195 -0.1874  0.1430
   52MOL   C13321655   7.219   4.193   7.569  0.3652 -0.4436 -0.2931
   52MOL   C13421656   7.157   4.223   7.436 -0.3939 -0.5341 -0.5327
   52MOL   C13521657   7.000   4.240   7.420 -0.6114  0.1051 -0.8787
   52MOL   C13621658   6.953   4.240   7.275  0.2755  0.1695 -0.4695
   52MOL   H13721659   7.537   3.825   7.706 -0.6649  1.6550  0.7841
   52MOL   H13821660   7.450   3.836   7.558  0.2981 -2.4744 -0.2663
   52MOL   H13921661   7.560   4.050   7.490  1.6268  0.6460  0.5146
   52MOL   H14021662   7.228   4.281   7.633 -1.3070  0.7187 -1.5915
   52MOL   H14121663   7.167   4.116   7.627 -0.8282  1.9737  1.9428
   52MOL   H14221664   7.209   4.307   7.388  0.5027 -2.1337 -2.4414
   52MOL   H14321665   7.184   4.141   7.369  1.0109 -0.3551 -0.2203
   52MOL   H14421666   6.961   4.332   7.463  0.0093 -0.1467  0.2470
   52MOL   H14521667   6.950   4.164   7.479  1.5492  0.4366  1.4589
   52MOL   H14621668   6.986   4.147   7.229 -0.5481  0.1834 -1.0895
   52MOL   H14721669   6.985   4.329   7.220 -0.3539  0.6415 -0.0829
   52MOL   H14821670   6.844   4.243   7.268  0.0063 -2.4267  1.9646
   52MOL   C14921671   7.675   4.083   7.666  0.1864  0.0966 -0.2632
   52MOL   C15021672   7.737   4.211   7.596 -0.0458 -0.0934  0.3251
   52MOL   C15121673   7.662   4.340   7.636 -0.0549 -0.3169  0.0517
   52MOL   O15221674   7.687   4.396   7.746  0.5938 -0.1401 -0.1555
   52MOL   O15321675   7.565   4.373   7.547  1.0356 -0.1634  0.6947
   52MOL   C15421676   7.464   4.460   7.603 -0.1486  0.0026 -0.5713
   52MOL   C15521677   7.376   4.518   7.495 -0.3675  0.2176 -0.7324
   52MOL   C15621678   7.250   4.564   7.557  0.5411  0.6535 -0.5066
   52MOL   C15721679   7.172   4.657   7.468 -0.3996 -0.9396 -0.2022
   52MOL   H15821680   7.751   4.006   7.676  0.8162  0.5834 -1.2419
   52MOL   H15921681   7.651   4.109   7.770  0.7162 -1.5714  0.2889
   52MOL   H16021682   7.725   4.202   7.488 -2.8585  0.1103  0.5844
   52MOL   H16121683   7.525   4.529   7.660 -0.9893  1.1165 -0.9980
   52MOL   H16221684   7.400   4.404   7.671 -1.6667  2.2571 -0.0991
   52MOL   H16321685   7.429   4.603   7.452  0.2072 -0.2955 -1.0553
   52MOL   H16421686   7.350   4.444   7.419  0.2995  2.2618 -3.0469
   52MOL   H16521687   7.287   4.637   7.629  0.8988 -0.8744  0.8807
   52MOL   H16621688   7.188   4.490   7.609  0.3260  0.3519 -1.1911
   52MOL   H16721689   7.120   4.601   7.390 -3.9267  0.6069  0.9124
   52MOL   H16821690   7.237   4.734   7.428 -1.1700 -1.1513 -1.9378
   52MOL   H16921691   7.089   4.709   7.516 -1.0185 -1.2695 -0.9058
   52MOL   C17021692   0.036   4.219   7.640 -0.6911  0.3316 -0.1238
   52MOL   C17121693   0.120   4.343   7.586  0.2750  0.3128 -0.1195
   52MOL   C17221694   0.237   4.369   7.674  0.3276  0.1500 -0.5002
   52MOL   O17321695   0.342   4.309   7.656  0.0499 -0.1056 -0.3043
   52MOL   O17421696   0.210   4.453   7.775  0.2099  0.0919  0.1907
   52MOL   C17521697   0.308   4.490   0.025  0.0643 -0.3501 -0.0021
   52MOL   C17621698   0.240   4.504   0.159  0.0464  0.2949  0.1083
   52MOL   C17721699   0.143   4.615   0.154  1.3099 -0.6538 -0.1635
   52MOL   C17821700   0.190   4.759   0.121 -0.3093  0.1030 -0.0248
   52MOL   H17921701   0.078   4.124   7.609 -0.3328  0.9519 -1.6053
   52MOL   H18021702   0.020   4.218   7.748 -1.2920  0.8695 -0.1992
   52MOL   H18121703   0.067   4.437   7.602  2.9382  1.6629  1.0885
   52MOL   H18221704   0.360   4.584   0.009  2.4518 -1.7419 -0.5291
   52MOL   H18321705   0.398   4.429   0.022  2.4482  3.0082  0.3112
   52MOL   H18421706   0.194   4.410   0.189  2.4911 -2.2060 -3.4421
   52MOL   H18521707   0.320   4.520   0.232  0.5666 -0.5296 -0.2730
   52MOL   H18621708   0.083   4.609   0.245  3.9397 -0.1298  1.6646
   52MOL   H18721709   0.070   4.595   0.075  0.0080 -1.2080  1.1673
   52MOL   H18821710   0.236   4.768   0.022  0.4633 -2.0719  0.1014
   52MOL   H18921711   0.265   4.793   0.192 -0.4225  0.4686 -0.0825
   52MOL   H19021712   0.117   4.839   0.121 -0.3902  0.0641  2.0379
   52MOL   C19121713   0.159   4.318   7.436  0.3550 -0.5209  0.2121
   52MOL   C19221714   0.215   4.439   7.361  0.4324  0.0061 -0.4628
   52MOL   C19321715   0.370   4.457   7.362 -0.7451  0.5799 -0.4795
   52MOL   O19421716   0.447   4.386   7.300 -0.4936 -0.0256  0.3690
   52MOL   O19521717   0.413   4.576   7.428 -0.7054 -0.3487  0.2502
   52MOL   C19621718   0.548   4.586   7.466 -0.2939 -0.1778  0.5578
   52MOL   C19721719   0.556   4.715   7.545  0.4898  0.0233 -0.4150
   52MOL   C19821720   0.472   4.713   7.675 -1.0152 -0.3442  0.4592
   52MOL   C19921721   0.513   4.840   7.750  0.5200  0.9086  0.8827
   52MOL   H20021722   0.078   4.269   7.381  0.4741  0.0279 -0.4534
   52MOL   H20121723   0.238   4.243   7.437  4.0021  3.1624  0.5104
   52MOL   H20221724   0.186   4.524   7.423  2.5714  1.6615 -1.6834
   52MOL   H20321725   0.604   4.578   7.373  1.2920 -0.7960  1.5473
   52MOL   H20421726   0.589   4.507   7.529  0.3932  0.0262  0.3779
   52MOL   H20521727   0.662   4.740   7.556  0.9363 -1.8460 -0.2700
   52MOL   H20621728   0.523   4.798   7.482 -0.9481  0.8932  1.4279
   52MOL   H20721729   0.505   4.623   7.727  0.2036 -0.0592  0.1880
   52MOL   H20821730   0.364   4.703   7.663 -1.0997  0.1190  0.8177
   52MOL   H20921731   0.507   4.932   7.693 -0.5070 -0.8170 -1.8737
   52MOL   H21021732   0.614   4.821   7.788  0.6944  1.5449  0.7332
   52MOL   H21121733   0.454   4.841   7.842 -1.3525 -2.3342 -0.1878
   52MOL   C21221734   0.160   4.454   7.215 -0.4428 -0.8875  0.7987
   52MOL   C21321735   0.010   4.498   7.209  0.1152  1.1024 -0.0409
   52MOL   C21421736   7.840   4.648   7.234  0.8936 -0.2212  0.1497
   52MOL   O21521737   7.846   4.728   7.144 -1.2569  0.3344  0.0230
   52MOL   O21621738   7.829   4.679   7.367 -0.8813  0.2164 -0.1950
   52MOL   C21721739   7.817   4.809   7.412 -0.4679 -0.4273 -0.0222
   52MOL   C21821740   7.808   4.827   7.559 -0.6116  0.0951  0.0199
   52MOL   C21921741   7.699   4.740   7.632  0.1330 -0.0836 -0.0783
   52MOL   C22021742   7.682   4.790   7.776  0.1103  0.5063 -0.0924
   52MOL   H22121743   0.174   4.368   7.151  0.6269 -0.1779  0.0573
   52MOL   H22221744   0.216   4.540   7.176 -2.1567  1.5140  3.3963
   52MOL   H22321745   7.804   4.444   7.284  0.0594  0.3960 -0.5875
   52MOL   H22421746   7.723   4.842   7.367 -1.4971 -2.0006  0.8726
   52MOL   H22521747   0.051   4.862   7.375  0.3730  0.4775  3.1062
   52MOL   H22621748   0.050   4.801   7.607 -2.3241 -3.1734  1.8303
   52MOL   H22721749   7.798   4.935   7.572 -0.2867  0.1357 -0.0494
   52MOL   H22821750   7.724   4.634   7.634 -1.0196 -0.3945 -1.2525
   52MOL   H22921751   7.605   4.754   7.578  0.8446  0.3614 -1.2344
   52MOL   H23021752   7.691   4.898   7.790  0.5124  0.2634  1.6395
   52MOL   H23121753   7.763   4.747   7.835  0.7850  0.8375 -0.7690
   52MOL   H23221754   7.584   4.755   7.808 -0.9175  1.8075 -1.7094
   52MOL   C23321755   7.799   4.467   7.071 -0.0572 -0.8016 -0.2987
   52MOL   C23421756   7.764   4.325   7.031 -0.3800 -1.0414 -0.2623
   52MOL   C23521757   7.709   4.236   7.145 -0.3852  0.5817  0.0178
   52MOL   O23621758   7.766   4.127   7.170 -0.3956  0.2736 -0.4164
   52MOL   O23721759   7.592   4.280   7.186 -0.5016  0.0747 -0.2888
   52MOL   C23821760   7.510   4.199   7.266  0.2569 -0.0513 -0.2747
   52MOL   C23921761   7.417   4.107   7.182 -0.6601 -0.0355 -0.2924
   52MOL   C24021762   7.313   4.186   7.093 -0.0698  0.5735 -0.3196
   52MOL   C24121763   7.228   4.083   7.014 -0.7088  0.2755 -0.2992
   52MOL   H24221764   0.019   4.502   6.998 -1.8874  1.2025 -1.2072
   52MOL   H24321765   7.717   4.533   7.045 -0.3597 -0.7271  0.8182
   52MOL   H24421766   0.004   4.271   7.013  1.1002  0.8539  1.4020
   52MOL   H24521767   7.444   4.269   7.318 -0.5733 -0.4628 -0.7688
   52MOL   H24621768   7.573   4.159   7.346  2.1564 -1.2349 -2.3142
   52MOL   H24721769   7.482   4.038   7.128 -2.6857 -0.0488 -2.8111
   52MOL   H24821770   7.364   4.030   7.236  0.8240 -0.9661 -0.1234
   52MOL   H24921771   7.362   4.245   7.016  1.7213  0.6178  0.8259
   52MOL   H25021772   7.259   4.253   7.159 -0.2218 -1.1875  1.3933
   52MOL   H25121773   7.203   3.999   7.080 -1.7707  0.9633  0.1923
   52MOL   H25221774   7.291   4.037   6.939 -2.3224  0.1837 -1.6259
   52MOL   H25321775   7.137   4.123   6.969 -1.4472  0.2039  1.0843
   52MOL   C25421776   7.681   4.318   6.904  0.4443 -0.0361  0.1095
   52MOL   C25521777   7.677   4.175   6.839  0.6795 -1.5514  0.3381
   52MOL   C25621778   7.554   4.164   6.744  0.0922  0.3523 -0.3252
   52MOL   O25721779   7.457   4.239   6.763  0.1375  0.2086 -0.0238
   52MOL   O25821780   7.572   4.075   6.637  0.9873 -0.0673 -0.0628
   52MOL   C25921781   7.464   4.061   6.536 -0.4860  0.2810 -0.6328
   52MOL   C26021782   7.460   3.928   6.463 -0.1421  0.0815 -0.3771
   52MOL   C26121783   7.337   3.927   6.369  0.4649 -0.2052 -0.5332
   52MOL   C26221784   7.300   3.787   6.322 -0.2942 -0.7746 -0.3568
   52MOL   H26321785   7.720   4.393   6.835 -0.7225 -1.1436 -1.7886
   52MOL   H26421786   7.582   4.353   6.934  1.6736  2.8454  0.9337
   52MOL   H26521787   7.642   4.100   6.910 -2.0970  0.0204  0.6812
   52MOL   H26621788   7.471   4.145   6.468  1.5541 -1.2160 -2.3478
   52MOL   H26721789   7.375   4.065   6.598 -0.6735 -1.0627 -0.7985
   52MOL   H26821790   7.556   3.909   6.417  0.4228 -3.5913  2.1423
   52MOL   H26921791   7.451   3.844   6.532 -0.8856  1.8822  1.7947
   52MOL   H27021792   7.366   3.999   6.292  0.7043  1.1256  0.7705
   52MOL   H27121793   7.260   3.973   6.431  1.0568 -1.0687  0.8427
   52MOL   H27221794   7.202   3.773   6.277 -0.6765  0.0226  0.2138
   52MOL   H27321795   7.298   3.717   6.405 -1.7757 -0.6802 -0.2918
   52MOL   H27421796   7.373   3.759   6.247  0.5911  0.3499  0.0695
   52MOL   C27521797   7.816   4.125   6.778  0.2143  0.1958 -0.2890
   52MOL   C27621798   0.024   4.207   6.664  0.4753  0.2787  0.2158
   52MOL   C27721799   0.105   4.323   6.718  0.4597 -0.8761  0.0347
   52MOL   O27821800   0.168   4.329   6.823 -0.2258  0.8585 -0.1806
   52MOL   O27921801   0.099   4.424   6.624  0.2092  0.0980  0.5444
   52MOL   C28021802   0.174   4.544   6.639 -0.1196 -0.4294 -0.2165
   52MOL   C28121803   0.083   4.643   6.703 -0.3561 -0.2403 -0.6625
   52MOL   C28221804   7.828   4.693   6.613  0.2891  0.2435  0.1702
   52MOL   C28321805   7.754   4.821   6.665  0.0836  0.1466 -0.2173
   52MOL   H28421806   7.805   4.022   6.742  0.8679  0.0812 -0.1702
   52MOL   H28521807   0.027   4.107   6.864 -2.0160 -1.1671  1.1349
   52MOL   H28621808   7.797   4.258   6.610 -1.5671 -1.5470  1.4255
   52MOL   H28721809   0.200   4.580   6.540 -0.9227  0.2342 -0.1898
   52MOL   H28821810   0.268   4.525   6.691 -1.1363  0.6956  2.1088
   52MOL   H28921811   0.061   4.603   6.802  0.7086 -2.2592 -1.2223
   52MOL   H29021812   0.158   4.721   6.717 -1.4147  0.8436 -0.9104
   52MOL   H29121813   7.762   4.607   6.603 -0.1837  0.5986  0.2176
   52MOL   H29221814   0.002   4.702   6.508 -0.1612  1.1510  0.1287
   52MOL   H29321815   7.718   4.832   6.768 -0.4746  1.8308 -0.5631
   52MOL   H29421816   7.661   4.830   6.608 -1.4514 -4.6290  1.2799
   52MOL   H29521817   7.819   4.908   6.662  3.0351 -1.9802  0.5631
   52MOL   C29621818   0.108   4.121   6.572  0.3153  0.3859  0.9344
   52MOL   C29721819   0.031   4.050   6.452 -0.8027  0.0672  0.2277
   52MOL   C29821820   7.849   4.148   6.339 -0.9441  0.1679 -0.7638
   52MOL   O29921821   7.734   4.162   6.299  0.3327  0.1485  0.3179
   52MOL   O30021822   0.106   4.213   6.298 -0.5639 -0.1629 -0.3171
   52MOL   C30121823   0.095   4.318   6.190  0.3739  0.4298 -0.1982
   52MOL   C30221824   0.239   4.339   6.141 -0.2485  0.5797 -0.2289
   52MOL   C30321825   0.324   4.413   6.238  0.1935 -1.0044 -0.1374
   52MOL   C30421826   0.410   4.338   6.331 -0.4300 -0.0684  0.1523
   52MOL   H30521827   0.142   4.042   6.639 -0.1822 -2.4830 -2.0615
   52MOL   H30621828   0.200   4.169   6.540 -0.3358  2.1474  1.6662
   52MOL   H30721829   7.794   4.007   6.494 -0.3854 -0.4103  0.6429
   52MOL   H30821830   0.045   4.404   6.236  0.8951  0.7107 -0.1516
   52MOL   H30921831   0.033   4.282   6.109  0.1617  0.4137 -0.0295
   52MOL   H31021832   0.294   4.247   6.127  1.9182  1.3907  2.5148
   52MOL   H31121833   0.232   4.404   6.054 -0.0544 -0.4311 -1.0065
   52MOL   H31221834   0.252   4.473   6.293  2.6469  3.1559 -1.1641
   52MOL   H31321835   0.383   4.491   6.188 -2.3621  2.3435  1.8728
   52MOL   H31421836   0.484   4.285   6.271 -0.0497 -0.0842  0.6357
   52MOL   H31521837   0.362   4.261   6.393  0.5803 -0.4435  0.4824
   52MOL   H31621838   0.455   4.405   6.404 -1.7693  1.4213 -0.3552
   52MOL   C31721839   0.122   3.937   6.383  0.4183 -0.4264 -0.2700
   52MOL   C31821840   0.121   3.802   6.445 -0.1122  0.2292  0.1669
   52MOL   C31921841   0.040   3.700   6.365  0.1863 -0.1797  0.0382
   52MOL   O32021842   0.052   3.690   6.243  0.1622 -0.3989 -0.0821
   52MOL   O32121843   7.797   3.641   6.442 -0.3431  0.2654 -0.2427
   52MOL   C32221844   7.706   3.555   6.385 -0.7960  0.0615  0.2160
   52MOL   C32321845   7.619   3.489   6.492  0.7032  0.2187  0.4193
   52MOL   C32421846   7.527   3.382   6.434  0.4422 -0.4058 -0.3026
   52MOL   C32521847   7.469   3.274   6.543 -0.0934 -0.8249  0.1179
   52MOL   H32621848   0.221   3.981   6.373 -0.3722  1.4283 -0.1702
   52MOL   H32721849   0.091   3.921   6.280  1.4294  0.1995 -0.6743
   52MOL   H32821850   0.080   3.818   6.545 -0.2574 -0.0692  0.1577
   52MOL   H32921851   7.765   3.475   6.342 -0.2339  1.3489 -1.4311
   52MOL   H33021852   7.658   3.611   6.305 -0.9859  0.0274  0.3050
   52MOL   H33121853   7.679   3.453   6.576  2.1405  1.2834 -0.1244
   52MOL   H33221854   7.550   3.561   6.536 -0.5645 -0.4826 -0.4007
   52MOL   H33321855   7.593   3.325   6.368 -0.7070 -0.3824 -1.4928
   52MOL   H33421856   7.453   3.435   6.375  1.5975 -0.2627 -1.6333
   52MOL   H33521857   7.539   3.232   6.615 -0.6609 -0.3117  0.9738
   52MOL   H33621858   7.410   3.195   6.498  0.1488 -0.1625 -1.4395
   52MOL   H33721859   7.405   3.336   6.605  2.0853 -0.0814  1.6901
   52MOL   C33821860   0.269   3.746   6.459  0.4082 -1.4825  0.1931
   52MOL   C33921861   0.370   3.816   6.561  0.1592 -0.2597 -0.1358
   52MOL   C34021862   0.322   3.797   6.704 -0.6384  0.3143 -0.5839
   52MOL   O34121863   0.231   3.719   6.740 -0.0580 -0.4900 -0.6321
   52MOL   O34221864   0.392   3.875   6.790  0.0661 -0.1651 -0.0270
   52MOL   C34321865   0.360   3.872   6.929  0.3723  0.3206 -0.0136
   52MOL   C34421866   0.243   3.961   6.967 -0.2957  0.2395 -0.3327
   52MOL   C34521867   0.231   4.010   7.112 -0.0158 -0.4932  0.1402
   52MOL   C34621868   0.327   4.118   7.139 -0.1745 -0.2037  0.0348
   52MOL   H34721869   0.329   3.756   6.368  1.1827  0.6114  0.9001
   52MOL   H34821870   0.273   3.645   6.501  1.5953 -1.6947 -0.3873
   52MOL   H34921871   0.364   3.924   6.548 -1.8516  0.0406  2.7502
   52MOL   H35021872   0.444   3.903   6.990 -0.4020  0.8435  0.8082
   52MOL   H35121873   0.344   3.768   6.959  1.8181 -0.3957 -1.5974
   52MOL   H35221874   0.242   4.044   6.897  1.8630 -0.1454 -0.8744
   52MOL   H35321875   0.154   3.898   6.958 -0.9591  1.2905 -1.2571
   52MOL   H35421876   0.241   3.925   7.179  0.3838  2.2279  3.7334
   52MOL   H35521877   0.131   4.051   7.129  1.1398  1.1160  3.5101
   52MOL   H35621878   0.425   4.073   7.128 -0.8336 -1.4642 -0.7871
   52MOL   H35721879   0.308   4.153   7.241  1.9217  1.9082 -0.2441
   52MOL   H35821880   0.324   4.194   7.061  1.8319  0.3751  0.5016
   52MOL   C35921881   0.512   3.762   6.533 -0.4653  0.8657  0.0238
   52MOL   C36021882   0.617   3.840   6.450  0.5910 -0.0313  0.0737
   52MOL   C36121883   0.639   3.986   6.485  0.3966 -0.3029 -0.1620
   52MOL   O36221884   0.639   4.080   6.407  0.1769  0.0774  0.1841
   52MOL   O36321885   0.663   4.001   6.616 -0.3318  0.3485 -0.0881
   52MOL   C36421886   0.658   4.133   6.678  0.3839 -0.0613  1.0532
   52MOL   C36521887   0.811   4.175   6.679  1.1783  0.0903 -0.7475
   52MOL   C36621888   0.901   4.085   6.763 -0.1476  0.9504  0.0620
   52MOL   C36721889   1.038   4.148   6.789  0.6973 -0.1742  0.3134
   52MOL   H36821890   0.520   3.660   6.496  2.5731  1.4814 -1.1236
   52MOL   H36921891   0.549   3.746   6.635 -1.4949  2.0287  0.5877
   52MOL   H37021892   0.579   3.844   6.348 -1.5170  2.2441  0.9002
   52MOL   H37121893   0.626   4.129   6.782 -1.8432  2.3408  0.4875
   52MOL   H37221894   0.591   4.196   6.620  0.3723 -0.6332  0.4362
   52MOL   H37321895   0.855   4.189   6.580 -0.1474 -0.8431 -1.4828
   52MOL   H37421896   0.810   4.277   6.717 -2.5534 -0.1967  0.1386
   52MOL   H37521897   0.911   3.984   6.723 -1.1239  0.6209  0.6042
   52MOL   H37621898   0.851   4.082   6.860 -1.5383 -0.3791 -0.6717
   52MOL   H37721899   1.037   4.245   6.840 -0.4123  0.4445 -0.8514
   52MOL   H37821900   1.082   4.173   6.692 -0.5671  1.7372  0.2033
   52MOL   H37921901   1.104   4.096   6.858 -0.0142 -1.3415  0.1096
   52MOL   C38021902   0.754   3.762   6.442  0.2014 -0.0813 -0.4162
   52MOL   C38121903   0.882   3.815   6.367 -0.4452  0.4306  0.6660
   52MOL   C38221904   1.009   3.798   6.457  0.3085 -0.1439 -0.8874
   52MOL   O38321905   1.073   3.897   6.488 -0.4052 -0.1000  0.0003
   52MOL   O38421906   1.039   3.673   6.491  0.1626  0.3853  0.3024
   52MOL   C38521907   1.142   3.642   6.579 -0.5766  0.8704  0.3843
   52MOL   C38621908   1.279   3.646   6.509 -0.7861 -0.5500  0.2793
   52MOL   C38721909   1.388   3.586   6.592 -0.7011  0.2754  0.1998
   52MOL   C38821910   1.528   3.610   6.529  0.7940 -0.2403 -0.0603
   52MOL   H38921911   0.741   3.661   6.403 -0.2158 -0.4498  0.6556
   52MOL   H39021912   0.778   3.775   6.548 -0.2790 -0.3652 -0.2664
   52MOL   H39121913   0.866   3.921   6.349  0.0723 -0.0781 -3.1891
   52MOL   H39221914   1.127   3.545   6.628 -1.2639  1.7495  1.9669
   52MOL   H39321915   1.136   3.717   6.658  3.2474  0.9110  0.7710
   52MOL   H39421916   1.270   3.603   6.409  5.6477  0.0096 -0.8021
   52MOL   H39521917   1.304   3.751   6.492 -2.2375 -0.3272 -0.5330
   52MOL   H39621918   1.368   3.479   6.589 -0.9049  0.2644  1.6304
   52MOL   H39721919   1.375   3.623   6.694 -0.3854 -2.1587  1.1697
   52MOL   H39821920   1.600   3.575   6.603  0.7172 -0.0915  0.0835
   52MOL   H39921921   1.550   3.714   6.505  0.2824 -0.3485 -1.0345
   52MOL   H40021922   1.547   3.559   6.434  1.5397 -1.3737  0.6753
   52MOL   C40121923   0.905   3.739   6.235  0.2541  0.7053 -0.4088
   52MOL   C40221924   1.020   3.790   6.150 -0.4520 -0.5073 -0.2705
   52MOL   C40321925   1.005   3.937   6.098  0.6189 -0.4896 -0.4137
   52MOL   O40421926   0.976   3.965   5.983  0.2421 -0.0482  0.0542
   52MOL   O40521927   1.040   4.024   6.198  0.6123 -0.5138 -0.5195
   52MOL   C40621928   1.004   4.163   6.187 -0.0902 -0.1868  0.1984
   52MOL   C40721929   0.964   4.211   6.329 -0.2797  0.0516 -0.6267
   52MOL   C40821930   0.917   4.356   6.331 -0.3246  0.2351 -0.2210
   52MOL   C40921931   0.800   4.389   6.233  0.2475 -0.0749 -0.1421
   52MOL   H41021932   0.814   3.740   6.176 -2.2587 -1.0751  3.2530
   52MOL   H41121933   0.917   3.632   6.253 -0.7225  1.0191  2.2800
   52MOL   H41221934   1.032   3.708   6.079 -0.4190 -1.4560  0.8187
   52MOL   H41321935   0.919   4.169   6.119  1.9548  3.2200 -2.2457
   52MOL   H41421936   1.074   4.228   6.134 -2.7224  1.3319 -1.5540
   52MOL   H41521937   0.880   4.149   6.360  0.1410  0.0778  0.5903
   52MOL   H41621938   1.043   4.194   6.401 -0.8915  1.0954  0.3027
   52MOL   H41721939   1.002   4.419   6.303  1.7667 -2.3841 -0.0116
   52MOL   H41821940   0.892   4.386   6.433 -0.0857  0.7389 -0.3116
   52MOL   H41921941   0.706   4.352   6.272 -0.3293  0.1689 -1.2715
   52MOL   H42021942   0.818   4.349   6.133  1.1902  2.0834 -0.8714
   52MOL   H42121943   0.775   4.494   6.216 -0.7540 -0.3310 -0.2701
   52MOL   H42221944   1.112   3.779   6.208 -0.7387 -1.0892  0.0783
   53MOL     C121945   2.928   2.744   0.654 -0.3296 -0.6805  0.3409
   53MOL     C221946   2.959   2.894   0.688 -0.1289 -0.1457 -0.3884
   53MOL     C321947   3.051   2.889   0.816 -0.4686 -0.2821 -0.4753
   53MOL     O421948   3.013   2.907   0.932  0.4570  0.0793 -0.2975
   53MOL     O521949   3.176   2.849   0.783 -0.4312  0.1777  0.1739
   53MOL     C621950   3.267   2.821   0.888 -1.1140  0.0417  0.1572
   53MOL     C721951   3.273   2.670   0.910 -0.0506  0.9164  0.2130
   53MOL     C821952   3.151   2.609   0.974  0.4567  0.4203 -0.9482
   53MOL     C921953   3.146   2.459   0.984 -0.3924  0.1329  0.0797
   53MOL    H1021954   3.001   2.674   0.615 -0.9218 -2.0939  1.6773
   53MOL    H1121955   2.899   2.701   0.750  0.6212 -0.6166  0.6604
   53MOL    H1221956   2.867   2.942   0.723  0.4633 -0.1532  1.2191
   53MOL    H1321957   3.249   2.873   0.982  0.3604 -0.0872  0.5212
   53MOL    H1421958   3.363   2.866   0.863 -0.4229 -2.3521 -1.7068
   53MOL    H1521959   3.281   2.632   0.808  1.3735  2.0001 -0.1012
   53MOL    H1621960   3.361   2.639   0.966 -1.4648 -0.4429  1.7237
   53MOL    H1721961   3.063   2.641   0.917 -0.8403  1.4138  1.4998
   53MOL    H1821962   3.135   2.661   1.069  2.9671 -0.3861 -0.0413
   53MOL    H1921963   3.060   2.431   1.045  0.1652 -0.5077  0.5734
   53MOL    H2021964   3.228   2.424   1.047 -0.4056 -0.6235 -0.3162
   53MOL    H2121965   3.139   2.405   0.889  1.8989 -1.1265  0.5768
   53MOL    H2221966   2.840   2.743   0.589 -0.3185 -1.0185  0.3311
   53MOL    C2321967   3.004   2.974   0.565  0.1508  0.2811 -0.4149
   53MOL    C2421968   3.061   3.118   0.599  0.5870  0.1339  0.2361
   53MOL    C2521969   3.210   3.127   0.629 -0.4832  0.0063 -0.4187
   53MOL    O2621970   3.252   3.182   0.729 -0.0314 -0.2462 -0.4540
   53MOL    O2721971   3.283   3.060   0.540 -0.1166 -0.7746 -0.1964
   53MOL    C2821972   3.427   3.043   0.569 -0.1792  0.5677  0.1672
   53MOL    C2921973   3.461   2.902   0.523 -0.8566  0.0223 -0.5439
   53MOL    C3021974   3.604   2.867   0.557  0.2600  0.4442 -0.5477
   53MOL    C3121975   3.625   2.835   0.707  1.4082  0.0106 -0.4819
   53MOL    H3221976   2.919   2.981   0.498  1.0934  0.2674 -1.6245
   53MOL    H3321977   3.073   2.908   0.512 -1.5428 -1.1260 -0.9106
   53MOL    H3421978   3.002   3.140   0.688 -0.0565 -1.9504  0.3523
   53MOL    H3521979   3.435   3.038   0.678 -1.8804 -3.9556  0.2110
   53MOL    H3621980   3.487   3.120   0.522  0.2518  0.9341  1.3044
   53MOL    H3721981   3.391   2.833   0.570 -2.2989  1.8303  0.0208
   53MOL    H3821982   3.453   2.890   0.415 -1.1473  1.2437 -0.6664
   53MOL    H3921983   3.677   2.937   0.517  0.1252 -0.0409 -1.6679
   53MOL    H4021984   3.628   2.774   0.506  1.9837 -0.3166  1.5558
   53MOL    H4121985   3.549   2.765   0.739  3.1280 -1.5634  0.2491
   53MOL    H4221986   3.621   2.924   0.770 -1.2106 -0.7568  0.4529
   53MOL    H4321987   3.718   2.783   0.732  0.6009 -1.0714  0.2657
   53MOL    C4421988   3.001   3.226   0.490  0.3024  0.7270 -0.4685
   53MOL    C4521989   2.987   3.374   0.529 -0.3217 -0.1291 -0.6987
   53MOL    C4621990   3.112   3.450   0.561  0.2350 -0.2523 -0.1429
   53MOL    O4721991   3.192   3.490   0.478 -0.0526 -0.2521  0.1607
   53MOL    O4821992   3.121   3.477   0.691  0.4578  0.0308  0.1946
   53MOL    C4921993   3.228   3.549   0.741 -0.4883  0.1142  1.3400
   53MOL    C5021994   3.272   3.505   0.879 -0.3681 -0.3351 -0.4528
   53MOL    C5121995   3.166   3.528   0.985  0.1532 -0.3769  0.3490
   53MOL    C5221996   3.208   3.518   1.129 -0.0290 -0.3546  0.2894
   53MOL    H5321997   2.901   3.192   0.463 -0.3902  0.4460  2.2378
   53MOL    H5421998   3.054   3.222   0.395  0.3013 -0.4881 -0.4331
   53MOL    H5521999   2.943   3.365   0.629 -1.2233 -1.0576 -1.1721
   53MOL    H5622000   3.194   3.652   0.729 -2.3896 -0.7956 -1.7737
   53MOL    H5722001   3.313   3.541   0.674 -2.6591  1.5079 -1.7215
   53MOL    H5822002   3.303   3.400   0.880 -0.7336 -0.4363  0.3166
   53MOL    H5922003   3.359   3.559   0.914  0.5337 -1.3174 -1.1172
   53MOL    H6022004   3.073   3.473   0.966 -0.1822  0.4263 -0.3588
   53MOL    H6122005   3.142   3.633   0.970 -1.2635 -0.9229 -1.4738
   53MOL    H6222006   3.136   3.573   1.189  1.3377  1.3865  0.3799
   53MOL    H6322007   3.300   3.571   1.154 -0.0077  0.7405 -1.9968
   53MOL    H6422008   3.218   3.415   1.162 -1.7466 -0.8013 -0.5430
   53MOL    C6522009   2.888   3.451   0.430 -0.1424  0.0186 -0.0599
   53MOL    C6622010   2.736   3.424   0.455  0.5722 -0.4605  0.5303
   53MOL    C6722011   2.696   3.464   0.590  0.1561 -0.5359  0.2012
   53MOL    O6822012   2.662   3.375   0.671  0.3356  0.0996  0.3446
   53MOL    O6922013   2.725   3.592   0.624 -0.3119 -0.3284  0.1777
   53MOL    C7022014   2.677   3.637   0.750  0.0600 -0.1796 -0.1911
   53MOL    C7122015   2.735   3.779   0.781  0.0136 -0.6548 -0.9998
   53MOL    C7222016   2.892   3.781   0.767 -0.5257  0.3609  0.7785
   53MOL    C7322017   2.971   3.907   0.808  0.1026 -0.0261 -0.6303
   53MOL    H7422018   2.913   3.430   0.326 -0.9848  0.9375 -0.4596
   53MOL    H7522019   2.904   3.558   0.446 -0.8639 -0.6031  5.8623
   53MOL    H7622020   2.722   3.318   0.437  1.8492 -0.2175 -2.3218
   53MOL    H7722021   2.726   3.581   0.830 -0.3420 -0.3256 -0.0432
   53MOL    H7822022   2.568   3.636   0.750  0.0526 -2.0081 -0.5878
   53MOL    H7922023   2.694   3.859   0.718 -0.7387 -1.7873 -1.9806
   53MOL    H8022024   2.700   3.802   0.881  0.3658 -0.3886 -0.9338
   53MOL    H8122025   2.938   3.752   0.672 -0.0925 -0.1704  1.1428
   53MOL    H8222026   2.931   3.698   0.827 -1.1777 -1.0318 -0.6866
   53MOL    H8322027   2.942   3.942   0.907  0.3570 -2.1938  0.2327
   53MOL    H8422028   2.975   3.989   0.737  0.7876  1.9765  1.6614
   53MOL    H8522029   3.071   3.868   0.824 -0.1287 -0.5278 -0.3608
   53MOL    C8622030   2.654   3.496   0.344 -0.3347 -0.2172 -0.2250
   53MOL    C8722031   2.501   3.498   0.354  0.8233  0.1592  0.1136
   53MOL    C8822032   2.419   3.377   0.410  0.2336  0.1825 -0.2631
   53MOL    O8922033   2.361   3.382   0.519 -0.1742 -0.5248 -0.4290
   53MOL    O9022034   2.425   3.272   0.339  0.5434  0.0816  0.2500
   53MOL    C9122035   2.377   3.149   0.394 -0.2187 -0.0555  0.3475
   53MOL    C9222036   2.449   3.033   0.320 -0.1247  0.1272  0.0286
   53MOL    C9322037   2.603   3.044   0.331 -0.4960 -0.4599  0.4423
   53MOL    C9422038   2.662   2.902   0.302  0.8042 -0.1159  0.5017
   53MOL    H9522039   2.686   3.451   0.250  1.4397 -0.1527  0.3159
   53MOL    H9622040   2.692   3.598   0.346  0.2223 -0.4080 -0.7343
   53MOL    H9722041   2.474   3.493   0.249  0.6815  2.0228  0.0474
   53MOL    H9822042   2.270   3.138   0.377 -0.4569  2.1289  0.2256
   53MOL    H9922043   2.391   3.141   0.502  0.9031  1.1783  0.3076
   53MOL   H10022044   2.405   2.942   0.360 -0.8813  0.7181  0.5587
   53MOL   H10122045   2.414   3.033   0.217 -2.0916 -2.4033  0.6605
   53MOL   H10222046   2.638   3.056   0.434  1.3365 -0.7158 -0.1361
   53MOL   H10322047   2.650   3.124   0.275 -2.7649  0.5876 -0.0341
   53MOL   H10422048   2.636   2.861   0.204 -0.0483  0.1327  0.6132
   53MOL   H10522049   2.630   2.823   0.371  0.1418 -1.5716 -1.4174
   53MOL   H10622050   2.770   2.914   0.306  1.1017 -2.4327  0.0471
   53MOL   C10722051   2.455   3.635   0.404 -0.0791 -0.4991  0.4950
   53MOL   C10822052   2.470   3.748   0.295 -0.6186 -0.1306 -0.4729
   53MOL   C10922053   2.370   3.726   0.182  0.0927  0.2876  0.3267
   53MOL   O11022054   2.411   3.754   0.065  0.0665 -0.2726  0.4436
   53MOL   O11122055   2.247   3.689   0.222 -0.0656  0.2910  0.5012
   53MOL   C11222056   2.148   3.681   0.125  0.5036 -0.5311  0.2633
   53MOL   C11322057   2.164   3.541   0.044  0.1040  0.0038 -0.1653
   53MOL   C11422058   2.130   3.423   0.132  0.2984  0.1975  0.2634
   53MOL   C11522059   2.140   3.286   0.073  0.0512 -0.0645  0.7440
   53MOL   H11622060   2.514   3.674   0.487 -0.4638  3.4533 -1.0012
   53MOL   H11722061   2.356   3.641   0.448 -0.0692 -0.6482  0.5390
   53MOL   H11822062   2.566   3.725   0.248  0.5830  0.0270  1.8521
   53MOL   H11922063   2.156   3.778   0.076  0.6723 -0.0307  1.2859
   53MOL   H12022064   2.055   3.674   0.181 -0.2433 -0.8690 -1.0046
   53MOL   H12122065   2.098   3.544   7.810 -1.1243 -0.5247  0.7387
   53MOL   H12222066   2.259   3.512   7.851 -0.0643  0.7535 -0.9992
   53MOL   H12322067   2.031   3.435   0.177  0.5368  0.5136  0.7099
   53MOL   H12422068   2.205   3.422   0.211  0.5792 -0.7949 -0.0087
   53MOL   H12522069   2.046   3.253   0.029  1.3953 -1.7577 -0.9297
   53MOL   H12622070   2.170   3.207   0.141  4.7052  2.5741  1.9688
   53MOL   H12722071   2.214   3.290   7.845 -0.8167  3.8338  0.0092
   53MOL   C12822072   2.471   3.895   0.349  0.0490 -0.1702  0.1178
   53MOL   C12922073   2.575   3.941   0.450  0.5608  0.5525  0.5169
   53MOL   C13022074   2.713   3.901   0.401  0.0911 -0.5107  0.4478
   53MOL   O13122075   2.787   3.840   0.469 -0.4485  0.1124 -0.2854
   53MOL   O13222076   2.739   3.942   0.275 -0.2058  0.4370 -0.1094
   53MOL   C13322077   2.852   3.886   0.209 -0.9915  0.4545 -0.0196
   53MOL   C13422078   2.850   3.943   0.065  0.1721 -0.1102  1.2454
   53MOL   C13522079   2.735   3.873   7.831  0.1952 -0.3058 -0.2957
   53MOL   C13622080   2.735   3.929   7.693  0.1792  0.4555  0.2358
   53MOL   H13722081   2.369   3.913   0.384 -0.6257  1.1697 -2.4064
   53MOL   H13822082   2.474   3.964   0.265 -0.8365 -1.0969 -0.6871
   53MOL   H13922083   2.560   3.889   0.544  0.4050 -0.4317 -0.0441
   53MOL   H14022084   2.837   3.779   0.219  0.3655  0.3391  0.9382
   53MOL   H14122085   2.938   3.919   0.268  1.0846  0.6615 -3.0570
   53MOL   H14222086   2.827   4.050   0.075 -0.6965 -0.0608 -1.0013
   53MOL   H14322087   2.945   3.963   0.016  0.0985  0.3730  1.2938
   53MOL   H14422088   2.639   3.917   0.006  1.0762  1.0429  0.6500
   53MOL   H14522089   2.752   3.765   7.831  0.4100 -0.2766  1.0572
   53MOL   H14622090   2.822   3.916   7.629 -0.1344 -1.4749  0.1515
   53MOL   H14722091   2.705   4.034   7.685 -1.7480 -0.2909 -3.4725
   53MOL   H14822092   2.660   3.879   7.632  0.0829 -0.8188  1.3768
   53MOL   C14922093   2.576   4.085   0.498 -0.3033 -0.1803 -0.3486
   53MOL   C15022094   2.438   4.132   0.545 -0.4130  0.0678  0.7183
   53MOL   C15122095   2.390   4.068   0.672  0.5219  0.3767 -0.3846
   53MOL   O15222096   2.292   3.997   0.678 -0.7505  0.4721  0.3423
   53MOL   O15322097   2.476   4.087   0.767  0.4170  0.3531 -0.4305
   53MOL   C15422098   2.452   4.042   0.895  0.0567  0.8841  0.2277
   53MOL   C15522099   2.503   4.160   0.979  0.7979  0.2097  0.1631
   53MOL   C15622100   2.427   4.286   0.957  0.4253  0.0491  0.3829
   53MOL   C15722101   2.478   4.402   1.051  0.4805 -0.5282  0.3082
   53MOL   H15822102   2.599   4.138   0.406 -1.9139 -1.8768 -1.7912
   53MOL   H15922103   2.651   4.104   0.574  0.6476  1.9228 -1.7923
   53MOL   H16022104   2.362   4.108   0.471 -0.4566 -1.4221  1.2212
   53MOL   H16122105   2.517   3.955   0.910 -0.1834  0.5632 -0.5675
   53MOL   H16222106   2.349   4.022   0.923 -0.7905  0.1589 -3.1942
   53MOL   H16322107   2.484   4.130   1.082 -1.6805 -2.4059 -0.9667
   53MOL   H16422108   2.611   4.170   0.978  0.7327  1.0435  1.5373
   53MOL   H16522109   2.321   4.275   0.977  0.8394 -0.2890  2.5012
   53MOL   H16622110   2.439   4.319   0.854 -2.9207 -1.2952 -0.4763
   53MOL   H16722111   2.585   4.420   1.049  0.5113 -0.1758 -5.7906
   53MOL   H16822112   2.460   4.402   1.158 -1.2909  0.1998  0.0410
   53MOL   H16922113   2.429   4.492   1.012 -0.5210 -0.7144  1.1025
   53MOL   C17022114   2.434   4.284   0.548  0.1738 -0.0136 -0.0943
   53MOL   C17122115   2.303   4.343   0.609  0.4326  0.3926 -0.0035
   53MOL   C17222116   2.330   4.494   0.626  0.8690 -0.4118  0.1596
   53MOL   O17322117   2.380   4.561   0.537  0.2082 -0.0725  0.2388
   53MOL   O17422118   2.273   4.540   0.729  0.2817 -0.3178  0.0215
   53MOL   C17522119   2.286   4.679   0.751  0.1293  0.2353 -0.4072
   53MOL   C17622120   2.167   4.729   0.834  0.2340  0.7540 -0.0608
   53MOL   C17722121   2.038   4.718   0.753  0.0732  0.5320 -0.0229
   53MOL   C17822122   1.932   4.801   0.824  1.5367 -0.0788  0.2532
   53MOL   H17922123   2.466   4.331   0.455 -1.1639  0.1517 -0.4773
   53MOL   H18022124   2.518   4.307   0.614  0.4376 -0.3540 -0.3094
   53MOL   H18122125   2.293   4.303   0.710 -0.0006 -1.5137 -0.7696
   53MOL   H18222126   2.291   4.740   0.661  1.8310  1.4568  0.5000
   53MOL   H18322127   2.380   4.693   0.803 -0.2690  0.2960  0.2962
   53MOL   H18422128   2.161   4.683   0.933 -0.3520 -1.2524 -0.9986
   53MOL   H18522129   2.177   4.835   0.857 -0.1517  0.7299  0.2218
   53MOL   H18622130   1.999   4.617   0.744  0.3860  0.5880 -2.3231
   53MOL   H18722131   2.060   4.745   0.650  0.7975  0.3949  0.0927
   53MOL   H18822132   1.921   4.749   0.919  0.1266 -1.0881 -0.4409
   53MOL   H18922133   1.840   4.810   0.765  2.4753  3.8843 -0.7278
   53MOL   H19022134   1.951   4.904   0.852 -0.2519  0.2171  0.4166
   53MOL   C19122135   2.183   4.307   0.518  0.2915  0.2895 -0.2529
   53MOL   C19222136   2.053   4.377   0.565 -0.0088  0.1312  0.7737
   53MOL   C19322137   2.004   4.467   0.453 -0.1058  0.2727 -0.5622
   53MOL   O19422138   2.029   4.587   0.445 -0.6081  0.6126 -0.5172
   53MOL   O19522139   1.934   4.397   0.365  0.3958 -0.0117  0.2369
   53MOL   C19622140   1.884   4.474   0.254  0.9119  0.1996  0.4010
   53MOL   C19722141   1.959   4.423   0.132  0.5715  0.0281 -0.4408
   53MOL   C19822142   1.914   4.493   0.001  0.7558  0.3519  0.1306
   53MOL   C19922143   1.997   4.452   7.729 -0.0567 -0.1882 -0.1632
   53MOL   H20022144   2.163   4.199   0.514  0.8001  0.1464  0.8625
   53MOL   H20122145   2.211   4.335   0.416  0.9642 -0.3404 -0.2432
   53MOL   H20222146   2.068   4.437   0.655  1.1721  2.0639 -0.6737
   53MOL   H20322147   1.886   4.583   0.261 -0.7599  0.2599  0.2215
   53MOL   H20422148   1.781   4.441   0.238  0.9602  0.5719 -0.7410
   53MOL   H20522149   2.066   4.441   0.139  1.0757 -3.2588  1.6081
   53MOL   H20622150   1.952   4.314   0.120  0.6498  0.2089 -2.2693
   53MOL   H20722151   1.923   4.598   0.026  0.5530  1.0743 -2.6766
   53MOL   H20822152   1.809   4.476   7.828  1.1656 -0.2065 -1.2441
   53MOL   H20922153   2.099   4.488   7.731  0.3049 -1.2231  0.1143
   53MOL   H21022154   1.946   4.471   7.634  0.4357  1.2944 -0.1432
   53MOL   H21122155   2.016   4.345   7.723 -2.2357 -0.5856 -0.3757
   53MOL   C21222156   1.946   4.272   0.615 -0.3270  0.1796 -0.7269
   53MOL   C21322157   1.995   4.203   0.746  0.0508 -0.4019  0.4534
   53MOL   C21422158   1.958   4.281   0.867 -0.3290  0.1707  0.4885
   53MOL   O21522159   2.045   4.334   0.932  0.0147  0.3243  0.2353
   53MOL   O21622160   1.830   4.294   0.895  0.1461  0.0122  0.0010
   53MOL   C21722161   1.798   4.372   1.007  0.5395  0.0392 -0.1309
   53MOL   C21822162   1.733   4.274   1.107 -0.0615 -0.9748 -0.4300
   53MOL   C21922163   1.604   4.198   1.063  0.5087 -0.4528 -0.1885
   53MOL   C22022164   1.557   4.104   1.173  0.7906  0.6310 -0.0967
   53MOL   H22122165   1.937   4.200   0.533 -1.0714  0.8569 -1.2564
   53MOL   H22222166   1.851   4.324   0.630  0.7267  2.1306 -0.6798
   53MOL   H22322167   2.103   4.206   0.755  0.2100 -2.1405 -0.6442
   53MOL   H22422168   1.720   4.446   0.987 -0.3365 -1.0424 -0.7420
   53MOL   H22522169   1.884   4.423   1.050 -0.6617  0.0496  2.4150
   53MOL   H22622170   1.805   4.195   1.128  0.8926 -0.2454 -0.9349
   53MOL   H22722171   1.706   4.320   1.202 -0.2349 -2.6909  0.3668
   53MOL   H22822172   1.607   4.132   0.976  0.0259  0.7799 -1.1606
   53MOL   H22922173   1.521   4.267   1.047 -0.4235 -1.3492  0.6916
   53MOL   H23022174   1.448   4.098   1.163  0.8378 -1.6525  0.4669
   53MOL   H23122175   1.600   4.106   1.273 -3.0316 -1.9183  1.7261
   53MOL   H23222176   1.583   4.004   1.137 -1.7258  0.4082 -1.4595
   53MOL   C23322177   1.943   4.057   0.735 -0.3911  0.0482  0.1857
   53MOL   C23422178   1.943   3.979   0.868  0.0519 -0.7373 -0.1932
   53MOL   C23522179   1.858   3.851   0.847  0.4945 -1.2643  0.3668
   53MOL   O23622180   1.913   3.740   0.826  0.9381 -0.0610  0.1850
   53MOL   O23722181   1.729   3.882   0.853  0.2402 -0.0987  0.4561
   53MOL   C23822182   1.630   3.788   0.824 -0.7327 -0.2092 -0.3054
   53MOL   C23922183   1.562   3.808   0.691  0.0041  0.3640  0.0670
   53MOL   C24022184   1.508   3.948   0.645 -0.1094  0.2591  0.5527
   53MOL   C24122185   1.390   4.000   0.729 -0.3886  0.9330  0.0216
   53MOL   H24222186   2.014   3.995   0.680 -0.1966 -0.3802  0.9163
   53MOL   H24322187   1.848   4.054   0.681 -1.6396  2.5119  2.1384
   53MOL   H24422188   1.887   4.034   0.945 -0.8836  0.2721 -1.5595
   53MOL   H24522189   1.551   3.802   0.897 -1.3346  0.1627 -1.0319
   53MOL   H24622190   1.645   3.681   0.839  1.6460  0.1851  0.4988
   53MOL   H24722191   1.641   3.785   0.619  0.5419  0.9853  0.4570
   53MOL   H24822192   1.495   3.725   0.668  1.6741 -0.7199 -0.9728
   53MOL   H24922193   1.474   3.935   0.542  1.2758 -0.4800  0.1671
   53MOL   H25022194   1.585   4.025   0.643  1.1857 -1.0302 -0.1415
   53MOL   H25122195   1.426   3.988   0.830 -1.3909  2.4898  0.5869
   53MOL   H25222196   1.309   3.932   0.702 -0.6939  2.1832 -2.3527
   53MOL   H25322197   1.371   4.106   0.709 -1.0264  0.5642 -1.4216
   53MOL   C25422198   2.086   3.947   0.924  0.2817  0.3149  0.7458
   53MOL   C25522199   2.107   3.880   1.065 -0.1773 -0.3286  0.6316
   53MOL   C25622200   2.236   3.796   1.059  0.1415  0.3975  0.1763
   53MOL   O25722201   2.346   3.841   1.078 -0.0903  0.3176 -0.3406
   53MOL   O25822202   2.209   3.677   1.026 -0.5506 -0.3019  0.2494
   53MOL   C25922203   2.314   3.590   0.987 -0.4948  0.0246  0.0389
   53MOL   C26022204   2.263   3.485   0.889 -0.1729  0.0697 -0.2897
   53MOL   C26122205   2.155   3.400   0.942 -0.9889 -0.1878  1.1757
   53MOL   C26222206   2.106   3.299   0.837 -0.7197  0.3100 -0.0738
   53MOL   H26322207   2.147   4.037   0.929  0.1393  0.5380 -1.2267
   53MOL   H26422208   2.137   3.884   0.851 -1.2806  0.4663 -0.5019
   53MOL   H26522209   2.030   3.812   1.101  0.2305 -1.8414 -1.2246
   53MOL   H26622210   2.363   3.551   1.076 -0.0723 -0.2412 -0.3100
   53MOL   H26722211   2.400   3.640   0.944 -0.0314 -0.7088  0.1003
   53MOL   H26822212   2.231   3.547   0.806  1.0235 -0.5194 -1.1983
   53MOL   H26922213   2.349   3.424   0.863 -0.2645 -0.2251  0.0961
   53MOL   H27022214   2.060   3.453   0.954 -0.8307  0.9944 -2.2792
   53MOL   H27122215   2.206   3.350   1.025  1.9175  1.8219  0.6847
   53MOL   H27222216   2.084   3.347   0.742  0.1368 -2.2361 -1.6306
   53MOL   H27322217   2.022   3.244   0.879 -2.0912  0.9674 -1.9108
   53MOL   H27422218   2.182   3.229   0.802 -1.6979 -2.4847  3.0418
   53MOL   C27522219   2.090   3.990   1.164  0.7271 -0.3736 -0.2453
   53MOL   C27622220   2.035   3.949   1.296  0.5565 -0.3105 -0.2833
   53MOL   C27722221   2.130   3.852   1.370 -0.5500  0.0645  0.4077
   53MOL   O27822222   2.105   3.733   1.395 -0.1163 -0.0395 -0.0861
   53MOL   O27922223   2.250   3.903   1.400 -0.1159  0.4026 -0.0667
   53MOL   C28022224   2.353   3.823   1.442  0.7113  0.0143  0.8756
   53MOL   C28122225   2.356   3.820   1.594 -0.7832 -0.0367 -0.1468
   53MOL   C28222226   2.483   3.763   1.643 -0.3969  0.4940  0.0671
   53MOL   C28322227   2.493   3.718   1.795  0.6989 -0.4435  0.1215
   53MOL   H28422228   2.025   4.069   1.127 -1.1434 -2.5340 -1.6855
   53MOL   H28522229   2.186   4.043   1.165  0.4819  0.0802 -0.6687
   53MOL   H28622230   1.947   3.889   1.274 -0.1104  0.1324  1.1412
   53MOL   H28722231   2.441   3.866   1.395  1.0165  1.6086  2.8366
   53MOL   H28822232   2.348   3.721   1.404 -0.0716  0.0568  0.8669
   53MOL   H28922233   2.335   3.919   1.636  0.9033  0.9003 -1.4071
   53MOL   H29022234   2.275   3.757   1.630  0.0849  0.4396  2.7350
   53MOL   H29122235   2.567   3.828   1.617 -1.0202  1.1727 -0.2847
   53MOL   H29222236   2.508   3.680   1.577 -0.5485  1.4399 -1.2102
   53MOL   H29322237   2.590   3.671   1.815  1.5040  0.1912 -2.2097
   53MOL   H29422238   2.414   3.644   1.809  0.3862 -0.7231 -2.8404
   53MOL   H29522239   2.478   3.802   1.862  0.2209 -1.0074  0.7380
   53MOL   C29622240   2.013   4.078   1.379 -0.5648 -0.7383  0.4683
   53MOL   C29722241   1.954   4.060   1.520  0.0380 -0.5877  0.3035
   53MOL   C29822242   2.050   4.108   1.630  0.1992 -0.2321  0.2132
   53MOL   O29922243   2.108   4.031   1.705  0.2395  0.2181 -0.0646
   53MOL   O30022244   2.061   4.242   1.626 -0.0622  0.1094  0.6049
   53MOL   C30122245   2.138   4.315   1.718 -0.1440 -0.0619 -0.4104
   53MOL   C30222246   2.080   4.317   1.864 -0.3975 -0.5195  0.3079
   53MOL   C30322247   1.958   4.409   1.868  0.2998 -0.5564  0.6524
   53MOL   C30422248   1.883   4.419   2.006 -0.3896  0.5018 -0.2459
   53MOL   H30522249   1.955   4.153   1.325 -1.6300 -2.5332 -0.9194
   53MOL   H30622250   2.107   4.134   1.386 -0.7216 -0.5639  1.1565
   53MOL   H30722251   1.932   3.958   1.548 -2.0865 -1.2986 -3.6235
   53MOL   H30822252   2.137   4.417   1.682  0.0446  0.2910  0.5527
   53MOL   H30922253   2.236   4.267   1.714 -0.5571 -0.8846 -0.8915
   53MOL   H31022254   2.043   4.221   1.902  0.9559 -1.1243  0.1129
   53MOL   H31122255   2.149   4.361   1.936  1.2252 -1.0839 -0.8808
   53MOL   H31222256   1.892   4.379   1.787  2.0194 -1.4462 -0.4437
   53MOL   H31322257   1.989   4.508   1.837 -1.9407  1.0487  3.2311
   53MOL   H31422258   1.945   4.466   2.082  1.3352  0.3266 -1.5125
   53MOL   H31522259   1.869   4.314   2.032 -0.0992  1.0342  2.1528
   53MOL   H31622260   1.790   4.475   2.007 -0.5342  0.2631  1.3350
   53MOL   C31722261   1.810   4.128   1.532  0.4026  0.0522 -0.4529
   53MOL   C31822262   1.739   4.117   1.672  0.9254 -0.2909 -0.5357
   53MOL   C31922263   1.617   4.207   1.694  0.1625 -0.5589 -0.5941
   53MOL   O32022264   1.612   4.275   1.798 -0.5658 -0.1461 -0.1020
   53MOL   O32122265   1.528   4.200   1.586  0.2420 -0.5588  0.2082
   53MOL   C32222266   1.402   4.262   1.604 -0.3694  1.0784  0.4366
   53MOL   C32322267   1.325   4.261   1.470  0.0861 -0.2109  0.0308
   53MOL   C32422268   1.255   4.402   1.453  0.5218  0.9084  0.3665
   53MOL   C32522269   1.147   4.402   1.345 -0.5620 -0.1125 -0.4394
   53MOL   H32622270   1.751   4.075   1.457  0.3385 -0.6793  0.1064
   53MOL   H32722271   1.819   4.230   1.495 -0.4076  0.4963  0.5205
   53MOL   H32822272   1.806   4.161   1.746  0.1977  1.0646 -0.6559
   53MOL   H32922273   1.424   4.367   1.623 -0.6339  1.3066 -0.4660
   53MOL   H33022274   1.343   4.230   1.690  0.2751 -0.9162  0.1609
   53MOL   H33122275   1.387   4.238   1.384 -0.3986  0.8615 -0.6229
   53MOL   H33222276   1.251   4.182   1.459 -0.8909  0.6469  0.3066
   53MOL   H33322277   1.326   4.479   1.424 -0.7131  1.3660 -1.5124
   53MOL   H33422278   1.199   4.434   1.541  2.7386  1.7329  1.5419
   53MOL   H33522279   1.110   4.494   1.299 -4.1198 -0.0111  2.4033
   53MOL   H33622280   1.055   4.364   1.391  0.2522 -2.3126 -0.5983
   53MOL   H33722281   1.168   4.325   1.271 -0.7695  0.0451 -0.6655
   53MOL   C33822282   1.701   3.971   1.716  0.0714 -0.5360 -0.1579
   53MOL   C33922283   1.560   3.919   1.678  1.1317  0.3896 -0.0675
   53MOL   C34022284   1.544   3.906   1.517 -0.3159  0.2447 -0.1296
   53MOL   O34122285   1.459   3.955   1.444 -0.4570 -0.3896 -0.1613
   53MOL   O34222286   1.638   3.815   1.470 -0.7885 -0.0113  0.3910
   53MOL   C34322287   1.637   3.782   1.334  0.4261 -0.4561 -0.0728
   53MOL   C34422288   1.738   3.669   1.306 -0.0922  0.3807  0.1080
   53MOL   C34522289   1.734   3.629   1.156  1.1213 -0.0309  0.8560
   53MOL   C34622290   1.842   3.535   1.127  0.2891 -0.6929 -0.0965
   53MOL   H34722291   1.702   3.976   1.825  1.8388  1.2892 -0.2350
   53MOL   H34822292   1.787   3.908   1.695  0.4097  0.4228 -1.7568
   53MOL   H34922293   1.476   3.984   1.703  0.4766 -0.4877  0.0244
   53MOL   H35022294   1.676   3.867   1.279  0.6775 -2.3749 -2.9511
   53MOL   H35122295   1.543   3.750   1.289 -0.2014  0.8771  0.2664
   53MOL   H35222296   1.841   3.694   1.334  0.7493  0.5491 -2.9911
   53MOL   H35322297   1.723   3.578   1.364 -0.7082  0.1480 -0.4178
   53MOL   H35422298   1.728   3.712   1.086 -1.3547 -0.1487  0.8648
   53MOL   H35522299   1.646   3.568   1.133  2.1087  0.0959 -3.6847
   53MOL   H35622300   1.853   3.460   1.206 -0.3262 -1.8516 -1.0931
   53MOL   H35722301   1.935   3.591   1.127 -0.2423  0.2214  0.7588
   53MOL   H35822302   1.844   3.490   1.028 -0.0021  1.1310 -0.9560
   53MOL   C35922303   1.526   3.777   1.743  0.2225  0.1731  0.1762
   53MOL   C36022304   1.376   3.719   1.729 -0.7105 -0.1525  0.1736
   53MOL   C36122305   1.383   3.572   1.770  0.1947  0.3264 -0.5669
   53MOL   O36222306   1.359   3.541   1.885  0.0965 -0.2053  0.5415
   53MOL   O36322307   1.419   3.489   1.678  0.4656  0.3226  0.4298
   53MOL   C36422308   1.444   3.349   1.698 -0.0022  0.7781  0.3559
   53MOL   C36522309   1.467   3.281   1.563  0.1765  0.4326 -0.6736
   53MOL   C36622310   1.586   3.341   1.480 -0.7063  0.1378  0.2927
   53MOL   C36722311   1.596   3.272   1.347  0.5733 -0.6386 -0.2627
   53MOL   H36822312   1.548   3.778   1.850 -1.4769 -2.5419  0.6037
   53MOL   H36922313   1.590   3.704   1.693 -1.3546 -0.2914 -1.2037
   53MOL   H37022314   1.364   3.726   1.621  0.4193  0.1312  0.0530
   53MOL   H37122315   1.364   3.289   1.740  0.6683 -0.8288 -0.6405
   53MOL   H37222316   1.535   3.339   1.758  0.5223 -0.9231 -0.7076
   53MOL   H37322317   1.485   3.175   1.580  1.8163  0.9778  1.1222
   53MOL   H37422318   1.375   3.302   1.507 -0.2490 -1.3410 -0.6679
   53MOL   H37522319   1.682   3.347   1.531  0.2761 -0.9943 -1.3783
   53MOL   H37622320   1.572   3.446   1.453  1.2731  0.3436 -0.0069
   53MOL   H37722321   1.650   3.334   1.275  1.0337  1.0134  1.4738
   53MOL   H37822322   1.496   3.258   1.305  0.9711  0.6792 -1.6807
   53MOL   H37922323   1.630   3.169   1.362  0.4128 -0.9125 -1.7138
   53MOL   C38022324   1.253   3.793   1.796 -0.4283  0.3987  0.2820
   53MOL   C38122325   1.112   3.746   1.773 -0.3262 -0.7735 -0.2534
   53MOL   C38222326   1.011   3.786   1.881 -0.4421 -0.3783 -0.3212
   53MOL   O38322327   0.911   3.857   1.865 -0.7427 -0.5036  0.4461
   53MOL   O38422328   1.052   3.733   1.996 -0.3475  0.6056  0.8088
   53MOL   C38522329   0.972   3.738   2.112  0.4623  0.1321 -0.4766
   53MOL   C38622330   1.042   3.787   2.239  0.6269  0.4056  0.4681
   53MOL   C38722331   1.093   3.931   2.229  0.1507 -0.2381 -0.0322
   53MOL   C38822332   1.146   3.974   2.371 -0.1766  0.3308 -0.2784
   53MOL   H38922333   1.252   3.898   1.765 -0.1715  0.8131  1.6705
   53MOL   H39022334   1.280   3.792   1.901 -1.8588  0.3171  0.6568
   53MOL   H39122335   1.118   3.639   1.787  0.2262 -0.5971  0.9256
   53MOL   H39222336   0.935   3.638   2.135 -1.5298  0.9934  0.0685
   53MOL   H39322337   0.875   3.786   2.104  0.1563 -0.4828 -0.4294
   53MOL   H39422338   0.966   3.775   2.316  1.1350 -2.0766  0.6288
   53MOL   H39522339   1.111   3.709   2.271 -0.7443 -0.5943  1.0288
   53MOL   H39622340   1.001   3.978   2.195 -0.5387 -1.4034  0.2107
   53MOL   H39722341   1.162   3.929   2.145  1.6961  0.2925  1.1923
   53MOL   H39822342   1.061   3.983   2.439 -0.9595 -0.9815 -1.0644
   53MOL   H39922343   1.197   4.071   2.371  1.9807 -0.7523  2.1467
   53MOL   H40022344   1.224   3.906   2.406 -0.6323 -0.3475 -0.5673
   53MOL   C40122345   1.053   3.772   1.627  0.4405 -0.1932  0.1068
   53MOL   C40222346   1.043   3.922   1.580 -0.6096  0.1311  0.2985
   53MOL   C40322347   0.946   3.960   1.469 -0.6117  0.3407 -0.7576
   53MOL   O40422348   0.946   4.083   1.429  0.4264  0.1190  0.1861
   53MOL   O40522349   0.864   3.865   1.424 -0.0537  0.1036  0.7879
   53MOL   C40622350   0.777   3.893   1.313  0.1997 -0.3104 -0.4462
   53MOL   C40722351   0.826   3.824   1.181  0.0204 -0.7075 -0.0051
   53MOL   C40822352   0.859   3.676   1.195  0.1035 -0.4080 -0.9375
   53MOL   C40922353   0.742   3.582   1.199 -0.3557  0.7626 -0.8544
   53MOL   H41022354   0.954   3.727   1.623  0.2288  0.1984  0.8244
   53MOL   H41122355   1.111   3.719   1.552  0.0533 -0.5423  0.0553
   53MOL   H41222356   1.143   3.960   1.562  0.6211 -3.0513  0.0327
   53MOL   H41322357   0.760   3.998   1.288 -1.2038 -0.7789 -1.4844
   53MOL   H41422358   0.676   3.868   1.345  0.4351 -0.0843  0.5023
   53MOL   H41522359   0.746   3.841   1.109 -1.1247 -0.7692  1.2345
   53MOL   H41622360   0.918   3.872   1.149  0.0949 -0.0559  1.1643
   53MOL   H41722361   0.930   3.656   1.276 -1.5017  0.9455  0.8483
   53MOL   H41822362   0.910   3.648   1.103 -1.2771  0.2390 -1.8981
   53MOL   H41922363   0.689   3.582   1.104 -4.7251  4.1814  1.3752
   53MOL   H42022364   0.667   3.603   1.275  1.7377 -1.0064  1.8026
   53MOL   H42122365   0.762   3.481   1.233 -1.1502  0.2643 -1.8567
   53MOL   H42222366   1.003   3.974   1.667  0.1480  2.4045 -0.6924
   54MOL     C122367   6.731   2.088   1.115  0.0465  0.5215  0.4415
   54MOL     C222368   6.800   1.954   1.152  0.3922  0.0276  0.2357
   54MOL     C322369   6.696   1.838   1.149 -0.2345 -0.1239 -0.4654
   54MOL     O422370   6.583   1.849   1.100  0.2770  0.0829  0.4955
   54MOL     O522371   6.747   1.726   1.208  0.1301  0.2180  0.5081
   54MOL     C622372   6.676   1.608   1.203 -0.4315 -0.1608 -0.0990
   54MOL     C722373   6.763   1.484   1.230  0.0485 -0.1677  0.1657
   54MOL     C822374   6.840   1.488   1.361 -0.2198 -0.2631 -0.5251
   54MOL     C922375   6.882   1.350   1.414 -0.8442  0.0464  0.5283
   54MOL    H1022376   6.663   2.116   1.195 -0.1635 -0.0843  0.4741
   54MOL    H1122377   6.813   2.160   1.111 -0.8092  1.5115  0.6119
   54MOL    H1222378   6.824   1.960   1.258  1.5116  0.4518 -0.0314
   54MOL    H1322379   6.631   1.596   1.104 -0.2268  1.1694 -0.3565
   54MOL    H1422380   6.595   1.603   1.276 -0.5470  1.0637 -0.1396
   54MOL    H1522381   6.697   1.398   1.225 -0.0097 -0.0580 -1.0130
   54MOL    H1622382   6.833   1.471   1.147 -0.5875 -1.0596 -0.2278
   54MOL    H1722383   6.777   1.532   1.439 -2.6333 -1.9195 -1.4955
   54MOL    H1822384   6.924   1.557   1.356 -0.1189 -0.2902  0.7600
   54MOL    H1922385   6.930   1.360   1.511 -0.6181  1.8034  0.2605
   54MOL    H2022386   6.952   1.296   1.351 -0.3747 -1.4433  2.2934
   54MOL    H2122387   6.800   1.283   1.436 -2.4477  1.9819  0.6326
   54MOL    H2222388   6.669   2.081   1.026 -0.2529 -2.3438  0.8141
   54MOL    C2322389   6.930   1.924   1.084 -0.0551 -0.6800 -0.4927
   54MOL    C2422390   7.064   1.946   1.167 -0.0502 -0.4158  0.7933
   54MOL    C2522391   7.083   1.832   1.271 -0.6855  0.1357 -0.0295
   54MOL    O2622392   7.128   1.724   1.246 -0.4736 -0.1520 -0.7007
   54MOL    O2722393   7.025   1.877   1.390  0.7537 -0.0376 -0.3577
   54MOL    C2822394   7.021   1.783   1.499  0.1171  0.0248  0.6033
   54MOL    C2922395   6.876   1.786   1.552 -0.3864 -0.8862  0.1880
   54MOL    C3022396   6.857   1.700   1.678 -0.2905 -0.2062 -0.6433
   54MOL    C3122397   6.712   1.698   1.724 -0.1251 -0.5268 -0.2163
   54MOL    H3222398   6.929   1.983   0.992  2.3157 -1.5992 -1.1345
   54MOL    H3322399   6.929   1.825   1.038  1.9556 -0.1974 -1.6407
   54MOL    H3422400   7.049   2.042   1.215 -2.6901 -0.2936 -0.1992
   54MOL    H3522401   7.083   1.817   1.582  0.7083  2.1274 -0.6417
   54MOL    H3622402   7.055   1.683   1.473 -1.7884  0.2150 -2.9065
   54MOL    H3722403   6.856   1.891   1.573 -1.8163 -1.1661  0.3004
   54MOL    H3822404   6.802   1.763   1.475  0.6902  1.1572 -1.4881
   54MOL    H3922405   6.924   1.746   1.750  2.2288 -1.1963 -2.2987
   54MOL    H4022406   6.893   1.598   1.664 -2.6833 -0.8747 -2.3606
   54MOL    H4122407   6.689   1.704   1.830 -1.9151  0.3152 -0.6375
   54MOL    H4222408   6.655   1.611   1.691 -1.4568 -0.1406  1.0071
   54MOL    H4322409   6.651   1.778   1.681 -0.2084 -0.5888 -0.2149
   54MOL    C4422410   7.192   1.944   1.081  0.5402  0.0614 -0.1290
   54MOL    C4522411   7.283   2.073   1.096  0.1578  0.9605  1.0494
   54MOL    C4622412   7.229   2.198   1.027 -0.4122 -0.1088 -0.3208
   54MOL    O4722413   7.107   2.203   1.014 -0.0652 -0.0347  0.1072
   54MOL    O4822414   7.326   2.292   1.024  0.2674  0.0858  0.8023
   54MOL    C4922415   7.310   2.423   0.967  0.1564  0.6923  0.2027
   54MOL    C5022416   7.342   2.421   0.826  0.5529 -0.3156  0.3333
   54MOL    C5122417   7.487   2.395   0.789  0.4997  0.4282  0.2655
   54MOL    C5222418   7.542   2.457   0.662 -1.0281 -0.7509 -0.0604
   54MOL    H5322419   7.161   1.934   0.977  0.6551 -1.1620 -0.0496
   54MOL    H5422420   7.255   1.857   1.095  2.8838  1.7776  0.3477
   54MOL    H5522421   7.376   2.063   1.040 -1.0362  1.1994 -1.0415
   54MOL    H5622422   7.377   2.491   1.020 -0.9640  2.0175 -0.0392
   54MOL    H5722423   7.206   2.447   0.986 -0.3163 -0.7663 -0.5102
   54MOL    H5822424   7.281   2.348   0.772  0.3042  0.5558 -0.5725
   54MOL    H5922425   7.310   2.516   0.784 -0.7109 -1.4139 -1.2655
   54MOL    H6022426   7.498   2.287   0.787 -0.0291  0.3850 -1.1332
   54MOL    H6122427   7.543   2.431   0.875 -0.1249  0.3522  0.7062
   54MOL    H6222428   7.646   2.423   0.652 -0.3571  1.3064 -0.2740
   54MOL    H6322429   7.540   2.565   0.669 -0.3820 -0.9215  3.5199
   54MOL    H6422430   7.490   2.426   0.571 -1.3947 -0.7282  0.1427
   54MOL    C6522431   7.337   2.092   1.234 -0.1100  0.0957  0.0743
   54MOL    C6622432   7.454   2.016   1.292  0.2782 -0.6051  0.6179
   54MOL    C6722433   7.582   2.031   1.212 -0.2190 -0.4128 -0.0099
   54MOL    O6822434   7.657   2.128   1.231  0.7492 -0.0883  0.3425
   54MOL    O6922435   7.593   1.939   1.117  0.1773 -0.3284 -0.1259
   54MOL    C7022436   7.692   1.948   1.012 -0.8845  0.7037  0.5421
   54MOL    C7122437   7.619   2.006   0.878  0.0197  0.1233 -0.6725
   54MOL    C7222438   7.726   2.012   0.768  0.6741 -0.6271  0.0005
   54MOL    C7322439   7.667   2.054   0.642  0.1000 -0.6620 -0.4570
   54MOL    H7422440   7.256   2.077   1.305  0.2088 -1.3264  0.1342
   54MOL    H7522441   7.346   2.199   1.257  0.0418 -0.1583  1.1943
   54MOL    H7622442   7.433   1.909   1.292  0.3112 -0.6112  0.3446
   54MOL    H7722443   7.735   1.852   0.985  2.3604  1.7861  1.6364
   54MOL    H7822444   7.774   2.010   1.048  0.3108 -0.0731 -0.8002
   54MOL    H7922445   7.534   1.944   0.849  1.0065 -1.4154 -0.3682
   54MOL    H8022446   7.575   2.100   0.912 -2.3208 -0.8184 -0.9850
   54MOL    H8122447   7.771   1.913   0.756 -0.7260 -1.0912 -1.4819
   54MOL    H8222448   7.806   2.082   0.793 -0.3683  0.2648  0.8700
   54MOL    H8322449   7.634   2.156   0.659  0.0256 -0.8097  0.3069
   54MOL    H8422450   7.576   1.996   0.629 -1.1312  1.0872  0.1564
   54MOL    H8522451   7.736   2.037   0.560 -0.0466  0.0605 -0.7328
   54MOL    C8622452   7.472   2.043   1.442 -1.2228 -0.2741  0.3221
   54MOL    C8722453   7.388   1.964   1.540 -0.2299 -0.1952 -0.3351
   54MOL    C8822454   7.423   1.817   1.528 -0.2063 -0.6513  0.3129
   54MOL    O8922455   7.346   1.731   1.486 -0.1802 -0.1077  0.0919
   54MOL    O9022456   7.548   1.789   1.580  0.2415  0.1222  0.5645
   54MOL    C9122457   7.589   1.653   1.585  0.1714 -0.1510 -0.0347
   54MOL    C9222458   7.707   1.622   1.494 -0.0764 -0.1742  0.5450
   54MOL    C9322459   7.687   1.669   1.352  0.5206 -0.0806  0.0761
   54MOL    C9422460   7.797   1.642   1.249 -0.7726 -0.3035 -0.4848
   54MOL    H9522461   7.461   2.149   1.463  1.7651  0.2175 -0.4567
   54MOL    H9622462   7.575   2.018   1.465 -0.6981  1.2473 -0.2921
   54MOL    H9722463   7.286   1.973   1.501 -1.0653  0.3981  1.8784
   54MOL    H9822464   7.513   1.577   1.564 -1.1481  0.5738  1.9620
   54MOL    H9922465   7.614   1.628   1.689  1.6892 -0.2605 -0.4051
   54MOL   H10022466   7.795   1.677   1.528 -0.2168 -0.6878  1.7568
   54MOL   H10122467   7.724   1.515   1.489 -0.0639 -0.0993 -1.3978
   54MOL   H10222468   7.676   1.777   1.359 -0.0975  0.0205 -2.1852
   54MOL   H10322469   7.593   1.631   1.312  1.2360 -3.1092  1.1246
   54MOL   H10422470   7.769   1.699   1.160  0.0306  1.0906  0.1480
   54MOL   H10522471   7.797   1.537   1.221 -0.1879 -0.1610 -1.0198
   54MOL   H10622472   0.043   1.668   1.286  0.6338 -1.2092 -3.4322
   54MOL   C10722473   7.407   2.012   1.689  0.7393 -0.0276 -0.3587
   54MOL   C10822474   7.360   2.160   1.712 -0.6239  0.3421 -0.4662
   54MOL   C10922475   7.205   2.173   1.715 -0.1162  0.5289 -1.1553
   54MOL   O11022476   7.141   2.137   1.812  0.1156  0.1749 -0.1760
   54MOL   O11122477   7.157   2.212   1.598  0.1944  0.1477  0.0809
   54MOL   C11222478   7.020   2.214   1.576  0.2849  0.7330  0.1226
   54MOL   C11322479   6.982   2.259   1.430  0.3337 -1.0725 -0.4575
   54MOL   C11422480   7.032   2.402   1.410  0.0614 -0.4924 -0.2266
   54MOL   C11522481   6.981   2.463   1.279  0.1547 -0.0186 -0.5307
   54MOL   H11622482   7.509   1.996   1.724  0.2459 -0.3556  0.9488
   54MOL   H11722483   7.357   1.947   1.760 -1.6468  0.4210 -1.5690
   54MOL   H11822484   7.405   2.231   1.643 -1.1462  0.8597 -0.2815
   54MOL   H11922485   6.984   2.289   1.646  1.9959  3.7776 -2.1217
   54MOL   H12022486   6.970   2.121   1.603  0.2075  1.0224  1.0074
   54MOL   H12122487   7.045   2.211   1.356  0.0267  0.2657 -1.5902
   54MOL   H12222488   6.879   2.233   1.403  0.0259 -1.3200  0.8847
   54MOL   H12322489   7.140   2.396   1.419  0.3194  0.4812 -2.4447
   54MOL   H12422490   7.001   2.471   1.489  2.6753  2.4943 -1.6901
   54MOL   H12522491   7.020   2.400   1.199  0.1975 -1.2341  0.4191
   54MOL   H12622492   7.021   2.563   1.273 -0.3731  0.2147 -0.2327
   54MOL   H12722493   6.876   2.490   1.271  0.1209 -0.1881 -0.6606
   54MOL   C12822494   7.425   2.221   1.841  0.4608  0.2280  0.7317
   54MOL   C12922495   7.584   2.232   1.855 -0.0464 -0.2924  0.2028
   54MOL   C13022496   7.648   2.338   1.765 -0.0420 -0.4472  0.4721
   54MOL   O13122497   7.707   2.431   1.814 -0.4302 -0.5618  0.0679
   54MOL   O13222498   7.624   2.321   1.631 -0.5087 -0.0207 -0.1939
   54MOL   C13322499   7.681   2.409   1.536 -0.9097 -0.2925 -0.0786
   54MOL   C13422500   7.593   2.526   1.497  0.2567  0.6008  0.0555
   54MOL   C13522501   7.462   2.492   1.433 -0.5273 -0.1930  0.4662
   54MOL   C13622502   7.465   2.435   1.289 -0.6450 -0.1347 -0.2607
   54MOL   H13722503   7.384   2.178   1.932  0.3658 -0.6106  0.2988
   54MOL   H13822504   7.394   2.325   1.845 -0.8121 -0.1340  0.6937
   54MOL   H13922505   7.633   2.151   1.801 -0.6211  0.0392 -0.8346
   54MOL   H14022506   7.698   2.347   1.448  0.7645 -0.8941  0.6581
   54MOL   H14122507   7.779   2.451   1.557 -0.7666 -0.0823 -1.1509
   54MOL   H14222508   7.585   2.598   1.578  2.9977  1.4411 -0.3689
   54MOL   H14322509   7.660   2.583   1.432  2.2933 -0.9917  0.7027
   54MOL   H14422510   7.407   2.586   1.421 -1.9103 -1.1822 -1.1719
   54MOL   H14522511   7.395   2.436   1.497 -3.0961  0.7647 -1.3181
   54MOL   H14622512   7.363   2.423   1.253 -1.2118  2.0758  0.5212
   54MOL   H14722513   7.508   2.335   1.287 -0.7135 -0.1484 -1.7571
   54MOL   H14822514   7.525   2.500   1.226  0.6987 -0.7878  0.3333
   54MOL   C14922515   7.642   2.231   1.996 -0.6063  0.2918  0.2609
   54MOL   C15022516   7.599   2.121   2.087  0.2173  0.1216  0.5118
   54MOL   C15122517   7.597   1.988   2.011 -0.1516 -0.6466 -0.0580
   54MOL   O15222518   7.485   1.924   2.006  0.5213  0.3579 -0.0370
   54MOL   O15322519   7.715   1.946   1.969 -0.4908  0.5598 -0.1606
   54MOL   C15422520   7.725   1.804   1.949 -0.2432  0.8404 -0.3545
   54MOL   C15522521   7.831   1.785   1.837 -0.1968 -0.0238 -0.0048
   54MOL   C15622522   0.017   1.642   1.823 -0.1283  0.0866 -0.3670
   54MOL   C15722523   0.139   1.645   1.735 -0.3167 -0.1065  0.6504
   54MOL   H15822524   7.621   2.326   2.045  1.9393  0.6777  0.6333
   54MOL   H15922525   7.750   2.225   1.986 -0.7831 -0.8042 -1.2100
   54MOL   H16022526   7.496   2.148   2.112 -0.5482 -1.6372 -0.6997
   54MOL   H16122527   7.637   1.771   1.894 -0.6099 -0.6346  1.0898
   54MOL   H16222528   7.747   1.754   2.043  1.0091  0.4448 -0.8427
   54MOL   H16322529   7.784   1.836   1.754 -0.9631  2.5099  1.9432
   54MOL   H16422530   0.065   1.841   1.871  1.2098 -1.0876 -1.7278
   54MOL   H16522531   7.790   1.578   1.787  1.3040 -0.9449 -1.7761
   54MOL   H16622532   0.056   1.609   1.920  1.5822 -1.2742 -1.5049
   54MOL   H16722533   0.128   1.693   1.638  2.5977 -0.1058  0.2736
   54MOL   H16822534   0.159   1.539   1.720  1.3549  0.0788  1.5251
   54MOL   H16922535   0.220   1.688   1.794  2.3945 -0.7085 -2.5048
   54MOL   C17022536   7.692   2.121   2.216 -0.1742  0.4248 -0.1661
   54MOL   C17122537   7.626   2.070   2.343  0.2967  0.0832 -0.4662
   54MOL   C17222538   7.635   1.913   2.349  0.8124  0.1761  0.2025
   54MOL   O17322539   7.735   1.845   2.315 -0.3810  0.1607  0.6587
   54MOL   O17422540   7.524   1.860   2.401  0.2481  0.0917  0.1187
   54MOL   C17522541   7.495   1.718   2.399  0.3370 -0.4127  0.4001
   54MOL   C17622542   7.347   1.705   2.444  0.3256  0.5566 -0.3596
   54MOL   C17722543   7.291   1.558   2.441  0.6756  0.0039  0.9199
   54MOL   C17822544   7.136   1.552   2.452 -0.0074  0.4712 -0.3437
   54MOL   H17922545   7.744   2.216   2.226  2.9286 -1.3086  0.5633
   54MOL   H18022546   7.777   2.060   2.185  0.6366  1.6055 -0.2689
   54MOL   H18122547   7.520   2.087   2.322  0.6836  1.7933 -1.1493
   54MOL   H18222548   7.565   1.667   2.466  0.0019 -0.9124  0.3688
   54MOL   H18322549   7.507   1.685   2.295 -0.5118  1.7915 -0.4288
   54MOL   H18422550   7.338   1.764   2.535 -1.7400  0.7325 -0.6441
   54MOL   H18522551   7.288   1.763   2.373 -0.8461  0.6173  0.6387
   54MOL   H18622552   7.327   1.504   2.528  0.7658 -3.9016 -1.4721
   54MOL   H18722553   7.321   1.496   2.358 -2.3350 -0.5193  0.1456
   54MOL   H18822554   7.102   1.450   2.434 -0.5164  0.5503  0.1540
   54MOL   H18922555   7.084   1.627   2.394  0.3843  1.9841  1.2248
   54MOL   H19022556   7.114   1.581   2.555  0.8238 -1.2454  0.3502
   54MOL   C19122557   7.679   2.132   2.475 -0.5850  0.4116 -0.6861
   54MOL   C19222558   7.658   2.285   2.484 -0.1001 -0.8434 -0.1174
   54MOL   C19322559   7.514   2.324   2.526 -0.4679 -0.4631 -0.0712
   54MOL   O19422560   7.443   2.401   2.456 -0.5379 -0.1673 -0.1907
   54MOL   O19522561   7.473   2.280   2.644  0.0193 -0.3636  0.3453
   54MOL   C19622562   7.350   2.312   2.702 -0.0099 -0.2430  0.1732
   54MOL   C19722563   7.344   2.223   2.834 -0.1450  0.1951 -0.0378
   54MOL   C19822564   7.408   2.079   2.819 -0.0738  0.0071 -0.3672
   54MOL   C19922565   7.370   1.989   2.938 -0.5342  0.4975 -0.4018
   54MOL   H20022566   7.785   2.107   2.484 -0.9191 -0.1650  1.8976
   54MOL   H20122567   7.633   2.097   2.568 -1.9139  1.1863 -1.0480
   54MOL   H20222568   7.666   2.314   2.379  1.8968  0.8535  0.4659
   54MOL   H20322569   7.275   2.270   2.635  1.0650 -0.2102 -1.0857
   54MOL   H20422570   7.346   2.421   2.711 -0.5953 -0.3516  1.2921
   54MOL   H20522571   7.393   2.278   2.914  0.3425  0.7564 -0.7257
   54MOL   H20622572   7.237   2.223   2.856 -0.0079  2.8186  0.7041
   54MOL   H20722573   7.517   2.089   2.826 -0.2392  1.3730  0.5017
   54MOL   H20822574   7.384   2.029   2.726  0.2463 -0.3606 -0.2556
   54MOL   H20922575   7.409   2.017   3.035  0.2174 -1.6096 -0.0810
   54MOL   H21022576   7.413   1.889   2.933 -1.5651  0.0870 -1.4096
   54MOL   H21122577   7.261   1.986   2.947 -0.6248  2.3962 -0.5459
   54MOL   C21222578   7.766   2.354   2.566 -0.1871  0.4018  0.5052
   54MOL   C21322579   0.041   2.374   2.488 -0.8795 -0.0245 -0.5610
   54MOL   C21422580   0.032   2.446   2.347  0.2895  0.2390 -0.0740
   54MOL   O21522581   0.113   2.420   2.261 -0.7355  0.2435  0.5311
   54MOL   O21622582   7.787   2.534   2.334  0.1609 -0.0591 -0.4968
   54MOL   C21722583   7.781   2.613   2.221 -0.1032  0.0942  0.4717
   54MOL   C21822584   7.643   2.668   2.213  0.2396 -0.5402  0.3799
   54MOL   C21922585   7.618   2.766   2.092  0.5004  0.4746  0.1144
   54MOL   C22022586   7.652   2.725   1.949 -0.4496  0.2055  0.5025
   54MOL   H22122587   7.771   2.304   2.663 -2.4398  0.1859  0.5170
   54MOL   H22222588   7.722   2.449   2.597 -3.6587 -1.8765  2.7821
   54MOL   H22322589   0.071   2.275   2.455 -0.9307 -1.0742  2.4640
   54MOL   H22422590   7.789   2.545   2.136 -0.0811  1.0404 -0.2846
   54MOL   H22522591   0.002   2.692   2.215 -2.1099  1.9838 -0.2175
   54MOL   H22622592   7.568   2.590   2.223 -1.8670  1.4753  0.6983
   54MOL   H22722593   7.640   2.731   2.302  0.1308  0.8121 -0.5641
   54MOL   H22822594   7.687   2.847   2.114 -0.1194  0.6499  1.4501
   54MOL   H22922595   7.519   2.812   2.090 -0.2170 -1.0435 -1.0704
   54MOL   H23022596   7.673   2.811   1.885  0.8570 -0.3976  0.1002
   54MOL   H23122597   7.576   2.662   1.903  0.7654 -0.0747 -1.1820
   54MOL   H23222598   7.737   2.658   1.958  0.3125  1.2184  1.0190
   54MOL   C23322599   0.151   2.420   2.579  0.1976 -0.5658  0.4456
   54MOL   C23422600   0.202   2.334   2.694  0.5284 -0.2422  0.8554
   54MOL   C23522601   0.185   2.179   2.678  0.0522  0.9048  0.4753
   54MOL   O23622602   0.111   2.112   2.749  0.1215  0.0156  0.5235
   54MOL   O23722603   0.259   2.129   2.579 -0.4200  0.0267  0.0275
   54MOL   C23822604   0.276   1.987   2.558 -0.3803 -0.4660  0.3896
   54MOL   C23922605   0.249   1.954   2.404 -0.3230  0.2900  0.1439
   54MOL   C24022606   0.241   1.804   2.375 -0.1037 -0.1022  0.0505
   54MOL   C24122607   0.190   1.781   2.233 -0.5234  0.3713 -0.0809
   54MOL   H24222608   0.148   2.527   2.602  2.9396 -0.3844  0.1526
   54MOL   H24322609   0.240   2.430   2.518  1.9592  1.3398  3.2061
   54MOL   H24422610   0.135   2.356   2.777  0.2650  2.1511  0.0238
   54MOL   H24522611   0.224   1.926   2.632  0.5681 -1.0637  0.5731
   54MOL   H24622612   0.382   1.965   2.570 -0.7915 -2.9260 -0.1730
   54MOL   H24722613   0.155   2.001   2.377 -0.2232 -0.2574 -1.1626
   54MOL   H24822614   0.329   1.990   2.340  0.5428  0.8667  1.5215
   54MOL   H24922615   0.178   1.758   2.451  0.0471  0.4979  0.5542
   54MOL   H25022616   0.333   1.749   2.396  0.0895  0.0805 -0.3096
   54MOL   H25122617   0.272   1.802   2.165  0.1573 -1.6005  0.1030
   54MOL   H25222618   0.105   1.841   2.200  0.4805  2.6807  1.4219
   54MOL   H25322619   0.167   1.675   2.220 -1.9212  0.6543 -0.0505
   54MOL   C25422620   0.339   2.367   2.744  0.4760 -0.0351 -1.3031
   54MOL   C25522621   0.351   2.510   2.796  0.1195 -0.2373 -0.4450
   54MOL   C25622622   0.260   2.543   2.913 -0.1337 -0.2320 -0.3074
   54MOL   O25722623   0.145   2.577   2.889 -0.4359 -0.2286  0.0919
   54MOL   O25822624   0.323   2.535   3.039  0.1552  0.5022 -0.0803
   54MOL   C25922625   0.240   2.560   3.157  0.6493  0.1189 -0.6883
   54MOL   C26022626   0.252   2.704   3.211 -0.7565 -0.1111  0.3992
   54MOL   C26122627   0.179   2.808   3.119 -0.1132  1.0724  0.0774
   54MOL   C26222628   0.174   2.958   3.174  0.4624  0.5676  0.7302
   54MOL   H26322629   0.395   2.359   2.651 -0.3909  2.8374 -2.1064
   54MOL   H26422630   0.374   2.296   2.819  1.7690  1.1531 -0.7567
   54MOL   H26522631   0.310   2.570   2.715 -2.2456 -0.5916  0.4774
   54MOL   H26622632   0.286   2.492   3.229  1.4671  1.5182  0.1549
   54MOL   H26722633   0.133   2.539   3.156  0.4685  0.9034  0.5357
   54MOL   H26822634   0.195   2.688   3.303 -2.5217 -2.0090 -0.9833
   54MOL   H26922635   0.356   2.736   3.219 -0.7935  0.0832  0.1069
   54MOL   H27022636   0.079   2.779   3.087  0.8045 -0.7586 -1.2448
   54MOL   H27122637   0.238   2.808   3.028 -0.1949  0.6190  0.0198
   54MOL   H27222638   0.082   3.011   3.148 -0.6265 -1.0434  1.2136
   54MOL   H27322639   0.263   3.016   3.151  0.5023 -0.3838 -1.7573
   54MOL   H27422640   0.169   2.959   3.283  0.4033 -0.9794  0.7537
   54MOL   C27522641   0.503   2.545   2.825  0.4026 -0.5300  0.0075
   54MOL   C27622642   0.525   2.693   2.862  0.1707  0.0429  1.0596
   54MOL   C27722643   0.633   2.704   2.967  0.4363  0.4109 -0.1494
   54MOL   O27822644   0.609   2.692   3.087  0.4534  0.0687  0.8733
   54MOL   O27922645   0.751   2.715   2.909 -0.1483  0.2637  0.0278
   54MOL   C28022646   0.866   2.729   2.993  0.0684  0.0520 -0.1434
   54MOL   C28122647   1.008   2.727   2.928  0.3699  0.5969  0.1314
   54MOL   C28222648   1.040   2.867   2.871 -0.2452 -0.0585  0.1266
   54MOL   C28322649   1.083   2.956   2.986 -0.1589 -0.0264 -0.0503
   54MOL   H28422650   0.549   2.518   2.729 -2.0806  0.5451 -1.5260
   54MOL   H28522651   0.546   2.476   2.898  1.8319 -1.5063 -1.6979
   54MOL   H28622652   0.438   2.721   2.921  0.0510 -1.1197  1.4500
   54MOL   H28722653   0.853   2.641   3.056  1.7945  1.0097  1.6033
   54MOL   H28822654   0.844   2.813   3.059  3.7343  0.3272  0.8233
   54MOL   H28922655   1.081   2.704   3.007  1.1255  0.1300 -0.6948
   54MOL   H29022656   1.004   2.655   2.846 -2.9413 -0.3058  1.0181
   54MOL   H29122657   0.960   2.907   2.807  0.3595  0.3762 -0.3733
   54MOL   H29222658   1.120   2.861   2.797 -0.8868 -2.6316 -0.4174
   54MOL   H29322659   1.175   2.921   3.033 -0.3203  1.8722  1.7996
   54MOL   H29422660   0.999   2.970   3.054 -0.7179  0.7821 -0.8984
   54MOL   H29522661   1.106   3.057   2.950 -0.4680 -0.1078 -0.4851
   54MOL   C29622662   0.535   2.801   2.743  0.2701  0.2450  0.2831
   54MOL   C29722663   0.400   2.838   2.666  0.6188  0.6957  0.1659
   54MOL   C29822664   0.296   2.902   2.761 -0.1866 -0.0240  0.0813
   54MOL   O29922665   0.334   2.983   2.847 -0.0545  0.7487 -0.1038
   54MOL   O30022666   0.174   2.865   2.733  0.0458  0.5484 -0.4369
   54MOL   C30122667   0.060   2.913   2.805 -0.1763  0.0696 -0.3719
   54MOL   C30222668   7.792   2.928   2.715  0.6507 -0.2389 -0.5831
   54MOL   C30322669   7.758   2.802   2.633 -0.3590  0.1729 -0.5639
   54MOL   C30422670   7.607   2.798   2.599 -0.0528  0.1051  0.1685
   54MOL   H30522671   0.607   2.758   2.673 -0.1080 -0.0301  0.0584
   54MOL   H30622672   0.578   2.891   2.787  1.6193 -1.1686  1.9144
   54MOL   H30722673   0.362   2.744   2.625  1.5587 -1.1036  3.2527
   54MOL   H30822674   0.092   3.006   2.852 -0.7087  0.2628 -0.3872
   54MOL   H30922675   0.027   2.835   2.875 -0.3727 -0.1526 -0.7105
   54MOL   H31022676   7.706   2.971   2.765  0.9515 -0.6342  0.2764
   54MOL   H31122677   7.819   3.002   2.639 -1.9117  1.8416  0.4711
   54MOL   H31222678   7.785   2.708   2.682  1.4933  0.6176 -0.6831
   54MOL   H31322679   7.814   2.791   2.540  0.3829  0.2034 -0.1255
   54MOL   H31422680   7.584   2.876   2.526 -1.8290 -1.0416 -0.5575
   54MOL   H31522681   7.549   2.803   2.691  1.0668  0.1660  0.8731
   54MOL   H31622682   7.575   2.717   2.533 -1.4767  1.7492 -1.2335
   54MOL   C31722683   0.424   2.931   2.545  0.1570  0.3068 -0.5057
   54MOL   C31822684   0.511   2.867   2.431  0.2666  0.4492  0.8361
   54MOL   C31922685   0.426   2.768   2.349 -0.9535 -0.6586 -0.6571
   54MOL   O32022686   0.304   2.781   2.334  0.0430 -0.2272  0.2780
   54MOL   O32122687   0.497   2.665   2.299  0.5021 -0.2421 -0.2078
   54MOL   C32222688   0.424   2.555   2.245  0.1011  1.6220 -0.0861
   54MOL   C32322689   0.521   2.440   2.264 -0.4254 -0.0525  0.5399
   54MOL   C32422690   0.537   2.393   2.406 -0.0671 -0.6038 -0.4633
   54MOL   C32522691   0.663   2.310   2.444 -0.0721 -0.2978  0.1527
   54MOL   H32622692   0.480   3.016   2.585 -2.0462  1.7717 -0.4677
   54MOL   H32722693   0.328   2.965   2.508 -0.3720 -1.8296 -1.1964
   54MOL   H32822694   0.596   2.819   2.479  0.5786 -0.1009 -0.2483
   54MOL   H32922695   0.397   2.572   2.140 -3.4007  0.4301  0.5687
   54MOL   H33022696   0.329   2.536   2.295  1.0533  0.1148  1.1575
   54MOL   H33122697   0.507   2.358   2.194 -1.2946 -0.1308  0.8021
   54MOL   H33222698   0.617   2.474   2.226 -0.8489 -1.2764 -1.6876
   54MOL   H33322699   0.447   2.349   2.448 -0.3837 -0.1273 -0.6407
   54MOL   H33422700   0.553   2.483   2.466 -1.2585 -1.4677  1.1868
   54MOL   H33522701   0.745   2.324   2.373  0.1287 -0.3973  0.3616
   54MOL   H33622702   0.626   2.207   2.444 -1.2060  0.1105  0.8102
   54MOL   H33722703   0.696   2.319   2.548  1.6973  0.2538 -0.4459
   54MOL   C33822704   0.571   2.969   2.340  0.0089 -0.0112 -0.1039
   54MOL   C33922705   0.679   3.063   2.403  0.4220  0.5096 -0.0188
   54MOL   C34022706   0.805   2.987   2.446 -0.1704 -0.4369  0.2023
   54MOL   O34122707   0.848   2.996   2.558 -0.8933  0.1218  0.0662
   54MOL   O34222708   0.850   2.914   2.341  0.2311  0.6658  0.4011
   54MOL   C34322709   0.976   2.846   2.355  0.2307 -0.3251 -0.0029
   54MOL   C34422710   0.953   2.699   2.389  0.3890  0.3984  0.1561
   54MOL   C34522711   0.906   2.683   2.532 -0.1318 -0.1350  0.2597
   54MOL   C34622712   0.947   2.540   2.581 -0.0525  0.4663  0.8646
   54MOL   H34722713   0.488   3.032   2.306  1.8669  0.8924 -3.1599
   54MOL   H34822714   0.612   2.907   2.260 -2.4946 -0.3602 -1.1935
   54MOL   H34922715   0.633   3.102   2.494 -1.0968 -0.2705 -0.4391
   54MOL   H35022716   1.044   2.891   2.428  1.7940 -0.3940 -1.3868
   54MOL   H35122717   1.016   2.858   2.254  0.1145  0.7280  0.0669
   54MOL   H35222718   0.877   2.659   2.322  0.7389  0.6949 -0.4237
   54MOL   H35322719   1.040   2.642   2.354 -1.1138 -0.5786 -2.1307
   54MOL   H35422720   0.797   2.686   2.537 -0.0147  0.2559  3.0508
   54MOL   H35522721   0.945   2.757   2.600  2.9850 -0.2018 -1.3657
   54MOL   H35622722   1.052   2.541   2.609 -0.3716 -0.7062  2.1134
   54MOL   H35722723   0.916   2.474   2.500 -0.5942 -0.0731  1.5161
   54MOL   H35822724   0.890   2.519   2.671  0.1211 -0.0093  0.8611
   54MOL   C35922725   0.719   3.184   2.318 -0.4113  1.0184 -0.6009
   54MOL   C36022726   0.612   3.294   2.315  0.3685 -0.3917  0.3826
   54MOL   C36122727   0.588   3.363   2.451 -0.5133  0.0900  0.1612
   54MOL   O36222728   0.516   3.313   2.536  0.1687  0.2269  0.4255
   54MOL   O36322729   0.651   3.489   2.461 -0.4285 -0.2840  0.7680
   54MOL   C36422730   0.609   3.585   2.558 -0.6597  0.9222  0.3502
   54MOL   C36522731   0.571   3.730   2.507  0.3658  0.6324 -0.8036
   54MOL   C36622732   0.698   3.814   2.467 -0.5870  0.2329 -0.0144
   54MOL   C36722733   0.662   3.947   2.392 -0.5628  0.1668  0.3622
   54MOL   H36822734   0.731   3.144   2.217  0.2115  2.1144 -0.9671
   54MOL   H36922735   0.817   3.223   2.345 -0.0615 -1.0130  1.2365
   54MOL   H37022736   0.516   3.244   2.301  1.6840 -3.0224  0.3359
   54MOL   H37122737   0.672   3.590   2.647  0.2710 -0.7340 -0.2146
   54MOL   H37222738   0.524   3.541   2.610 -0.0778 -1.0480 -0.3379
   54MOL   H37322739   0.499   3.712   2.428 -2.0870 -1.5716  1.8431
   54MOL   H37422740   0.513   3.793   2.575 -0.3670 -2.2289  1.3043
   54MOL   H37522741   0.770   3.761   2.404 -0.2228 -0.7105  1.1705
   54MOL   H37622742   0.750   3.838   2.560 -0.8372 -1.3989  0.5641
   54MOL   H37722743   0.748   4.000   2.351 -1.1614  1.2567  0.5074
   54MOL   H37822744   0.621   4.002   2.477 -2.5582  0.4810 -0.7841
   54MOL   H37922745   0.588   3.933   2.313  0.0776 -1.4232  0.0210
   54MOL   C38022746   0.630   3.388   2.194  0.0627 -0.0518  0.9389
   54MOL   C38122747   0.607   3.325   2.053 -0.1844  0.2776 -0.6515
   54MOL   C38222748   0.463   3.261   2.045 -0.0336  0.6554 -0.4242
   54MOL   O38322749   0.369   3.278   2.122  0.0829 -0.0799  0.0244
   54MOL   O38422750   0.452   3.173   1.941  0.5254 -0.3476 -0.5991
   54MOL   C38522751   0.326   3.118   1.907 -0.2479  0.1022  0.1824
   54MOL   C38622752   0.332   2.974   1.947  0.5033 -0.1110  0.3088
   54MOL   C38722753   0.204   2.903   1.908  0.2145  0.2326 -0.4278
   54MOL   C38822754   0.186   2.763   1.966 -0.2421 -0.4960 -0.1659
   54MOL   H38922755   0.732   3.426   2.201  0.7732 -2.0424  1.5708
   54MOL   H39022756   0.558   3.470   2.189 -0.6833 -0.7577 -0.2384
   54MOL   H39122757   0.674   3.242   2.034 -3.0189 -2.4098  0.8072
   54MOL   H39222758   0.315   3.123   1.799 -0.4416 -0.6154  0.1649
   54MOL   H39322759   0.234   3.163   1.946 -1.0623 -1.8979  0.6157
   54MOL   H39422760   0.412   2.920   1.895 -0.1185 -0.5085 -0.2456
   54MOL   H39522761   0.347   2.975   2.055  0.4000 -1.5293  0.3494
   54MOL   H39622762   0.201   2.892   1.799  0.0177  0.0766 -0.4079
   54MOL   H39722763   0.116   2.965   1.927  0.7719  1.2274 -1.0252
   54MOL   H39822764   0.106   2.708   1.918  0.3585 -0.3414 -1.3623
   54MOL   H39922765   0.146   2.789   2.064 -0.8552 -1.0577 -0.2640
   54MOL   H40022766   0.264   2.687   1.971  0.8998  0.7731  2.2685
   54MOL   C40122767   0.624   3.427   1.943 -0.1798 -0.3429  0.2290
   54MOL   C40222768   0.759   3.495   1.924 -0.5068  0.1422 -0.1678
   54MOL   C40322769   0.878   3.407   1.899 -0.8833 -0.2462 -0.1255
   54MOL   O40422770   0.965   3.401   1.987 -0.3228  0.1713 -0.4166
   54MOL   O40522771   0.874   3.334   1.783 -0.3039  0.2798 -0.4068
   54MOL   C40622772   0.984   3.242   1.749 -0.5327 -0.4976  0.6166
   54MOL   C40722773   1.090   3.313   1.664  0.0249  0.1258 -0.0236
   54MOL   C40822774   1.029   3.349   1.520  0.2624 -0.5055  0.1185
   54MOL   C40922775   1.127   3.442   1.432 -0.7849  0.7558  0.1344
   54MOL   H41022776   0.544   3.500   1.959  0.0631  0.1217 -0.6248
   54MOL   H41122777   0.598   3.392   1.843  1.3180 -2.1090  0.4293
   54MOL   H41222778   0.777   3.555   2.013 -0.1012 -1.2213  0.6867
   54MOL   H41322779   0.951   3.152   1.697  1.5511 -0.3208 -1.0803
   54MOL   H41422780   1.030   3.221   1.846 -2.7531 -0.2155  1.7540
   54MOL   H41522781   1.117   3.404   1.719 -1.7791 -0.6395  2.2235
   54MOL   H41622782   1.174   3.245   1.654 -1.5711 -1.7113 -1.2275
   54MOL   H41722783   0.930   3.393   1.533 -0.0726 -1.2657  0.1579
   54MOL   H41822784   1.010   3.262   1.458 -0.9113  0.7780 -1.3723
   54MOL   H41922785   1.171   3.517   1.497 -1.4827  1.2457  0.0464
   54MOL   H42022786   1.081   3.490   1.346 -0.2201  0.3055 -0.4240
   54MOL   H42122787   1.205   3.387   1.379  0.3525  0.8377  1.7010
   54MOL   H42222788   0.741   3.570   1.848  0.6126  0.8811  0.2820
   55MOL     C122789   6.691   1.323   3.114 -0.2368 -0.0977  0.3495
   55MOL     C222790   6.630   1.457   3.078  0.1955 -0.5258  0.0624
   55MOL     C322791   6.477   1.450   3.083  0.1096 -0.2871 -0.1823
   55MOL     O422792   6.416   1.511   3.003 -0.0740  0.6470 -0.1451
   55MOL     O522793   6.414   1.395   3.186  1.0918  0.3841 -0.6128
   55MOL     C622794   6.270   1.390   3.192 -0.3524 -0.4200  0.7119
   55MOL     C722795   6.233   1.240   3.217 -0.0842  0.7018  1.1017
   55MOL     C822796   6.219   1.194   3.368 -0.1280 -0.3225  0.0221
   55MOL     C922797   6.087   1.241   3.435  0.0238  0.2471  0.5880
   55MOL    H1022798   6.635   1.234   3.086  3.2955 -1.6973 -1.9497
   55MOL    H1122799   6.789   1.317   3.066 -1.4803 -1.3976 -2.0546
   55MOL    H1222800   6.649   1.474   2.972  1.6814  0.2283  0.4376
   55MOL    H1322801   6.233   1.412   3.092 -0.1549  2.6564  1.2594
   55MOL    H1422802   6.238   1.464   3.265 -0.0333 -0.1267  0.5570
   55MOL    H1522803   6.137   1.212   3.174 -0.9012  3.5681  0.9247
   55MOL    H1622804   6.304   1.178   3.162  0.3233  0.7594  1.5553
   55MOL    H1722805   6.304   1.241   3.417  0.7827  0.6383 -2.4135
   55MOL    H1822806   6.238   1.087   3.372 -2.8594 -0.8432 -0.4657
   55MOL    H1922807   6.082   1.248   3.544  1.4057 -2.1988  0.8385
   55MOL    H2022808   6.012   1.166   3.408  0.0742  1.4782 -3.2496
   55MOL    H2122809   6.050   1.341   3.412  1.6409  1.1334  1.7138
   55MOL    H2222810   6.712   1.302   3.219 -0.1647 -0.6220  0.2316
   55MOL    C2322811   6.696   1.572   3.163  0.1825 -0.1509 -0.7638
   55MOL    C2422812   6.637   1.715   3.159  0.5072  0.4125  0.0498
   55MOL    C2522813   6.671   1.803   3.275  0.7627 -0.9531 -0.1903
   55MOL    O2622814   6.758   1.761   3.351 -0.6279 -0.1968  0.0995
   55MOL    O2722815   6.612   1.927   3.281 -0.2406  0.1593 -0.0627
   55MOL    C2822816   6.646   2.015   3.386 -0.3253  0.8159  0.3906
   55MOL    C2922817   6.601   2.162   3.362 -0.4280  0.6118  0.1491
   55MOL    C3022818   6.659   2.239   3.241  0.0452 -0.5032 -0.2587
   55MOL    C3122819   6.605   2.388   3.247  0.7480 -0.7463 -0.2892
   55MOL    H3222820   6.800   1.577   3.130  0.1106  0.4467 -0.9014
   55MOL    H3322821   6.694   1.533   3.265  0.3476 -1.2976 -1.1849
   55MOL    H3422822   6.528   1.719   3.167 -0.0162 -3.4933 -3.4574
   55MOL    H3522823   6.753   2.014   3.407 -0.3392 -0.6165  0.3883
   55MOL    H3622824   6.607   1.987   3.484 -0.2342  1.0244  0.4891
   55MOL    H3722825   6.493   2.159   3.371 -0.1997 -1.4944  2.9801
   55MOL    H3822826   6.647   2.216   3.445  1.1282 -1.3799  0.6318
   55MOL    H3922827   6.622   2.191   3.150 -0.9355 -0.7481  0.2629
   55MOL    H4022828   6.768   2.234   3.232  0.1901  0.3715  0.9860
   55MOL    H4122829   6.497   2.390   3.262  1.0556  3.1057  1.9415
   55MOL    H4222830   6.638   2.447   3.162  1.6727 -1.0019 -0.1091
   55MOL    H4322831   6.648   2.445   3.329 -2.5940  0.5075  0.6884
   55MOL    C4422832   6.674   1.780   3.021 -0.0418 -0.4252 -0.0233
   55MOL    C4522833   6.584   1.901   2.974 -0.1666  0.6112  0.2260
   55MOL    C4622834   6.645   1.962   2.852 -0.1387  0.0975 -0.7017
   55MOL    O4722835   6.695   2.079   2.844 -0.0963 -0.2375  0.0181
   55MOL    O4822836   6.649   1.875   2.754  0.2887  0.9526 -0.0668
   55MOL    C4922837   6.686   1.913   2.628  0.1009 -0.0226  0.1287
   55MOL    C5022838   6.837   1.887   2.590 -0.5453 -0.0129  0.3608
   55MOL    C5122839   6.941   1.978   2.646  0.6039  0.4535 -0.0001
   55MOL    C5222840   7.080   1.951   2.592  0.2580 -0.2044 -0.1517
   55MOL    H5322841   6.652   1.694   2.958  1.0914 -0.6604 -0.1129
   55MOL    H5422842   6.780   1.805   3.014 -0.2036  0.5625  0.9806
   55MOL    H5522843   6.586   1.975   3.054 -3.0325 -0.4329  1.3149
   55MOL    H5622844   6.668   2.020   2.613  2.1556  0.5358  1.3503
   55MOL    H5722845   6.619   1.874   2.551 -1.1655  2.4247 -0.0632
   55MOL    H5822846   6.860   1.788   2.628  0.5402 -0.2539 -0.8592
   55MOL    H5922847   6.861   1.890   2.484  2.5471  0.8873  1.0276
   55MOL    H6022848   6.948   1.977   2.755  0.1839  0.5609  0.0266
   55MOL    H6122849   6.905   2.075   2.613 -2.4924 -0.1826  1.3784
   55MOL    H6222850   7.122   1.860   2.633  0.6785 -0.6066 -1.4369
   55MOL    H6322851   7.149   2.029   2.625  1.8281 -0.7786 -1.9741
   55MOL    H6422852   7.087   1.960   2.483  0.8909  2.4760  0.0754
   55MOL    C6522853   6.436   1.877   2.969  0.3561  0.1160 -0.0809
   55MOL    C6622854   6.345   1.966   3.057  0.4458  0.4046 -0.6337
   55MOL    C6722855   6.356   2.106   3.013  0.0787  0.0181  0.2500
   55MOL    O6822856   6.343   2.197   3.090 -0.6093 -0.6488  0.0078
   55MOL    O6922857   6.368   2.119   2.879 -0.2696  0.1901 -0.0464
   55MOL    C7022858   6.381   2.247   2.825 -0.1053  0.1587  0.3070
   55MOL    C7122859   6.390   2.237   2.678 -0.0117 -0.3794 -0.1190
   55MOL    C7222860   6.451   2.368   2.622 -0.1687 -0.1027  0.4311
   55MOL    C7322861   6.422   2.350   2.470 -0.0996  0.2792  0.2496
   55MOL    H7422862   6.417   1.777   3.007  1.5665  0.6065  1.9076
   55MOL    H7522863   6.385   1.873   2.872 -2.2086  2.3793  1.0896
   55MOL    H7622864   6.385   1.969   3.158 -0.1104 -1.6639 -0.3258
   55MOL    H7722865   6.470   2.299   2.862  0.0648  1.5345 -1.9774
   55MOL    H7822866   6.287   2.295   2.849  0.5237  2.4705 -1.6845
   55MOL    H7922867   6.452   2.156   2.639  1.0962 -0.2146  1.2567
   55MOL    H8022868   6.285   2.232   2.653 -0.7038  2.0958  2.0235
   55MOL    H8122869   6.557   2.384   2.640 -0.1702 -0.3777  0.6838
   55MOL    H8222870   6.404   2.458   2.661 -2.0277 -1.2424  0.9112
   55MOL    H8322871   6.475   2.257   2.454  2.0015  1.1007  2.0943
   55MOL    H8422872   6.466   2.428   2.408 -0.6395  0.9355  0.6835
   55MOL    H8522873   6.315   2.350   2.452  0.1002  2.3424 -1.2275
   55MOL    C8622874   6.199   1.924   3.073 -0.7616 -0.3271  0.2417
   55MOL    C8722875   6.165   1.800   3.158 -0.9532  0.0370  0.5331
   55MOL    C8822876   6.204   1.822   3.307  0.1100  0.0453 -0.3258
   55MOL    O8922877   6.172   1.927   3.363  0.5145  0.5603  0.4572
   55MOL    O9022878   6.256   1.712   3.361 -0.0269 -0.3757 -0.6046
   55MOL    C9122879   6.284   1.729   3.495  0.0738 -0.5643  0.2837
   55MOL    C9222880   6.348   1.604   3.548 -0.5439 -0.0381 -0.0885
   55MOL    C9322881   6.486   1.579   3.484  0.2412  0.1257  0.4447
   55MOL    C9422882   6.541   1.446   3.530  0.1934 -0.3622  0.1613
   55MOL    H9522883   6.174   1.899   2.970  0.7086  2.6355 -0.9199
   55MOL    H9622884   6.127   2.002   3.096 -1.1702  0.2158 -2.6995
   55MOL    H9722885   6.232   1.724   3.119 -0.9263  0.7078 -0.7629
   55MOL    H9822886   6.190   1.733   3.549  0.1536  0.0939  0.3741
   55MOL    H9922887   6.336   1.822   3.518 -1.4035  0.4182 -0.2947
   55MOL   H10022888   6.373   1.616   3.654  1.4514  0.3677 -0.5676
   55MOL   H10122889   6.289   1.513   3.545 -4.1257  2.1421  1.4394
   55MOL   H10222890   6.550   1.663   3.510 -3.4725  3.1747  0.2266
   55MOL   H10322891   6.481   1.581   3.375  1.7582  0.5760  0.3777
   55MOL   H10422892   6.469   1.366   3.519  0.2937 -0.3643 -0.4499
   55MOL   H10522893   6.559   1.441   3.638 -1.5898 -2.3579  0.3936
   55MOL   H10622894   6.632   1.410   3.482  1.7431  1.5100  1.5858
   55MOL   C10722895   6.022   1.758   3.149 -0.2307  0.9044 -0.1485
   55MOL   C10822896   5.958   1.730   3.009  0.4198 -0.4209  0.2014
   55MOL   C10922897   6.048   1.631   2.933  0.2813  0.0132  0.5310
   55MOL   O11022898   6.067   1.515   2.969 -0.3025  0.5614  0.5865
   55MOL   O11122899   6.098   1.684   2.823  0.0033  0.3224 -0.7553
   55MOL   C11222900   6.154   1.603   2.720  0.1290  0.4636  0.5557
   55MOL   C11322901   6.159   1.684   2.586 -0.4303  0.2427  0.5544
   55MOL   C11422902   6.258   1.798   2.594 -0.1895  0.1838  0.5940
   55MOL   C11522903   6.258   1.895   2.474  0.0658  0.6284 -0.0747
   55MOL   H11622904   5.971   1.842   3.195  1.3419  2.0652 -0.4883
   55MOL   H11722905   5.995   1.682   3.222 -1.5185  0.0433 -1.4838
   55MOL   H11822906   5.956   1.824   2.955 -3.2399 -0.0225  0.9185
   55MOL   H11922907   6.084   1.522   2.703 -1.4044  1.8176  0.3822
   55MOL   H12022908   6.254   1.567   2.746  0.2422 -0.2379 -0.7868
   55MOL   H12122909   6.185   1.635   2.492 -1.6861  1.6192 -0.5313
   55MOL   H12222910   6.061   1.722   2.557  0.2193 -0.4235 -2.8295
   55MOL   H12322911   6.357   1.755   2.599 -0.2182  0.1003  0.4645
   55MOL   H12422912   6.226   1.848   2.685 -0.6058  0.0088  0.5486
   55MOL   H12522913   6.259   1.841   2.379 -1.0350 -0.2428  0.3913
   55MOL   H12622914   6.344   1.961   2.476 -0.8452  1.7966  1.2077
   55MOL   H12722915   6.169   1.958   2.476  0.2186  0.8281  0.4619
   55MOL   C12822916   5.807   1.689   3.023 -0.2149 -0.5605  1.0081
   55MOL   C12922917   5.726   1.649   2.904 -0.5044  0.8661 -0.2284
   55MOL   C13022918   5.747   1.752   2.793 -0.1699 -0.2133  1.2358
   55MOL   O13122919   5.813   1.730   2.688 -0.1357  0.3274 -0.0961
   55MOL   O13222920   5.690   1.881   2.820  0.4351 -0.0397 -0.1982
   55MOL   C13322921   5.684   1.975   2.713  0.2021 -0.3435  0.2394
   55MOL   C13422922   5.813   2.033   2.662 -0.4146  0.3243 -0.4098
   55MOL   C13522923   5.898   2.114   2.769 -0.8251 -0.3247  0.2542
   55MOL   C13622924   6.005   2.195   2.694 -0.0713 -0.0881 -0.2503
   55MOL   H13722925   5.752   1.779   3.050  0.7440  0.8101 -1.3929
   55MOL   H13822926   5.804   1.624   3.110  1.2344 -2.4700 -0.3220
   55MOL   H13922927   5.620   1.668   2.917 -0.8026 -1.2607  0.7221
   55MOL   H14022928   5.622   2.058   2.747  1.7852  0.3199  1.5817
   55MOL   H14122929   5.632   1.936   2.625  1.0920 -0.6284 -0.1647
   55MOL   H14222930   5.872   1.952   2.619 -0.0798 -0.0165  0.6899
   55MOL   H14322931   5.788   2.092   2.573  1.0397 -2.1890 -2.5770
   55MOL   H14422932   5.927   2.047   2.850  2.9364  0.3545 -0.4592
   55MOL   H14522933   5.842   2.191   2.822 -1.0277  0.5944 -1.2782
   55MOL   H14622934   6.070   2.128   2.636  0.7210  0.2512  0.2407
   55MOL   H14722935   6.067   2.257   2.758  0.2352 -0.0829 -0.5481
   55MOL   H14822936   5.964   2.274   2.632  1.2636  1.3466  0.6688
   55MOL   C14922937   5.740   1.499   2.869  0.4446  0.4205 -0.2251
   55MOL   C15022938   5.683   1.442   2.737 -0.3102 -0.0651  0.2089
   55MOL   C15122939   5.709   1.293   2.725  0.1715  0.7877  0.0552
   55MOL   O15222940   5.815   1.256   2.679  0.3566  0.3965 -0.1001
   55MOL   O15322941   5.608   1.213   2.781 -0.2794 -0.2853  0.0207
   55MOL   C15422942   5.627   1.074   2.780  0.4116 -0.3250  0.2901
   55MOL   C15522943   5.549   1.017   2.659  0.0009  0.3959 -0.0463
   55MOL   C15622944   5.571   0.868   2.655 -0.3270 -0.0822 -0.7349
   55MOL   C15722945   5.488   0.804   2.537 -0.5361 -0.5949 -0.8519
   55MOL   H15822946   5.695   1.437   2.948 -1.2078  0.4197 -1.1458
   55MOL   H15922947   5.844   1.467   2.871  0.0955 -0.7366  0.2504
   55MOL   H16022948   5.741   1.484   2.654  1.6951 -1.5941  0.8098
   55MOL   H16122949   5.591   1.030   2.873  0.1981 -0.7677 -0.0014
   55MOL   H16222950   5.730   1.042   2.768  0.9925  1.2853  0.7991
   55MOL   H16322951   5.443   1.037   2.678  0.0299 -1.8111  2.7645
   55MOL   H16422952   5.570   1.061   2.561  1.5986  0.4496  0.3177
   55MOL   H16522953   5.546   0.831   2.755  2.0836  2.0027  0.6997
   55MOL   H16622954   5.676   0.848   2.634  0.1416  1.6844 -0.1385
   55MOL   H16722955   5.511   0.699   2.518  0.0635 -1.0354  2.0062
   55MOL   H16822956   5.503   0.849   2.439 -0.9046 -0.3790 -0.8084
   55MOL   H16922957   5.381   0.815   2.554 -1.0221  0.0846 -4.0685
   55MOL   C17022958   5.543   1.477   2.706 -0.4583 -0.3109 -0.5569
   55MOL   C17122959   5.500   1.423   2.568 -0.5522  0.3742 -0.1467
   55MOL   C17222960   5.350   1.419   2.554  0.5103  0.3554 -0.4023
   55MOL   O17322961   5.292   1.314   2.551  0.2135  0.6418  0.3602
   55MOL   O17422962   5.300   1.542   2.550  0.4411 -0.3737  0.7207
   55MOL   C17522963   5.158   1.559   2.538 -0.4340  0.2678 -0.4420
   55MOL   C17622964   5.136   1.666   2.431 -0.6472  0.2143  0.4755
   55MOL   C17722965   5.199   1.626   2.292  0.7132  0.1188  0.2589
   55MOL   C17822966   5.160   1.723   2.185 -0.1034 -0.1944 -0.5460
   55MOL   H17922967   5.523   1.584   2.700  0.8979 -0.1076 -1.7593
   55MOL   H18022968   5.482   1.439   2.788  0.9134 -0.9202  0.1909
   55MOL   H18122969   5.525   1.317   2.576 -2.3004 -0.1843 -1.8390
   55MOL   H18222970   5.103   1.584   2.629 -0.4383  1.4489 -0.7546
   55MOL   H18322971   5.102   1.473   2.501 -0.2068  0.3885 -1.0786
   55MOL   H18422972   5.028   1.670   2.418 -0.6905  1.3396  1.1284
   55MOL   H18522973   5.151   1.770   2.461 -1.0313  0.5561 -0.4805
   55MOL   H18622974   5.152   1.532   2.264  2.1032 -0.7557  0.7966
   55MOL   H18722975   5.308   1.619   2.291  0.8996  2.4140 -2.0682
   55MOL   H18822976   5.196   1.687   2.088  0.4840  0.3083 -0.5196
   55MOL   H18922977   5.209   1.820   2.200 -0.3659  0.0562 -1.2947
   55MOL   H19022978   5.053   1.738   2.176  0.0347  0.9164 -0.4859
   55MOL   C19122979   5.569   1.490   2.443  0.1357  0.6286 -0.2790
   55MOL   C19222980   5.544   1.430   2.307  0.7200 -0.4846 -0.0378
   55MOL   C19322981   5.611   1.520   2.197 -0.7653 -0.0794 -0.3019
   55MOL   O19422982   5.539   1.575   2.107  0.2817  0.1997  0.7941
   55MOL   O19522983   5.748   1.527   2.213 -0.2007  0.0479  0.0830
   55MOL   C19622984   5.832   1.584   2.116 -0.4675  0.5652 -0.9424
   55MOL   C19722985   5.854   1.738   2.135 -0.7925  0.3486  0.7005
   55MOL   C19822986   5.919   1.783   2.270  0.4537  0.4887  1.0542
   55MOL   C19922987   5.954   1.928   2.258 -0.1778 -0.1138  0.1031
   55MOL   H20022988   5.677   1.492   2.460  0.2661  1.2656 -1.1506
   55MOL   H20122989   5.547   1.597   2.452  2.5817  0.9006  3.7590
   55MOL   H20222990   5.435   1.430   2.296  0.6437 -0.5923  0.7285
   55MOL   H20322991   5.797   1.551   2.018 -4.6721 -0.7840  0.9018
   55MOL   H20422992   5.928   1.537   2.135 -1.4778 -0.4993  1.7166
   55MOL   H20522993   5.920   1.785   2.062 -1.1937 -0.3686 -0.1234
   55MOL   H20622994   5.755   1.783   2.129 -0.8305  0.2498  0.5845
   55MOL   H20722995   6.001   1.718   2.298 -0.2035 -1.1333 -0.6691
   55MOL   H20822996   5.844   1.773   2.349  0.4674  1.0066  1.1360
   55MOL   H20922997   6.000   1.965   2.350  2.0126 -0.6887 -0.7390
   55MOL   H21022998   5.868   1.991   2.233  0.7149  1.0732 -0.0604
   55MOL   H21122999   6.030   1.940   2.181  0.2756  1.8865  0.8170
   55MOL   C21223000   5.581   1.283   2.303 -0.5926  0.1213 -0.1814
   55MOL   C21323001   5.541   1.195   2.184  0.1233 -0.1638 -0.3795
   55MOL   C21423002   5.387   1.179   2.167  0.1161  0.1727 -0.6499
   55MOL   O21523003   5.328   1.178   2.060  0.1962 -0.3324  0.4405
   55MOL   O21623004   5.329   1.160   2.288 -0.2839  0.0699 -0.0940
   55MOL   C21723005   5.186   1.144   2.308  0.2122  0.0636  0.1153
   55MOL   C21823006   5.151   0.997   2.266  0.6731  0.7109  0.7682
   55MOL   C21923007   5.214   0.900   2.368  0.1318 -0.1445 -0.5657
   55MOL   C22023008   5.194   0.757   2.331  0.4415 -0.1641 -0.3116
   55MOL   H22123009   5.547   1.220   2.385  2.1097  1.6165  2.1488
   55MOL   H22223010   5.689   1.273   2.309 -0.7153 -1.5263 -0.2774
   55MOL   H22323011   5.570   1.091   2.201 -3.1956 -1.1954 -0.8216
   55MOL   H22423012   5.136   1.216   2.244  1.1715 -0.0267 -0.7488
   55MOL   H22523013   5.154   1.161   2.411 -0.6679  2.0377 -0.4580
   55MOL   H22623014   5.042   1.007   2.264  0.6392  0.1466 -0.9165
   55MOL   H22723015   5.181   0.985   2.162  1.0192 -1.1214  1.0644
   55MOL   H22823016   5.169   0.924   2.464 -0.2973  1.3997 -1.1539
   55MOL   H22923017   5.323   0.903   2.373  0.0909 -1.5710  2.0567
   55MOL   H23023018   5.226   0.759   2.226 -0.1329  2.1924 -0.4555
   55MOL   H23123019   5.094   0.715   2.343  0.8680 -1.1678 -0.2020
   55MOL   H23223020   5.261   0.689   2.384  0.1790 -0.5007 -0.4047
   55MOL   C23323021   5.610   1.228   2.047  0.3933  0.8393  0.3275
   55MOL   C23423022   5.604   1.106   1.946  0.3598 -0.0996  0.6260
   55MOL   C23523023   5.630   1.161   1.801  0.2662 -0.4447  0.1054
   55MOL   O23623024   5.740   1.178   1.754  0.5834 -0.3411 -0.3478
   55MOL   O23723025   5.514   1.166   1.736 -0.4883  0.8753 -0.6188
   55MOL   C23823026   5.528   1.210   1.598 -0.1851  0.1589 -0.1513
   55MOL   C23923027   5.389   1.195   1.535  0.5967  0.0242 -0.3821
   55MOL   C24023028   5.372   1.214   1.388 -0.3456 -0.8216  0.6390
   55MOL   C24123029   5.229   1.194   1.353 -0.0939  0.0865  0.1686
   55MOL   H24223030   5.711   1.265   2.064 -0.6097  2.8816  1.9973
   55MOL   H24323031   5.564   1.319   2.010 -2.4964 -0.4147  0.6883
   55MOL   H24423032   5.507   1.058   1.943 -0.2331  1.1846 -1.5534
   55MOL   H24523033   5.603   1.153   1.545  1.9013  2.5837  0.0982
   55MOL   H24623034   5.567   1.309   1.572  0.3725  0.1361  0.5549
   55MOL   H24723035   5.336   1.105   1.568  0.4855  0.0443 -0.5031
   55MOL   H24823036   5.325   1.263   1.592 -2.5997 -3.0202 -0.1235
   55MOL   H24923037   5.443   1.155   1.331  0.1778  0.8754 -0.5108
   55MOL   H25023038   5.397   1.317   1.363 -0.1303 -0.5896  1.7817
   55MOL   H25123039   5.216   1.209   1.245 -0.0993 -1.1625 -0.0130
   55MOL   H25223040   5.168   1.267   1.405  0.9494  0.3813  0.9903
   55MOL   H25323041   5.188   1.095   1.376 -2.4433  1.3812  1.6857
   55MOL   C25423042   5.717   0.997   1.988 -0.5139 -1.3454  0.5642
   55MOL   C25523043   5.666   0.865   1.937 -0.0163  0.3857  0.1450
   55MOL   C25623044   5.779   0.775   1.895  0.1092 -0.4509 -0.5173
   55MOL   O25723045   5.774   0.712   1.788 -0.1070 -0.1079  0.7465
   55MOL   O25823046   5.880   0.777   1.983  0.2090  0.0127 -1.0002
   55MOL   C25923047   5.989   0.688   1.968  0.7104 -0.4350  0.6927
   55MOL   C26023048   6.055   0.670   2.101  0.2631 -0.0151  0.5944
   55MOL   C26123049   6.185   0.597   2.101 -0.5121  0.8055  0.0672
   55MOL   C26223050   6.226   0.530   2.235 -0.4732  0.3049 -0.3719
   55MOL   H26323051   5.736   0.993   2.096  0.4602  0.2418  0.4753
   55MOL   H26423052   5.811   1.027   1.942 -2.4736  2.6087 -1.1025
   55MOL   H26523053   5.611   0.884   1.845  0.4831 -0.0056 -0.2346
   55MOL   H26623054   6.066   0.736   1.908  0.2262  0.1853  0.5735
   55MOL   H26723055   5.951   0.592   1.933  0.8126  0.5407 -2.1918
   55MOL   H26823056   6.056   0.769   2.147  0.8751 -0.0607  0.6785
   55MOL   H26923057   5.982   0.610   2.155  0.8464 -2.3580 -1.1347
   55MOL   H27023058   6.261   0.664   2.061 -0.8861 -0.1252 -2.2953
   55MOL   H27123059   6.182   0.512   2.033 -0.2710  1.8919 -1.3210
   55MOL   H27223060   6.157   0.463   2.287 -0.0199  2.3941  3.0061
   55MOL   H27323061   6.250   0.602   2.312 -3.9371 -0.5770  1.6415
   55MOL   H27423062   6.318   0.472   2.227 -1.9780 -2.1707 -0.3060
   55MOL   C27523063   5.563   0.805   2.035 -0.0506  0.0944  0.3488
   55MOL   C27623064   5.437   0.732   1.971 -0.0100  0.2607 -0.1185
   55MOL   C27723065   5.364   0.816   1.870 -0.0255 -0.5638  0.6542
   55MOL   O27823066   5.384   0.814   1.749 -0.8321 -0.0845 -0.6079
   55MOL   O27923067   5.265   0.882   1.926 -0.0521  0.0730 -0.2755
   55MOL   C28023068   5.193   0.985   1.858  0.3948  0.2691  0.2247
   55MOL   C28123069   5.100   0.931   1.742  0.1259  0.0996  0.0189
   55MOL   C28223070   4.986   0.841   1.810 -0.8933  0.2734 -0.2949
   55MOL   C28323071   4.866   0.926   1.859  0.8794  0.5822  0.2250
   55MOL   H28423072   5.528   0.887   2.098  1.5000  0.9210  0.1726
   55MOL   H28523073   5.609   0.730   2.099 -0.3546 -0.4990 -0.1234
   55MOL   H28623074   5.367   0.718   2.053 -0.6034  1.2502 -0.4587
   55MOL   H28723075   5.253   1.065   1.814  0.2790  0.9347  1.2528
   55MOL   H28823076   5.136   1.024   1.943 -1.3694  1.5069 -1.4839
   55MOL   H28923077   5.060   1.020   1.694 -1.0996 -0.8031 -0.6604
   55MOL   H29023078   5.157   0.875   1.668 -0.7399 -1.1594  0.2747
   55MOL   H29123079   5.041   0.793   1.891  0.7995 -1.8925 -2.6728
   55MOL   H29223080   4.957   0.764   1.739 -0.5954  0.0498 -0.1746
   55MOL   H29323081   4.899   1.012   1.917  2.6554  0.2931 -0.3327
   55MOL   H29423082   4.802   0.863   1.922 -1.0195  2.2929  0.0540
   55MOL   H29523083   4.813   0.962   1.771 -1.0610 -1.5181  0.4901
   55MOL   C29623084   5.462   0.586   1.916  0.4337 -0.2173  0.1098
   55MOL   C29723085   5.499   0.476   2.020 -0.5589  0.3089  0.3592
   55MOL   C29823086   5.403   0.450   2.132 -0.0609  0.0274  0.1696
   55MOL   O29923087   5.446   0.420   2.244  0.0117 -0.2874 -0.4590
   55MOL   O30023088   5.272   0.434   2.098 -0.5537  0.3346  0.6266
   55MOL   C30123089   5.165   0.423   2.193  0.0343  0.1390  0.4436
   55MOL   C30223090   5.023   0.417   2.137  0.1938 -0.3495 -0.1189
   55MOL   C30323091   4.986   0.546   2.052  0.3439 -0.6807  0.9673
   55MOL   C30423092   4.837   0.547   1.998 -0.1076 -0.0322  0.5710
   55MOL   H30523093   5.540   0.591   1.841 -0.9303  1.0686 -1.2383
   55MOL   H30623094   5.374   0.550   1.863  0.1955 -1.7684  1.4960
   55MOL   H30723095   5.595   0.505   2.062  0.1851  2.7323 -2.8213
   55MOL   H30823096   5.177   0.508   2.259  1.5045 -0.0351  0.4240
   55MOL   H30923097   5.195   0.348   2.266  0.3117  0.1345  0.3248
   55MOL   H31023098   5.016   0.333   2.069 -0.9220  1.2306 -2.0128
   55MOL   H31123099   4.953   0.412   2.221  0.0876 -1.6859 -0.2851
   55MOL   H31223100   5.059   0.569   1.975  1.9592  0.4425  2.8099
   55MOL   H31323101   5.001   0.635   2.112 -0.4227 -0.1259  0.3507
   55MOL   H31423102   4.833   0.468   1.923  0.7642  0.9639 -0.5374
   55MOL   H31523103   4.822   0.649   1.965 -0.0271 -0.2719 -0.2154
   55MOL   H31623104   4.772   0.522   2.082  0.6871  0.6623  1.3943
   55MOL   C31723105   5.534   0.341   1.948  0.2161 -0.7743  0.1877
   55MOL   C31823106   5.680   0.328   1.906 -0.0069 -0.0432 -0.4691
   55MOL   C31923107   5.766   0.315   2.035  0.1774  0.1025 -0.5881
   55MOL   O32023108   5.839   0.410   2.064  0.3226 -0.2253  0.1210
   55MOL   O32123109   5.735   0.209   2.110 -0.1845 -0.3000 -0.5089
   55MOL   C32223110   5.799   0.194   2.248 -0.5496  0.5405  0.2587
   55MOL   C32323111   5.732   0.291   2.348 -0.4467 -0.0676  0.2636
   55MOL   C32423112   5.828   0.310   2.467  0.3632  0.1001 -0.0407
   55MOL   C32523113   5.765   0.412   2.569 -0.0213  0.3621  0.4752
   55MOL   H32623114   5.470   0.332   1.860  1.3851 -0.3895 -0.7109
   55MOL   H32723115   5.503   0.255   2.009 -1.1801 -0.3991  0.0289
   55MOL   H32823116   5.700   0.420   1.852  1.4006 -0.8177 -1.3071
   55MOL   H32923117   5.906   0.215   2.238 -0.5046  0.2994  0.2353
   55MOL   H33023118   5.785   0.089   2.274  3.3452 -0.2755 -0.5355
   55MOL   H33123119   5.712   0.387   2.301  0.3730 -0.2094 -0.4009
   55MOL   H33223120   5.635   0.255   2.380  0.0355 -0.9787  0.7436
   55MOL   H33323121   5.914   0.352   2.415 -0.3107  1.2182 -0.2770
   55MOL   H33423122   5.850   0.211   2.506  0.4704  0.2142  0.1904
   55MOL   H33523123   5.745   0.505   2.516 -1.4665  0.3617  0.9895
   55MOL   H33623124   5.842   0.421   2.646  3.3251  0.7485 -2.7506
   55MOL   H33723125   5.671   0.370   2.606  0.4167  0.7171  2.0092
   55MOL   C33823126   5.709   0.206   1.806 -0.6573  0.3726 -0.8663
   55MOL   C33923127   5.854   0.172   1.767  0.6050  0.2634 -0.2351
   55MOL   C34023128   5.868   0.029   1.714 -0.0056 -0.0423 -0.1746
   55MOL   O34123129   5.777   7.812   1.662 -0.7266  0.3666  0.9119
   55MOL   O34223130   5.984   7.826   1.734 -0.2029 -0.0180  0.0161
   55MOL   C34323131   6.017   7.698   1.684 -0.3935 -0.1129 -1.0975
   55MOL   C34423132   6.166   7.679   1.645 -0.3069  0.5743  0.2556
   55MOL   C34523133   6.215   7.534   1.640  0.7180 -0.5596 -0.0094
   55MOL   C34623134   6.203   7.445   1.767  0.2736 -0.2370 -0.2337
   55MOL   H34723135   5.644   0.216   1.719 -0.8330 -0.7741 -0.8719
   55MOL   H34823136   5.672   0.120   1.862 -0.2412  1.6091  1.3685
   55MOL   H34923137   5.916   0.175   1.856  1.3109  2.7478 -0.7862
   55MOL   H35023138   5.962   7.658   1.599 -2.7382 -1.0134  0.8119
   55MOL   H35123139   5.980   7.640   1.768  0.7912  0.1405 -0.3941
   55MOL   H35223140   6.184   7.737   1.554  3.4576 -0.4882  0.2489
   55MOL   H35323141   6.215   7.737   1.723 -0.7366  1.0202  0.1964
   55MOL   H35423142   6.317   7.550   1.605  0.4235  0.5181 -0.4129
   55MOL   H35523143   6.173   7.487   1.551 -1.3096  1.4895 -0.1733
   55MOL   H35623144   6.264   7.488   1.846 -1.0140  0.9733  0.1242
   55MOL   H35723145   6.238   7.344   1.742  0.9952  0.0052 -0.2181
   55MOL   H35823146   6.103   7.421   1.802  0.9791 -1.5604  0.9343
   55MOL   C35923147   5.925   0.281   1.669 -0.8545 -0.3889 -0.4336
   55MOL   C36023148   6.081   0.268   1.663 -0.1773 -0.6239  0.4443
   55MOL   C36123149   6.122   0.351   1.546  0.5187  0.1492  0.4250
   55MOL   O36223150   6.204   0.307   1.461 -0.6794  0.2722  0.2870
   55MOL   O36323151   6.059   0.470   1.542 -0.3333  0.2288 -0.3857
   55MOL   C36423152   6.091   0.552   1.426 -0.3320  0.7227  0.0493
   55MOL   C36523153   6.053   0.689   1.450  0.1468 -0.6617  0.2012
   55MOL   C36623154   6.139   0.755   1.554 -0.8068 -0.6737  0.4103
   55MOL   C36723155   6.067   0.856   1.640  0.3939  0.1288  0.1498
   55MOL   H36823156   5.899   0.380   1.704 -2.4382 -1.0384  0.2749
   55MOL   H36923157   5.884   0.257   1.571  0.1398  1.0686 -1.2073
   55MOL   H37023158   6.111   0.166   1.636  2.6479  0.0468  0.8316
   55MOL   H37123159   6.039   0.520   1.335 -1.9346  0.0205  1.1779
   55MOL   H37223160   6.197   0.538   1.409 -1.0926 -2.7989 -2.4846
   55MOL   H37323161   6.044   0.744   1.357 -1.2270  0.3849  0.9490
   55MOL   H37423162   5.952   0.683   1.489  0.8641  1.3112  2.4951
   55MOL   H37523163   6.220   0.815   1.512 -0.1799 -0.0585  2.4115
   55MOL   H37623164   6.191   0.685   1.621  1.8569  1.8600  1.0813
   55MOL   H37723165   6.137   0.885   1.718 -0.2011 -2.5014  1.6772
   55MOL   H37823166   5.963   0.843   1.670  0.1175  0.4168 -0.6484
   55MOL   H37923167   6.046   0.944   1.579  0.4919  0.7498  0.9994
   55MOL   C38023168   6.153   0.307   1.797  0.4957 -0.0141  0.3127
   55MOL   C38123169   6.253   0.199   1.838 -0.1564 -0.5254  0.1136
   55MOL   C38223170   6.375   0.217   1.752 -0.4488  0.2565 -0.2308
   55MOL   O38323171   6.455   0.310   1.766  0.5808 -0.3868 -0.0837
   55MOL   O38423172   6.383   0.120   1.659  0.2728 -0.5920  0.3607
   55MOL   C38523173   6.476   0.126   1.555 -0.4081  0.2917  0.5738
   55MOL   C38623174   6.486   7.835   1.510 -0.3010  0.4105 -0.1438
   55MOL   C38723175   6.562   7.754   1.617  0.1398  0.2574  0.1382
   55MOL   C38823176   6.586   7.616   1.569  0.1361  0.1438  0.7040
   55MOL   H38923177   6.072   0.333   1.865 -1.5744  0.0379 -2.0761
   55MOL   H39023178   6.192   0.409   1.795  0.6143 -0.0777 -1.7713
   55MOL   H39123179   6.205   0.103   1.820  0.6832 -0.9740  0.2271
   55MOL   H39223180   6.573   0.167   1.584 -0.5110  2.0438 -1.4487
   55MOL   H39323181   6.442   0.202   1.485 -0.0073 -0.4811 -0.4718
   55MOL   H39423182   6.387   7.809   1.474  0.0521 -0.1065 -0.7515
   55MOL   H39523183   6.545   7.837   1.418  1.7990  2.5282  1.1637
   55MOL   H39623184   6.505   7.736   1.708 -0.5171  3.6881  0.4795
   55MOL   H39723185   6.653   7.800   1.655 -0.3838  1.0577  0.4168
   55MOL   H39823186   6.540   7.539   1.630 -1.0934 -0.5264 -1.0403
   55MOL   H39923187   6.691   7.588   1.557 -0.0954 -1.0091  1.4157
   55MOL   H40023188   6.555   7.599   1.466  1.5362 -1.1877  0.4856
   55MOL   C40123189   6.288   0.212   1.993  1.0023 -0.1956 -0.2146
   55MOL   C40223190   6.333   0.084   2.061  0.2921  0.3542  0.6271
   55MOL   C40323191   6.219   7.843   2.072 -0.1845  0.5512 -0.5890
   55MOL   O40423192   6.211   7.748   1.992 -0.5197 -0.4247  0.2187
   55MOL   O40523193   6.126   0.022   2.159 -0.2244  0.1863  0.3973
   55MOL   C40623194   6.021   7.781   2.192 -0.3190 -0.3255  0.2997
   55MOL   C40723195   5.915   7.754   2.082 -0.0877 -0.0671  0.4035
   55MOL   C40823196   5.797   7.670   2.121  0.3054 -0.6061 -0.6675
   55MOL   C40923197   5.693   7.652   2.009  0.3252  0.0978 -0.1295
   55MOL   H41023198   6.193   0.246   2.034 -0.1884 -2.7504 -0.7461
   55MOL   H41123199   6.362   0.290   2.011 -0.3348  1.4386 -1.5968
   55MOL   H41223200   6.345   0.105   2.167 -1.4778 -0.1759  0.9567
   55MOL   H41323201   5.979   7.813   2.287 -0.4872  1.0776 -0.2421
   55MOL   H41423202   6.077   7.690   2.212 -1.1295 -0.4830  1.9257
   55MOL   H41523203   5.877   7.851   2.051 -1.3281 -1.2358 -1.8912
   55MOL   H41623204   5.964   7.718   1.991  1.0651  1.1176  0.5484
   55MOL   H41723205   5.746   7.700   2.213  1.0188 -1.3809 -0.0052
   55MOL   H41823206   5.838   7.571   2.143  0.3038 -0.3496  0.5106
   55MOL   H41923207   5.667   7.548   2.028 -2.0284  0.8950  1.1151
   55MOL   H42023208   5.727   7.682   1.909  1.0236 -0.2070  0.0096
   55MOL   H42123209   5.606   7.707   2.042  1.1576  0.2102  1.9213
   55MOL   H42223210   6.424   0.042   2.017  0.7155 -0.0745  1.9028
   56MOL     C123211   3.398   0.250   0.694  0.5042  0.1767  0.7586
   56MOL     C223212   3.472   0.162   0.585 -0.0179  0.3247 -0.1738
   56MOL     C323213   3.384   0.134   0.463 -0.0544  0.7688  0.1720
   56MOL     O423214   3.306   0.220   0.424 -0.0614  0.1860  0.2620
   56MOL     O523215   3.396   0.014   0.405  0.3231 -0.5400  0.1493
   56MOL     C623216   3.318   7.817   0.297 -0.3272  0.0638 -0.1346
   56MOL     C723217   3.404   7.817   0.171  0.5322 -0.5223 -1.2409
   56MOL     C823218   3.429   0.101   0.101 -0.7914 -0.2954 -0.1916
   56MOL     C923219   3.500   0.073   7.815  0.1542  0.0087  0.2606
   56MOL    H1023220   3.356   0.343   0.655  0.8057 -0.1651 -0.4048
   56MOL    H1123221   3.329   0.179   0.739 -0.7373  0.1755 -1.1113
   56MOL    H1223222   3.510   0.067   0.622 -0.5250 -0.0279 -0.5585
   56MOL    H1323223   3.233   0.031   0.284 -0.3820 -0.2139 -1.3041
   56MOL    H1423224   3.286   7.716   0.319 -1.0380  0.7365  2.0033
   56MOL    H1523225   3.503   7.772   0.185 -0.5338 -2.7186 -0.5115
   56MOL    H1623226   3.357   7.754   0.096  1.9213 -0.9925 -1.7459
   56MOL    H1723227   3.489   0.174   0.156 -0.4288 -1.6352  1.2140
   56MOL    H1823228   3.336   0.150   0.073  0.4644  1.1338 -1.9515
   56MOL    H1923229   3.597   0.032   7.843 -0.2865  0.0461  1.9127
   56MOL    H2023230   3.515   0.168   7.763 -2.4543 -0.0901 -0.7775
   56MOL    H2123231   3.445   0.003   7.752 -0.7037  1.6216 -0.8208
   56MOL    H2223232   3.464   0.257   0.781  1.1031 -0.7554  0.3806
   56MOL    C2323233   3.586   0.255   0.526 -0.1815  0.2772 -0.1088
   56MOL    C2423234   3.703   0.292   0.619 -0.0661  0.5082  0.1057
   56MOL    C2523235   3.741   0.190   0.722 -0.2444  0.1644  0.3997
   56MOL    O2623236   3.731   0.070   0.717 -0.1126  0.4997 -0.2713
   56MOL    O2723237   3.798   0.255   0.829  1.0089 -0.2920  0.9687
   56MOL    C2823238   3.820   0.180   0.947  0.2512 -0.1069 -0.1726
   56MOL    C2923239   3.685   0.167   1.022 -0.9031 -0.1150  0.8913
   56MOL    C3023240   3.637   0.295   1.094 -0.1462 -0.1957  0.6813
   56MOL    C3123241   3.504   0.283   1.167  0.4701 -0.5688  0.0527
   56MOL    H3223242   3.539   0.343   0.483  1.5611  0.6189 -1.3520
   56MOL    H3323243   3.630   0.196   0.447  0.4382  0.6053 -0.0148
   56MOL    H3423244   3.651   0.367   0.680 -0.0169  1.0907 -0.5684
   56MOL    H3523245   3.904   0.212   1.007 -1.2126  1.4750  1.0705
   56MOL    H3623246   3.854   0.083   0.910  2.1616  0.1395  0.9058
   56MOL    H3723247   3.602   0.132   0.960 -0.6192 -1.4128  1.2175
   56MOL    H3823248   3.690   0.093   1.102  0.0880 -1.0373 -0.0010
   56MOL    H3923249   3.640   0.370   1.015 -0.0506 -0.1493  0.7291
   56MOL    H4023250   3.710   0.326   1.169  1.6479  1.2501 -1.5782
   56MOL    H4123251   3.416   0.289   1.102  1.6160 -1.4547 -1.6270
   56MOL    H4223252   3.483   0.363   1.237  0.5166 -0.0773 -0.4903
   56MOL    H4323253   3.498   0.191   1.226 -0.1458  0.4349  1.5774
   56MOL    C4423254   3.825   0.344   0.546  0.0670  0.5694  0.5721
   56MOL    C4523255   3.816   0.497   0.496  0.4693  0.8450 -1.0298
   56MOL    C4623256   3.817   0.598   0.617  0.0101  0.7398  0.1352
   56MOL    O4723257   3.718   0.663   0.647 -0.1991 -0.0741  0.0602
   56MOL    O4823258   3.924   0.590   0.688  0.1501 -0.4473 -0.0800
   56MOL    C4923259   3.929   0.652   0.814  0.0879  0.0628  0.2243
   56MOL    C5023260   4.061   0.629   0.877  0.1640  0.7474 -0.1284
   56MOL    C5123261   4.092   0.484   0.916  0.2948  0.1370  0.6745
   56MOL    C5223262   4.099   0.465   1.070 -0.0924 -0.0639  0.6115
   56MOL    H5323263   3.827   0.283   0.456  1.0250  0.5183  0.6271
   56MOL    H5423264   3.914   0.326   0.606 -0.5961  0.1666  1.4486
   56MOL    H5523265   3.726   0.496   0.436  0.9425 -0.7608 -1.7267
   56MOL    H5623266   3.849   0.617   0.878 -0.5780  0.9534 -0.0989
   56MOL    H5723267   3.913   0.760   0.802  0.3513 -0.1891 -2.9763
   56MOL    H5823268   4.131   0.653   0.796  0.2175  2.4037  0.4045
   56MOL    H5923269   4.093   0.705   0.948  0.0706 -0.0522  0.7960
   56MOL    H6023270   4.186   0.443   0.879  0.1819  0.9393 -0.5145
   56MOL    H6123271   4.012   0.423   0.874  2.1714 -0.9189 -1.4880
   56MOL    H6223272   4.005   0.493   1.117 -1.1790  0.7165 -1.9125
   56MOL    H6323273   4.179   0.523   1.113  0.8674 -0.0097 -1.2052
   56MOL    H6423274   4.112   0.358   1.090  0.5544 -0.1825 -0.3922
   56MOL    C6523275   3.940   0.520   0.405  0.6608 -0.1914 -0.4798
   56MOL    C6623276   3.949   0.432   0.279  0.2982 -0.2730  0.3564
   56MOL    C6723277   3.835   0.477   0.183  0.3887  0.8984  0.3981
   56MOL    O6823278   3.780   0.589   0.200 -0.0913  0.6287 -0.1498
   56MOL    O6923279   3.795   0.380   0.100  0.7392  0.2836 -0.7194
   56MOL    C7023280   3.716   0.411   7.846 -0.0538  1.0054  0.3479
   56MOL    C7123281   3.790   0.470   7.729  0.2031  0.7918  0.4627
   56MOL    C7223282   3.908   0.380   7.689 -0.2236 -0.3504  0.0853
   56MOL    C7323283   4.003   0.458   7.593 -0.2216  0.2271 -0.0929
   56MOL    H7423284   4.030   0.513   0.466  0.6544  0.6020 -0.3657
   56MOL    H7523285   3.933   0.627   0.386 -0.9053 -0.0909  0.5626
   56MOL    H7623286   3.923   0.327   0.294  1.1697 -0.3480  1.4278
   56MOL    H7723287   3.628   0.473   0.010 -1.4937 -0.9005 -0.1227
   56MOL    H7823288   3.660   0.321   7.821  0.0713  0.5725  1.5800
   56MOL    H7923289   3.715   0.482   7.651  0.7864  3.1378  0.2348
   56MOL    H8023290   3.832   0.568   7.749  1.2162  0.0908  1.8968
   56MOL    H8123291   3.875   0.283   7.652 -1.3693 -0.3738  1.1457
   56MOL    H8223292   3.975   0.358   7.772 -1.2667 -2.7491  0.3221
   56MOL    H8323293   4.031   0.558   7.627 -0.6370  0.2873  0.0707
   56MOL    H8423294   3.969   0.472   7.490  0.3779 -3.6249 -0.8779
   56MOL    H8523295   4.095   0.403   7.572 -0.0964 -0.0170  1.0530
   56MOL    C8623296   4.084   0.448   0.206  0.3612  0.4295 -0.0484
   56MOL    C8723297   4.203   0.373   0.266  0.1545 -0.2702 -0.0021
   56MOL    C8823298   4.210   0.226   0.246  0.0481  0.0549 -0.0691
   56MOL    O8923299   4.126   0.174   0.170 -0.8806  0.4506  0.3914
   56MOL    O9023300   4.293   0.162   0.334 -0.3786 -0.0200 -0.1449
   56MOL    C9123301   4.284   0.021   0.343 -0.2642 -0.3511  0.0893
   56MOL    C9223302   4.177   7.844   0.450 -0.6340 -0.2835 -0.3671
   56MOL    C9323303   4.218   0.030   0.599  0.9763 -0.0992  0.0569
   56MOL    C9423304   4.097   0.079   0.681  0.7077  0.2348 -0.5538
   56MOL    H9523305   4.096   0.555   0.193 -1.2863  0.2275 -3.7592
   56MOL    H9623306   4.070   0.409   0.105 -0.1781  1.3971 -0.3536
   56MOL    H9723307   4.196   0.382   0.375  0.2989  0.5920 -0.0632
   56MOL    H9823308   4.385   7.839   0.368  0.9175  2.3262 -0.7012
   56MOL    H9923309   4.267   7.831   0.245 -0.6497  1.0216 -0.4448
   56MOL   H10023310   4.085   0.046   0.433  0.6579  2.5051  1.3405
   56MOL   H10123311   4.161   7.737   0.441 -1.2773 -0.4337  2.1744
   56MOL   H10223312   4.289   0.112   0.593  1.9529 -0.7112  2.4316
   56MOL   H10323313   4.258   7.797   0.654  1.8981 -0.9908 -1.9540
   56MOL   H10423314   4.114   0.078   0.789 -0.2494 -2.4181 -0.3829
   56MOL   H10523315   4.014   0.010   0.671  2.6065 -1.7638 -3.2109
   56MOL   H10623316   4.067   0.182   0.664 -3.2990 -0.7737 -0.0910
   56MOL   C10723317   4.328   0.455   0.220 -0.8959  0.2187 -0.2294
   56MOL   C10823318   4.377   0.563   0.331 -0.2019 -0.5960  0.4609
   56MOL   C10923319   4.414   0.499   0.464 -0.0232  0.5334  0.1735
   56MOL   O11023320   4.333   0.489   0.554 -0.6061  0.0640  0.0560
   56MOL   O11123321   4.543   0.461   0.473 -0.5412 -0.5223 -0.3461
   56MOL   C11223322   4.581   0.374   0.576  0.2604 -0.2738 -0.4744
   56MOL   C11323323   4.663   0.435   0.690 -0.3813  0.0350 -0.6905
   56MOL   C11423324   4.783   0.506   0.631 -0.3489 -0.3344 -0.0732
   56MOL   C11523325   4.895   0.500   0.733  0.5495  0.0227 -0.3692
   56MOL   H11623326   4.298   0.499   0.125  2.2232  1.0620 -0.8715
   56MOL   H11723327   4.403   0.385   0.181 -1.7612 -1.0426  0.3309
   56MOL   H11823328   4.294   0.628   0.358 -0.1825 -0.5190  0.3359
   56MOL   H11923329   4.640   0.296   0.528  1.8155  0.6117 -0.0359
   56MOL   H12023330   4.497   0.320   0.620  0.1805  0.5604  0.3920
   56MOL   H12123331   4.591   0.500   0.740 -0.2445  0.7608 -1.4284
   56MOL   H12223332   4.690   0.347   0.748  0.7688  1.1655  0.5067
   56MOL   H12323333   4.763   0.608   0.597  0.3764 -1.0388 -2.6923
   56MOL   H12423334   4.824   0.457   0.543 -0.3976 -1.4490  0.5150
   56MOL   H12523335   4.994   0.531   0.699  1.7466 -0.4261  2.5167
   56MOL   H12623336   4.910   0.392   0.739  0.4103  0.0078 -0.2846
   56MOL   H12723337   4.884   0.541   0.834 -1.2228  0.8167 -0.8674
   56MOL   C12823338   4.491   0.658   0.288 -0.3319 -0.1364  0.0959
   56MOL   C12923339   4.453   0.744   0.160  0.0700 -0.3074 -0.2460
   56MOL   C13023340   4.317   0.816   0.178  0.4644 -0.4335 -0.1597
   56MOL   O13123341   4.214   0.776   0.122 -0.4567 -0.2742  0.0224
   56MOL   O13223342   4.323   0.921   0.257 -0.1147 -0.0810  0.7915
   56MOL   C13323343   4.203   0.977   0.303 -0.1812  0.4455  0.0213
   56MOL   C13423344   4.225   1.113   0.377  0.1558 -0.0440  0.5076
   56MOL   C13523345   4.254   1.234   0.284  0.1343  0.0826 -0.1476
   56MOL   C13623346   4.294   1.348   0.378  0.2439  1.0350  0.0690
   56MOL   H13723347   4.587   0.607   0.281  0.8278  1.9192  0.5535
   56MOL   H13823348   4.505   0.731   0.368 -1.2906 -1.0379  1.1166
   56MOL   H13923349   4.428   0.679   0.076  0.4287  0.4677 -0.9500
   56MOL   H14023350   4.141   0.905   0.357 -0.7924  0.4676 -0.6553
   56MOL   H14123351   4.142   1.013   0.220 -2.8983  0.8881  2.1083
   56MOL   H14223352   4.139   1.137   0.439 -0.7366 -0.0190 -0.7300
   56MOL   H14323353   4.307   1.095   0.448  0.0294  1.1186  0.9541
   56MOL   H14423354   4.171   1.256   0.216 -0.3735  0.5673  0.6291
   56MOL   H14523355   4.338   1.199   0.224 -0.3292  0.0049 -0.7714
   56MOL   H14623356   4.290   1.451   0.343  0.4186  0.8675 -0.4353
   56MOL   H14723357   4.397   1.349   0.416  0.3876  0.1407 -0.2895
   56MOL   H14823358   4.235   1.344   0.470  1.8791  0.8788  1.1485
   56MOL   C14923359   4.562   0.843   0.112 -0.0146  0.8953  1.0092
   56MOL   C15023360   4.689   0.777   0.049 -0.0469  0.0337  0.0520
   56MOL   C15123361   4.662   0.708   7.767 -0.3776 -1.0349 -0.0799
   56MOL   O15223362   4.666   0.591   7.755 -0.1665 -0.1406  0.1677
   56MOL   O15323363   4.638   0.801   7.675  0.4609 -0.0161  0.5210
   56MOL   C15423364   4.545   0.777   7.572 -0.9577 -0.2253  0.1987
   56MOL   C15523365   4.504   0.919   7.508  0.5311  0.8529  0.0204
   56MOL   C15623366   4.634   0.984   7.455 -0.1236 -0.2473  0.4091
   56MOL   C15723367   4.605   1.123   7.402 -0.2198  0.0183  0.1289
   56MOL   H15823368   4.588   0.899   0.202 -2.0115 -0.3210  2.3765
   56MOL   H15923369   4.515   0.917   0.048  2.1503  1.4427 -0.0157
   56MOL   H16023370   4.715   0.695   0.115  0.9167 -0.5462 -1.0209
   56MOL   H16123371   4.457   0.734   7.620 -0.8688 -0.8282 -0.1665
   56MOL   H16223372   4.591   0.706   7.504 -0.7144  1.0784 -1.0196
   56MOL   H16323373   4.430   0.915   7.428  2.2552 -1.7507 -1.5156
   56MOL   H16423374   4.454   0.978   7.584 -0.6548  0.9457 -0.8301
   56MOL   H16523375   4.693   0.933   7.379 -0.3586 -1.4958  1.0538
   56MOL   H16623376   4.703   0.996   7.539 -0.5236 -2.2039  1.0450
   56MOL   H16723377   4.553   1.129   7.307  0.2318  0.8346 -0.0733
   56MOL   H16823378   4.708   1.155   7.384  0.2363 -1.1191  0.6329
   56MOL   H16923379   4.553   1.188   7.472 -1.2964 -0.7039  0.0020
   56MOL   C17023380   4.798   0.881   0.043 -0.6924  1.0689 -0.0159
   56MOL   C17123381   4.936   0.841   7.842  0.2385 -0.0078  0.1659
   56MOL   C17223382   5.039   0.955   7.829 -0.0999  0.1065 -1.0968
   56MOL   O17323383   5.031   1.058   0.036  0.2891 -0.4369 -0.3857
   56MOL   O17423384   5.140   0.915   7.752  0.2640  0.1616  0.6188
   56MOL   C17523385   5.239   1.004   7.711  0.5102 -0.2087  0.7998
   56MOL   C17623386   5.378   0.944   7.728 -0.0070 -0.1813  0.2691
   56MOL   C17723387   5.418   0.913   0.017  0.1391 -0.2540 -0.6794
   56MOL   C17823388   5.564   0.862   0.025  0.3684  0.2852  0.4705
   56MOL   H17923389   4.818   0.906   0.147 -0.0979 -1.5741  0.5414
   56MOL   H18023390   4.765   0.975   7.852 -0.5450  0.6484 -1.0410
   56MOL   H18123391   4.921   0.819   7.736  0.1635 -0.2277  0.2232
   56MOL   H18223392   5.242   1.103   7.757  0.0684 -0.7869  2.1069
   56MOL   H18323393   5.225   1.021   7.605  0.0275  1.4030  1.1065
   56MOL   H18423394   5.385   0.862   7.656 -1.6180  0.6651 -0.8778
   56MOL   H18523395   5.451   1.017   7.692 -2.0009  1.7128 -0.0272
   56MOL   H18623396   5.347   0.836   0.047 -0.7425  0.5219 -0.7599
   56MOL   H18723397   5.408   0.998   0.084  0.9956 -0.9785  0.3897
   56MOL   H18823398   5.633   0.944   0.006  0.8200  0.2947  2.1166
   56MOL   H18923399   5.579   0.775   7.814 -0.7200  0.2620  0.2382
   56MOL   H19023400   5.588   0.828   0.125 -1.0998  0.9839  1.0806
   56MOL   C19123401   5.000   0.725   0.060 -0.7276  0.4025  0.0542
   56MOL   C19223402   5.076   0.739   0.202 -0.0226 -0.5146 -0.0401
   56MOL   C19323403   4.970   0.768   0.318  0.3648 -0.0597  0.2596
   56MOL   O19423404   4.881   0.683   0.348  0.4328  0.2714  0.0083
   56MOL   O19523405   4.980   0.887   0.385 -0.0147 -0.0585 -0.0245
   56MOL   C19623406   4.919   0.910   0.504  0.4084 -0.5871 -0.5911
   56MOL   C19723407   4.787   0.971   0.479  0.2493  0.0867  0.4666
   56MOL   C19823408   4.782   1.115   0.423 -0.5385  0.2502 -0.5951
   56MOL   C19923409   4.636   1.160   0.397 -0.2915 -0.2945 -0.6140
   56MOL   H20023410   5.075   0.681   7.846  0.1962  1.5970  0.2853
   56MOL   H20123411   4.930   0.644   0.080 -1.5497  0.9703 -0.4880
   56MOL   H20223412   5.137   0.830   0.203  0.7802 -1.0271 -1.6308
   56MOL   H20323413   4.986   0.962   0.573  0.8422 -2.1184  0.1573
   56MOL   H20423414   4.909   0.812   0.550  1.8510 -0.8149 -0.7534
   56MOL   H20523415   4.731   0.903   0.414  1.1083 -0.1568 -0.0263
   56MOL   H20623416   4.727   0.979   0.570 -1.5891  1.2031 -0.7946
   56MOL   H20723417   4.839   1.112   0.330  1.9767 -0.8368  0.9314
   56MOL   H20823418   4.832   1.183   0.492  0.2450  1.5486 -2.4004
   56MOL   H20923419   4.574   1.081   0.356  0.5161 -2.0447  1.4249
   56MOL   H21023420   4.633   1.243   0.326  2.2644  1.0126  0.7523
   56MOL   H21123421   4.582   1.188   0.488 -0.2544 -4.1555  0.6837
   56MOL   C21223422   5.159   0.611   0.223  0.3074  0.1329 -0.1887
   56MOL   C21323423   5.253   0.610   0.339 -0.3133 -0.9771  0.2709
   56MOL   C21423424   5.342   0.724   0.349 -0.4725  0.0244 -0.2965
   56MOL   O21523425   5.464   0.716   0.329  0.5760 -0.2294  0.3436
   56MOL   O21623426   5.285   0.848   0.380  0.4151 -0.1831  0.2571
   56MOL   C21723427   5.363   0.962   0.397 -0.0175  0.0318 -0.1960
   56MOL   C21823428   5.416   0.987   0.541 -0.1609  0.1538  0.4418
   56MOL   C21923429   5.433   1.134   0.578  0.2199 -0.2506 -0.5240
   56MOL   C22023430   5.533   1.153   0.698 -0.1536  0.4067 -0.3304
   56MOL   H22123431   5.219   0.601   0.133  1.2105 -0.0325  0.4288
   56MOL   H22223432   5.088   0.528   0.229 -2.4811  2.4491  0.0378
   56MOL   H22323433   5.322   0.528   0.318  0.1338 -0.4393 -0.3808
   56MOL   H22423434   5.282   1.034   0.378 -2.6348 -3.7298 -4.1553
   56MOL   H22523435   5.444   0.969   0.324  0.8383  1.0426  0.8255
   56MOL   H22623436   5.337   0.948   0.606 -1.1093 -0.9062 -1.2871
   56MOL   H22723437   5.506   0.928   0.558 -0.2415  0.4013  1.7307
   56MOL   H22823438   5.329   1.164   0.593  0.5813  1.5235 -1.5186
   56MOL   H22923439   5.464   1.199   0.496  0.0099 -0.2405 -0.5941
   56MOL   H23023440   5.494   1.104   0.786 -1.1905 -0.4871 -1.2742
   56MOL   H23123441   5.537   1.259   0.721 -2.9864  0.5507 -0.3353
   56MOL   H23223442   5.633   1.110   0.686  0.9723  2.5789  0.9129
   56MOL   C23323443   5.191   0.562   0.472 -0.2125 -0.8567 -0.0826
   56MOL   C23423444   5.302   0.509   0.579  0.1150 -0.4248 -0.7166
   56MOL   C23523445   5.346   0.618   0.679  0.3059 -0.3312 -0.4900
   56MOL   O23623446   5.465   0.646   0.690 -0.0188 -0.1144  0.4317
   56MOL   O23723447   5.248   0.658   0.759 -0.1784  0.2183  0.6611
   56MOL   C23823448   5.275   0.755   0.864  0.2531  0.1521  0.3361
   56MOL   C23923449   5.154   0.809   0.935 -0.3889  0.0412 -0.1814
   56MOL   C24023450   5.041   0.849   0.832 -0.0364 -0.8303  0.3862
   56MOL   C24123451   4.918   0.897   0.907  0.8763 -0.1670 -0.0872
   56MOL   H24223452   5.137   0.472   0.442 -0.6925 -0.0962 -1.5501
   56MOL   H24323453   5.124   0.633   0.521 -0.3039 -1.6157  0.9135
   56MOL   H24423454   5.391   0.487   0.521 -1.2016 -1.3207 -2.4222
   56MOL   H24523455   5.334   0.835   0.819  0.5114 -1.1905 -1.7769
   56MOL   H24623456   5.340   0.714   0.942 -0.5770 -0.1225  0.8895
   56MOL   H24723457   5.117   0.733   1.004 -2.3214  0.4075 -0.7874
   56MOL   H24823458   5.185   0.901   0.984 -0.1045  0.5597 -1.3343
   56MOL   H24923459   5.019   0.778   0.752 -0.7622  0.9727 -1.0443
   56MOL   H25023460   5.086   0.936   0.785 -0.4791  0.1026  1.6575
   56MOL   H25123461   4.948   0.971   0.981  0.9298 -1.0995  0.8426
   56MOL   H25223462   4.857   0.827   0.965 -0.2308  0.7412 -0.1247
   56MOL   H25323463   4.848   0.945   0.839  0.5417 -0.0775  0.3120
   56MOL   C25423464   5.255   0.380   0.660  0.7307 -0.8295 -0.1013
   56MOL   C25523465   5.265   0.248   0.581 -0.0618 -0.2991 -0.1286
   56MOL   C25623466   5.407   0.234   0.512 -0.2209 -0.0828 -0.1135
   56MOL   O25723467   5.508   0.191   0.564  0.5522 -0.8760  0.2319
   56MOL   O25823468   5.397   0.260   0.381 -0.0881 -0.1198  0.0440
   56MOL   C25923469   5.511   0.250   0.296  0.6878  0.1273  0.2970
   56MOL   C26023470   5.487   0.276   0.148 -0.3500 -0.4936  0.1302
   56MOL   C26123471   5.454   0.425   0.106 -0.6010  0.1221 -0.3920
   56MOL   C26223472   5.482   0.444   7.805 -0.4471 -0.6026  0.1667
   56MOL   H26323473   5.150   0.396   0.686  1.3799  3.0365  0.3399
   56MOL   H26423474   5.311   0.367   0.753  0.2456  0.4367  0.3785
   56MOL   H26523475   5.183   0.243   0.509 -0.6117  1.0295  0.3904
   56MOL   H26623476   5.545   0.148   0.309  1.5299  0.6483  2.2562
   56MOL   H26723477   5.583   0.315   0.346 -0.7251  0.0271  2.5155
   56MOL   H26823478   5.579   0.253   0.094 -0.7692  0.9198 -1.2270
   56MOL   H26923479   5.408   0.216   0.101 -0.9517 -0.0048  0.5064
   56MOL   H27023480   5.510   0.501   0.160 -0.5117  1.2832 -2.0934
   56MOL   H27123481   5.345   0.433   0.109 -0.7138 -1.3860  0.4337
   56MOL   H27223482   5.497   0.549   7.777 -0.1682 -0.9814 -1.1538
   56MOL   H27323483   5.407   0.399   7.740 -2.2804  0.4862  1.4726
   56MOL   H27423484   5.576   0.393   7.787 -1.1821 -2.1513  0.6494
   56MOL   C27523485   5.247   0.117   0.668 -0.1790 -0.4371  0.1168
   56MOL   C27623486   5.113   0.091   0.736  0.6447 -0.4485 -0.9835
   56MOL   C27723487   4.999   0.089   0.628  0.4105 -0.3804 -1.3702
   56MOL   O27823488   4.927   0.185   0.622  0.0598  0.1225 -0.3075
   56MOL   O27923489   4.991   7.824   0.556  0.2316 -0.1592 -0.0780
   56MOL   C28023490   4.874   7.787   0.475 -0.7026  0.1497 -0.0907
   56MOL   C28123491   4.904   7.651   0.408  0.1161 -0.0575  0.3172
   56MOL   C28223492   5.013   7.644   0.302 -0.0278  0.5129 -0.1920
   56MOL   C28323493   5.026   7.507   0.234 -0.0230 -0.0750 -0.1823
   56MOL   H28423494   5.331   0.121   0.737  1.7021  1.5691 -2.2042
   56MOL   H28523495   5.266   0.028   0.609  0.4390  0.6319 -1.3246
   56MOL   H28623496   5.115   0.185   0.792  0.4879 -1.6604  1.0897
   56MOL   H28723497   4.849   0.008   0.399  1.3040  0.7972 -0.1467
   56MOL   H28823498   4.791   7.783   0.545  0.2490 -0.5992  1.0112
   56MOL   H28923499   4.911   7.566   0.474  1.7638 -0.3037 -0.1524
   56MOL   H29023500   4.815   7.631   0.348  0.0932 -0.2892  0.4273
   56MOL   H29123501   5.109   7.677   0.342  0.3869 -0.4316 -0.3781
   56MOL   H29223502   4.990   7.723   0.230 -0.1955  0.2812 -0.3941
   56MOL   H29323503   5.113   7.506   0.168  2.2156  2.2286  2.5480
   56MOL   H29423504   4.941   7.495   0.168 -0.2735  1.3472 -0.1191
   56MOL   H29523505   5.036   7.418   0.297  1.1136  0.6915  0.7549
   56MOL   C29623506   5.108   7.833   0.844 -0.3163  0.4875  0.0365
   56MOL   C29723507   5.017   7.849   0.977 -0.2832  0.4492 -0.1301
   56MOL   C29823508   4.869   7.843   0.947  0.3166  0.0707 -0.3313
   56MOL   O29923509   4.784   0.064   1.002  0.5396 -0.3718 -0.3460
   56MOL   O30023510   4.829   7.740   0.872 -0.2785  0.1963  0.0304
   56MOL   C30123511   4.694   7.744   0.825  0.0298 -0.3957 -0.3741
   56MOL   C30223512   4.649   7.601   0.795 -0.4610 -0.6102 -0.0189
   56MOL   C30323513   4.514   7.599   0.729  0.0538 -0.1340 -0.1879
   56MOL   C30423514   4.482   7.452   0.689 -0.1538 -0.1999  0.0090
   56MOL   H30523515   5.207   7.831   0.891 -0.0203  1.4720 -0.5238
   56MOL   H30623516   5.101   7.732   0.805 -2.7348  0.2599  0.9603
   56MOL   H30723517   5.035   0.094   1.022  0.8565  0.2545 -0.1411
   56MOL   H30823518   4.696   7.810   0.739  0.3964  1.1648  0.7920
   56MOL   H30923519   4.625   7.779   0.902  0.0611 -0.3108 -0.3847
   56MOL   H31023520   4.710   7.565   0.713  0.9751 -2.6335  1.8860
   56MOL   H31123521   4.657   7.532   0.879  3.3834 -0.3109 -0.0777
   56MOL   H31223522   4.512   7.663   0.641 -1.9970  0.3909  0.1902
   56MOL   H31323523   4.442   7.641   0.800 -1.9799 -1.2979 -1.5044
   56MOL   H31423524   4.574   7.399   0.664 -0.2553 -0.5177  0.2997
   56MOL   H31523525   4.407   7.441   0.611 -1.7898  0.2079  1.4886
   56MOL   H31623526   4.454   7.400   0.781  1.5406 -2.5525 -0.7760
   56MOL   C31723527   5.048   7.755   1.095  0.5986 -0.3681  0.4769
   56MOL   C31823528   5.076   7.816   1.232  0.2972  0.1148 -1.8205
   56MOL   C31923529   4.964   0.040   1.300 -0.1671  0.1646 -0.7383
   56MOL   O32023530   4.994   0.143   1.361 -0.4691 -0.3337 -0.0785
   56MOL   O32123531   4.834   7.834   1.305 -0.2141 -0.1067 -0.2795
   56MOL   C32223532   4.729   0.026   1.393  0.1893 -1.0928  0.1716
   56MOL   C32323533   4.627   7.780   1.389 -0.9197  0.3580  0.2460
   56MOL   C32423534   4.545   7.784   1.264  0.3049  0.0871  0.4173
   56MOL   C32523535   4.433   7.675   1.262 -0.6102  0.5846  0.6427
   56MOL   H32623536   5.132   7.692   1.066 -0.6313 -2.3836  1.2277
   56MOL   H32723537   4.966   7.685   1.110  0.0777  0.0314 -0.4294
   56MOL   H32823538   5.158   0.034   1.223 -0.4539  1.1489 -0.6532
   56MOL   H32923539   4.693   0.122   1.359  1.6956 -0.7835 -0.6041
   56MOL   H33023540   4.770   0.051   1.490  0.8185 -0.6426 -0.2064
   56MOL   H33123541   4.660   7.676   1.400 -2.5073 -0.1467  0.3382
   56MOL   H33223542   4.562   7.787   1.475 -2.3293  1.6981 -0.8996
   56MOL   H33323543   4.617   7.776   1.183  0.2550  0.9111  0.2857
   56MOL   H33423544   4.506   0.033   1.255 -1.1908 -0.4159  1.1008
   56MOL   H33523545   4.351   7.702   1.328  0.8654  2.2567  1.8151
   56MOL   H33623546   4.473   7.581   1.298 -1.1429  0.1610  0.1269
   56MOL   H33723547   4.385   7.664   1.164  0.1272  2.0639  0.0976
   56MOL   C33823548   5.132   7.708   1.321 -0.4749 -0.0519  0.4821
   56MOL   C33923549   5.036   7.594   1.379 -0.0271  0.7338 -0.1467
   56MOL   C34023550   5.049   7.464   1.300  0.4479 -0.0631 -0.0609
   56MOL   O34123551   5.139   7.382   1.326  0.2718  0.1501  0.6141
   56MOL   O34223552   4.948   7.448   1.210 -0.0633 -0.4246 -0.1269
   56MOL   C34323553   4.925   7.323   1.146 -0.3774 -0.3465 -0.6531
   56MOL   C34423554   4.786   7.323   1.089 -0.4204 -0.3965  0.4568
   56MOL   C34523555   4.672   7.311   1.195  0.3338 -0.1865  0.0305
   56MOL   C34623556   4.542   7.324   1.118 -0.4303  0.2525 -0.2595
   56MOL   H34723557   5.182   7.766   1.399 -1.3939  4.3812 -2.0900
   56MOL   H34823558   5.227   7.662   1.294 -0.4589  0.2528  0.0089
   56MOL   H34923559   4.929   7.616   1.378 -0.2840 -0.3060  2.2101
   56MOL   H35023560   4.928   7.244   1.221  0.1662  1.9814  1.8184
   56MOL   H35123561   5.003   7.310   1.070 -0.3392 -0.9256 -0.5151
   56MOL   H35223562   4.779   7.415   1.030  0.9129  0.0110  0.9200
   56MOL   H35323563   4.776   7.248   1.011 -1.2188  0.6336 -0.4617
   56MOL   H35423564   4.683   7.390   1.269 -0.3953 -1.0200  1.0487
   56MOL   H35523565   4.676   7.219   1.253  1.2615 -0.1680  0.0049
   56MOL   H35623566   4.521   7.427   1.092 -0.6713  0.8816  2.3005
   56MOL   H35723567   4.464   7.303   1.192 -0.3611  1.3919  0.1488
   56MOL   H35823568   4.539   7.257   1.032  1.4139  0.3174 -0.3843
   56MOL   C35923569   5.065   7.560   1.530  0.6191  0.3041 -0.3495
   56MOL   C36023570   4.996   7.638   1.637  0.4962  0.3554  0.3902
   56MOL   C36123571   4.845   7.602   1.659 -0.0726  0.2138  0.2297
   56MOL   O36223572   4.784   7.520   1.590 -0.0898 -0.3277 -0.2067
   56MOL   O36323573   4.790   7.681   1.753 -0.6020  0.8685 -0.2535
   56MOL   C36423574   4.655   7.674   1.786  0.8809 -0.1100 -0.7244
   56MOL   C36523575   4.647   7.774   1.901 -0.4248 -0.9047  0.7631
   56MOL   C36623576   4.685   0.065   1.851  0.7396 -0.2565 -0.1264
   56MOL   C36723577   4.563   0.134   1.775 -0.0976  0.2695 -0.3589
   56MOL   H36823578   5.173   7.557   1.548  0.2191 -0.7694  2.1162
   56MOL   H36923579   5.040   7.458   1.561  3.6487 -0.9102 -1.6627
   56MOL   H37023580   5.004   7.744   1.614 -2.5966  0.4442 -0.5913
   56MOL   H37123581   4.620   7.578   1.822 -1.6368  0.3199 -1.9147
   56MOL   H37223582   4.598   7.688   1.694  0.3997  1.5532 -0.1894
   56MOL   H37323583   4.545   7.786   1.937 -0.3167  1.5319  0.3613
   56MOL   H37423584   4.698   7.743   1.992  0.1896 -0.8803  0.4287
   56MOL   H37523585   4.776   0.076   1.793  0.3927  0.2918 -0.5816
   56MOL   H37623586   4.697   0.125   1.942  1.2400 -0.5120 -0.0237
   56MOL   H37723587   4.476   0.130   1.841  1.2011  1.9720  1.5051
   56MOL   H37823588   4.524   0.070   1.696 -3.0306  2.3233 -0.6395
   56MOL   H37923589   4.582   0.236   1.743  0.6165  0.7124  1.4261
   56MOL   C38023590   5.068   7.628   1.774  0.6206 -0.1386  0.4039
   56MOL   C38123591   5.162   7.747   1.820  0.1973 -1.1629  0.2069
   56MOL   C38223592   5.272   7.762   1.705 -0.3580 -0.0222  0.4261
   56MOL   O38323593   5.253   7.837   1.611  0.3481 -0.3796 -0.0030
   56MOL   O38423594   5.368   7.677   1.722 -0.0047 -0.6219 -0.2838
   56MOL   C38523595   5.480   7.679   1.642 -0.5051  0.7918  0.4183
   56MOL   C38623596   5.478   7.577   1.527 -0.3999 -0.4023 -0.9926
   56MOL   C38723597   5.462   7.438   1.587 -0.0792  0.2828 -0.5834
   56MOL   C38823598   5.587   7.379   1.648  0.0431 -0.3154 -0.4034
   56MOL   H38923599   5.137   7.544   1.775  2.2759  1.2147  0.8584
   56MOL   H39023600   4.996   7.594   1.848 -0.0339  0.1517 -0.0848
   56MOL   H39123601   5.205   7.708   1.912 -0.4350 -0.5702  0.7640
   56MOL   H39223602   5.567   7.658   1.704  0.4079 -0.3812 -1.2045
   56MOL   H39323603   5.498   7.778   1.599 -2.0604  1.1974  0.6788
   56MOL   H39423604   5.395   7.603   1.462 -1.6941  2.2453  1.6195
   56MOL   H39523605   5.570   7.583   1.469  0.5042 -0.1920  0.4343
   56MOL   H39623606   5.442   7.366   1.507 -0.2110  0.5922 -0.8299
   56MOL   H39723607   5.380   7.433   1.659  0.5298 -0.4436  0.0774
   56MOL   H39823608   5.565   7.282   1.693  3.1137 -1.0766 -0.4381
   56MOL   H39923609   5.616   7.443   1.732  1.7924  0.4846 -1.5940
   56MOL   H40023610   5.675   7.362   1.586 -0.1487  0.3054 -0.8488
   56MOL   C40123611   5.091   0.028   1.852  0.1949 -0.0873 -0.3837
   56MOL   C40223612   5.180   0.125   1.926  0.7494  0.5042  0.7326
   56MOL   C40323613   5.181   0.086   2.073  0.3783  0.3418  0.0421
   56MOL   O40423614   5.088   0.106   2.151  0.3405  0.6695 -0.4403
   56MOL   O40523615   5.293   0.027   2.106 -0.2658 -0.8533  0.1081
   56MOL   C40623616   5.311   7.832   2.232 -0.2078  0.5055  0.1387
   56MOL   C40723617   5.403   0.064   2.321 -0.2605  0.2118  0.0579
   56MOL   C40823618   5.394   7.847   2.456 -0.1881  0.6387 -0.6048
   56MOL   C40923619   5.488   0.050   2.565 -0.4232 -0.0093  1.1732
   56MOL   H41023620   5.002   7.849   1.907  0.6784 -0.1085  0.3984
   56MOL   H41123621   5.062   0.075   1.759 -0.9179  0.3225  0.1637
   56MOL   H41223622   5.123   0.218   1.921 -2.2372 -1.0843  3.3446
   56MOL   H41323623   5.356   7.732   2.228  0.3358  0.8298 -2.1122
   56MOL   H41423624   5.216   7.826   2.285 -0.6204  1.3633 -0.4970
   56MOL   H41523625   5.504   0.064   2.280  0.0809 -1.5041  0.8785
   56MOL   H41623626   5.371   0.166   2.345 -0.2958 -0.0030  0.9500
   56MOL   H41723627   5.428   7.745   2.441  3.0191  1.4729  0.5475
   56MOL   H41823628   5.292   7.842   2.495 -0.5208  0.0291 -1.5350
   56MOL   H41923629   5.590   0.031   2.532 -0.4883 -0.7778  1.4119
   56MOL   H42023630   5.479   7.829   2.645 -1.2133 -0.1958  0.9158
   56MOL   H42123631   5.465   0.149   2.606  0.6133  0.6207  0.2593
   56MOL   H42223632   5.278   0.139   1.880 -0.7022  2.0036 -2.0313
   57MOL     C123633   6.676   3.440   2.248  0.4808 -0.7699 -0.3362
   57MOL     C223634   6.725   3.292   2.247  0.4590  0.0329  0.2450
   57MOL     C323635   6.708   3.223   2.106 -0.1190 -0.4852  0.2031
   57MOL     O423636   6.665   3.283   2.008 -0.9414 -0.3265  0.7171
   57MOL     O523637   6.764   3.101   2.104 -0.6229 -1.2973  0.4418
   57MOL     C623638   6.779   3.034   1.976 -0.3110 -0.0222  0.2747
   57MOL     C723639   6.905   3.072   1.904 -0.2298  0.1416 -0.0090
   57MOL     C823640   7.032   3.050   1.980 -0.6225  0.6881 -0.3510
   57MOL     C923641   7.156   3.068   1.890 -0.1836  0.1555  0.2497
   57MOL    H1023642   6.585   3.458   2.190  2.0242  1.6567 -2.1295
   57MOL    H1123643   6.668   3.481   2.349 -0.8802 -0.4103 -0.5838
   57MOL    H1223644   6.656   3.235   2.309  2.0224  0.5233  2.5054
   57MOL    H1323645   6.699   3.065   1.910  1.5245 -1.1611 -2.5627
   57MOL    H1423646   6.758   2.927   1.984  0.2713 -0.2107 -0.6274
   57MOL    H1523647   6.904   3.014   1.811 -3.5610 -0.1092  0.1561
   57MOL    H1623648   6.893   3.177   1.874 -1.2335 -0.4608 -1.8065
   57MOL    H1723649   7.031   2.947   2.015  1.1198  0.8691  0.2468
   57MOL    H1823650   7.039   3.113   2.069 -1.4603  1.5460 -0.8734
   57MOL    H1923651   7.247   3.026   1.932  0.0367  1.6376  1.3087
   57MOL    H2023652   7.165   3.176   1.888  0.9373  0.0440 -2.8913
   57MOL    H2123653   7.137   3.030   1.790  0.3274 -0.1874  0.2784
   57MOL    H2223654   6.758   3.492   2.197  1.0585 -0.1077  1.2276
   57MOL    C2323655   6.872   3.286   2.306  0.0616  0.0110  0.6421
   57MOL    C2423656   6.887   3.309   2.458  0.2395  0.1864  0.9356
   57MOL    C2523657   6.834   3.194   2.540 -0.2711 -0.5095  0.2115
   57MOL    O2623658   6.910   3.109   2.575 -0.5602 -0.3431  0.2940
   57MOL    O2723659   6.699   3.196   2.557 -0.7871 -0.0884 -0.0781
   57MOL    C2823660   6.639   3.090   2.622  0.4698 -0.4029 -0.8148
   57MOL    C2923661   6.490   3.112   2.621 -0.7047 -0.0335  0.4834
   57MOL    C3023662   6.409   3.018   2.720 -0.3700  0.0940 -0.0965
   57MOL    C3123663   6.267   2.981   2.683 -0.7574  0.3529 -0.1427
   57MOL    H3223664   6.924   3.372   2.265 -2.4864  0.7381 -1.1981
   57MOL    H3323665   6.933   3.199   2.280  1.5409  0.9060  1.1296
   57MOL    H3423666   6.815   3.390   2.472  0.1865 -0.2595  3.4316
   57MOL    H3523667   6.671   3.078   2.725  0.7259  0.3171 -0.8074
   57MOL    H3623668   6.665   3.003   2.561  0.1782  0.7982 -2.7062
   57MOL    H3723669   6.466   3.211   2.660 -2.4952 -0.7129  1.1123
   57MOL    H3823670   6.469   3.105   2.514  2.0972 -0.0531 -0.1118
   57MOL    H3923671   6.421   3.054   2.822 -0.1253 -0.5948  0.1211
   57MOL    H4023672   6.452   2.919   2.740 -0.2123  0.3989  1.1333
   57MOL    H4123673   6.201   3.067   2.686  1.5199  2.1330  0.3492
   57MOL    H4223674   6.227   2.912   2.757  1.1921 -0.4732  0.1822
   57MOL    H4323675   6.269   2.923   2.590 -0.6026 -0.9566  0.6722
   57MOL    C4423676   7.025   3.380   2.493  0.6331 -0.3469  0.0906
   57MOL    C4523677   7.149   3.285   2.495 -0.3236 -0.4463 -0.2011
   57MOL    C4623678   7.251   3.333   2.389  0.1366 -0.8401 -0.0606
   57MOL    O4723679   7.280   3.268   2.291  0.5406  0.3555 -0.2351
   57MOL    O4823680   7.305   3.451   2.427  0.7250 -0.0591  0.3083
   57MOL    C4923681   7.397   3.527   2.349  0.0697  0.6328  0.1321
   57MOL    C5023682   7.488   3.604   2.437  0.1577 -0.2338  0.2301
   57MOL    C5123683   7.587   3.692   2.361  0.2570  0.0386 -0.3055
   57MOL    C5223684   7.654   3.801   2.456  0.0591 -0.2214  0.0809
   57MOL    H5323685   7.013   3.416   2.596  0.4725 -1.0286  0.3142
   57MOL    H5423686   7.043   3.465   2.429 -1.4509 -0.2429 -0.4021
   57MOL    H5523687   7.112   3.187   2.465 -1.3058 -0.0603 -0.2535
   57MOL    H5623688   7.329   3.574   2.277  2.5135  3.6920 -0.2675
   57MOL    H5723689   7.453   3.456   2.287  3.4215  4.0429 -0.9367
   57MOL    H5823690   7.428   3.673   2.496  2.8652  2.1846  0.3044
   57MOL    H5923691   7.543   3.542   2.508 -0.0357  1.1774  1.6385
   57MOL    H6023692   7.541   3.749   2.280 -0.5252  2.9139  2.0550
   57MOL    H6123693   7.659   3.632   2.306  1.9056 -0.0757  1.8890
   57MOL    H6223694   7.571   3.852   2.504  1.9926 -1.0209  4.4996
   57MOL    H6323695   7.721   3.868   2.401  1.8711 -0.6058  1.7707
   57MOL    H6423696   7.720   3.761   2.533  2.3878  0.0615 -1.7064
   57MOL    C6523697   7.209   3.260   2.635 -0.2311 -0.4659 -0.1252
   57MOL    C6623698   7.309   3.136   2.644  0.1234 -0.3436 -0.6422
   57MOL    C6723699   7.451   3.181   2.618  0.1511  0.3648 -0.4063
   57MOL    O6823700   7.517   3.125   2.537  0.5174  0.3974 -0.0497
   57MOL    O6923701   7.493   3.287   2.692  0.1268 -0.1982 -0.5913
   57MOL    C7023702   7.628   3.323   2.686  0.5035  0.2102  0.0830
   57MOL    C7123703   7.655   3.445   2.780 -0.2112 -0.6966 -0.6377
   57MOL    C7223704   7.659   3.406   2.928  0.6325 -0.2592 -0.6947
   57MOL    C7323705   7.687   3.524   3.023 -0.0455 -0.3217  0.5944
   57MOL    H7423706   7.131   3.240   2.709  0.6772 -0.5072  0.8342
   57MOL    H7523707   7.255   3.352   2.670 -2.2057  1.2728 -2.0370
   57MOL    H7623708   7.293   3.068   2.559  2.0759  1.0328 -2.1551
   57MOL    H7723709   7.645   3.344   2.580 -1.7143 -1.1733 -0.5908
   57MOL    H7823710   7.694   3.238   2.702 -0.8283 -0.6189  1.2906
   57MOL    H7923711   7.752   3.487   2.756  0.1661 -0.0718  1.8418
   57MOL    H8023712   7.579   3.516   2.747 -1.3418 -1.8505 -0.5663
   57MOL    H8123713   7.749   3.345   2.939  0.3294 -0.3236  1.9604
   57MOL    H8223714   7.571   3.350   2.962  0.8077  0.1875  0.5265
   57MOL    H8323715   7.793   3.552   3.027 -0.0639 -0.1752  0.0387
   57MOL    H8423716   7.660   3.494   3.124 -4.3509  0.2825 -0.3153
   57MOL    H8523717   7.621   3.604   2.991  1.4858  0.4184 -0.8027
   57MOL    C8623718   7.293   3.049   2.772 -0.2615  0.0421 -0.3272
   57MOL    C8723719   7.154   2.975   2.791 -0.1214  0.4025 -0.9049
   57MOL    C8823720   7.124   2.862   2.696 -0.1214  0.2277  0.4702
   57MOL    O8923721   7.004   2.833   2.681  0.4417  0.1438  0.0812
   57MOL    O9023722   7.230   2.804   2.630  0.6190  0.1769  0.5461
   57MOL    C9123723   7.218   2.701   2.537  0.0072  0.6306 -0.2832
   57MOL    C9223724   7.185   2.749   2.394 -0.5107  0.4313 -0.0526
   57MOL    C9323725   7.310   2.819   2.330  0.5456  0.1418  0.3824
   57MOL    C9423726   7.279   2.895   2.198  0.2232 -0.5056 -0.2558
   57MOL    H9523727   7.306   3.112   2.860  2.9591  0.0163 -0.7182
   57MOL    H9623728   7.372   2.974   2.779  0.2325  0.5358 -0.6021
   57MOL    H9723729   7.083   3.057   2.776  1.8725  1.9961 -1.8993
   57MOL    H9823730   7.138   2.639   2.578  1.5535 -1.1056  0.2049
   57MOL    H9923731   7.299   2.628   2.536 -2.5442 -2.3684  0.7758
   57MOL   H10023732   7.177   2.658   2.334 -1.0663 -0.7659  1.7794
   57MOL   H10123733   7.109   2.824   2.377 -0.3556  0.8942  1.2556
   57MOL   H10223734   7.385   2.743   2.306  0.7653  0.5974 -0.3846
   57MOL   H10323735   7.363   2.886   2.397 -1.3134  2.7691 -0.6967
   57MOL   H10423736   7.240   2.817   2.133 -0.3424 -1.2100  0.9139
   57MOL   H10523737   7.360   2.955   2.156 -1.1611  0.1758 -2.0648
   57MOL   H10623738   7.194   2.962   2.214  0.3075  0.1457 -2.4166
   57MOL   C10723739   7.151   2.916   2.937 -0.3776 -0.0718 -0.2533
   57MOL   C10823740   7.227   2.784   2.969 -0.0118 -0.7155  0.0189
   57MOL   C10923741   7.376   2.802   2.982  0.2224 -0.1917 -0.0776
   57MOL   O11023742   7.426   2.910   3.020  0.0745 -0.2423 -0.4422
   57MOL   O11123743   7.440   2.690   2.947 -0.2680 -0.3978 -0.1189
   57MOL   C11223744   7.580   2.670   2.967 -0.0779 -0.2039 -0.0944
   57MOL   C11323745   7.618   2.647   3.117  0.6854  0.7283 -0.1329
   57MOL   C11423746   7.631   2.763   3.206  0.7683 -0.4553  0.1854
   57MOL   C11523747   7.698   2.731   3.342  0.2089 -0.1950  0.7776
   57MOL   H11623748   7.044   2.906   2.950 -0.7313  0.0676 -2.8944
   57MOL   H11723749   7.178   2.995   3.008  2.6879  0.0076 -1.4182
   57MOL   H11823750   7.210   2.716   2.886  0.1644  1.0841 -1.5438
   57MOL   H11923751   7.637   2.753   2.925 -1.1059  0.4510 -0.2146
   57MOL   H12023752   7.624   2.587   2.912  0.1902 -0.7826  0.9724
   57MOL   H12123753   7.547   2.579   3.164  0.2185  2.1586  1.2618
   57MOL   H12223754   7.715   2.597   3.121  0.4610  0.3488  0.6335
   57MOL   H12323755   7.532   2.806   3.222  0.6005  0.2995 -2.5856
   57MOL   H12423756   7.685   2.834   3.143 -0.3856 -0.4480 -0.8092
   57MOL   H12523757   7.715   2.830   3.384 -0.5336  1.0865 -1.8175
   57MOL   H12623758   7.788   2.671   3.328  0.3418  0.3150 -0.6968
   57MOL   H12723759   7.627   2.678   3.406  0.0027  0.3976  1.0462
   57MOL   C12823760   7.167   2.706   3.091 -0.2255  0.2724 -0.1187
   57MOL   C12923761   7.033   2.637   3.074  0.4238 -0.1008 -0.6145
   57MOL   C13023762   7.047   2.501   2.990  0.1650 -0.1045 -1.0063
   57MOL   O13123763   7.153   2.465   2.943  0.0826  0.0913 -0.2719
   57MOL   O13223764   6.929   2.439   2.978 -0.1287  0.7105 -0.4248
   57MOL   C13323765   6.908   2.323   2.901  0.0378  0.9672 -0.2108
   57MOL   C13423766   6.867   2.360   2.756  0.0586 -0.0388 -0.3270
   57MOL   C13523767   6.968   2.435   2.671 -0.0938 -0.7228 -0.0589
   57MOL   C13623768   6.946   2.429   2.521  0.6463  1.1286  0.1485
   57MOL   H13723769   7.168   2.776   3.175  0.0835  0.3912 -0.2191
   57MOL   H13823770   7.249   2.641   3.122  0.4405  1.4294  0.6096
   57MOL   H13923771   6.967   2.694   3.008 -0.1750  0.1645  0.2209
   57MOL   H14023772   6.835   2.258   2.949  1.2778 -0.8361 -0.6957
   57MOL   H14123773   7.000   2.264   2.904  0.0465  1.0130  0.8868
   57MOL   H14223774   6.833   2.272   2.701  2.2664  0.5200 -2.7014
   57MOL   H14323775   6.773   2.415   2.765  0.4027  0.5076 -0.0403
   57MOL   H14423776   7.067   2.393   2.687 -0.9170 -2.3606  0.9232
   57MOL   H14523777   6.987   2.538   2.702 -0.4420 -0.7662  0.3072
   57MOL   H14623778   7.022   2.481   2.464 -1.2199  2.3482 -1.2743
   57MOL   H14723779   6.867   2.497   2.489 -0.2841  1.1556  2.3765
   57MOL   H14823780   6.928   2.331   2.478  0.7408  1.5500 -0.8518
   57MOL   C14923781   6.952   2.625   3.204 -0.1427 -0.0320 -0.2023
   57MOL   C15023782   6.926   2.764   3.275 -0.0375  0.4402  0.0196
   57MOL   C15123783   6.784   2.813   3.246  0.6503  0.1278 -0.1541
   57MOL   O15223784   6.696   2.807   3.326  0.2120 -0.3279  0.7992
   57MOL   O15323785   6.775   2.871   3.117 -0.1974 -0.1508  0.0136
   57MOL   C15423786   6.640   2.894   3.073 -0.1629  0.3305  0.6879
   57MOL   C15523787   6.596   2.786   2.975  0.0066 -0.2816 -0.0257
   57MOL   C15623788   6.688   2.763   2.850  0.6415  0.1232  0.6490
   57MOL   C15723789   6.617   2.660   2.758  0.6365  0.3875 -0.2643
   57MOL   H15823790   6.999   2.549   3.266  0.4685  0.8666  0.4614
   57MOL   H15923791   6.857   2.580   3.176 -0.3780  1.1309 -1.3228
   57MOL   H16023792   6.991   2.830   3.216 -0.1733  0.2688 -0.3223
   57MOL   H16123793   6.631   2.989   3.021 -1.6260  0.2596  0.7698
   57MOL   H16223794   6.571   2.906   3.157  1.0647  0.2962  1.7149
   57MOL   H16323795   6.601   2.688   3.023  0.8693 -0.1465  0.1749
   57MOL   H16423796   6.490   2.801   2.954  0.2180 -1.7800 -2.3146
   57MOL   H16523797   6.781   2.718   2.884  1.1275 -0.0759 -0.8874
   57MOL   H16623798   6.709   2.849   2.786  3.8736  0.6948  2.3853
   57MOL   H16723799   6.684   2.620   2.681 -1.6175 -3.0449 -0.5561
   57MOL   H16823800   6.531   2.706   2.708  0.4478  0.8299  0.4643
   57MOL   H16923801   6.561   2.581   2.807  1.1451 -0.1840 -0.6051
   57MOL   C17023802   6.970   2.775   3.424  0.5807 -0.4185  0.1499
   57MOL   C17123803   7.081   2.893   3.458 -0.5590  0.4883 -0.8506
   57MOL   C17223804   7.009   3.032   3.478  0.3544 -0.2504 -0.4778
   57MOL   O17323805   7.031   3.121   3.405 -0.2510 -0.6794 -0.0315
   57MOL   O17423806   6.922   3.037   3.576  0.0982  0.0801 -0.0027
   57MOL   C17523807   6.833   3.152   3.578 -0.0557 -0.5874  0.1379
   57MOL   C17623808   6.729   3.161   3.471 -0.1789 -0.0932 -0.1757
   57MOL   C17723809   6.604   3.233   3.520  1.0798  0.6866 -0.6291
   57MOL   C17823810   6.500   3.255   3.414 -0.7661  0.2386  0.3194
   57MOL   H17923811   7.005   2.676   3.455  1.9669  0.0504  0.1510
   57MOL   H18023812   6.890   2.795   3.495  1.2835 -0.2191  0.8981
   57MOL   H18123813   7.145   2.900   3.370 -0.2834  1.9342 -0.5587
   57MOL   H18223814   6.887   3.246   3.573 -1.4489  0.1620 -0.9889
   57MOL   H18323815   6.791   3.152   3.678  0.8932 -1.8408  0.5543
   57MOL   H18423816   6.778   3.214   3.389  2.5861 -0.7050  1.0109
   57MOL   H18523817   6.714   3.060   3.433 -1.8586  0.1360 -0.1670
   57MOL   H18623818   6.625   3.332   3.560 -0.2762  0.1668  1.4128
   57MOL   H18723819   6.560   3.184   3.607 -1.7835  0.8686 -1.9196
   57MOL   H18823820   6.482   3.161   3.361 -1.4633 -0.6383  2.0612
   57MOL   H18923821   6.535   3.327   3.341  0.8656 -0.4737  0.3860
   57MOL   H19023822   6.402   3.286   3.453 -0.7566  0.5361  0.1080
   57MOL   C19123823   7.174   2.861   3.578 -0.3192  0.1749 -0.3171
   57MOL   C19223824   7.229   2.717   3.582 -0.0351  0.3165  0.2842
   57MOL   C19323825   7.280   2.653   3.449  0.3884  0.1025  0.2524
   57MOL   O19423826   7.359   2.708   3.373  0.0960 -0.1175  0.5199
   57MOL   O19523827   7.250   2.525   3.441 -0.4839  0.0769 -0.5456
   57MOL   C19623828   7.277   2.447   3.325 -0.3423  0.1263 -0.0092
   57MOL   C19723829   7.345   2.312   3.378 -0.1745  0.7397  0.6508
   57MOL   C19823830   7.405   2.237   3.255 -0.1403 -0.0444 -0.2998
   57MOL   C19923831   7.463   2.106   3.303  0.4715 -0.1571 -0.2791
   57MOL   H20023832   7.115   2.887   3.666  2.4183  1.2867  1.2492
   57MOL   H20123833   7.263   2.924   3.584 -1.5332  1.8901  0.0713
   57MOL   H20223834   7.140   2.662   3.613 -0.0674 -0.2097 -0.7351
   57MOL   H20323835   7.348   2.491   3.255  0.3849 -0.2101  0.5195
   57MOL   H20423836   7.184   2.429   3.270 -1.4469  2.8281  0.9044
   57MOL   H20523837   7.424   2.340   3.448  0.9515  0.4092 -0.4861
   57MOL   H20623838   7.274   2.241   3.419  3.0712 -0.3899  4.6723
   57MOL   H20723839   7.481   2.298   3.206  1.3350 -2.4246 -1.0033
   57MOL   H20823840   7.324   2.213   3.186  0.3558 -3.1430  0.1461
   57MOL   H20923841   7.510   2.051   3.221 -1.0512 -1.0955 -0.5304
   57MOL   H21023842   7.394   2.045   3.362  0.8668  0.3657  0.7368
   57MOL   H21123843   7.552   2.123   3.364 -0.6978  0.6434  1.2362
   57MOL   C21223844   7.332   2.693   3.692  0.0399 -0.7275  0.6528
   57MOL   C21323845   7.287   2.639   3.829  0.4150 -0.3629 -0.3026
   57MOL   C21423846   7.140   2.669   3.866 -0.3466 -0.0198  0.4898
   57MOL   O21523847   7.042   2.601   3.831 -0.4240  0.1302 -0.3565
   57MOL   O21623848   7.132   2.782   3.928  0.1405  0.4193 -0.3203
   57MOL   C21723849   7.014   2.826   3.996  0.4522  0.0276 -0.2970
   57MOL   C21823850   7.044   2.949   4.076 -0.6982  0.3974 -0.2704
   57MOL   C21923851   7.140   2.929   4.196 -0.2242 -0.4425  0.2990
   57MOL   C22023852   7.171   3.063   4.257 -0.0369  0.5954  0.2693
   57MOL   H22123853   7.401   2.777   3.703 -0.4351 -0.4079  1.2694
   57MOL   H22223854   7.414   2.628   3.664 -0.7193 -1.4921  0.1602
   57MOL   H22323855   7.354   2.682   3.903 -0.6624 -1.2761  1.2491
   57MOL   H22423856   6.977   2.749   4.063 -1.7562  0.6313 -0.7892
   57MOL   H22523857   6.935   2.845   3.923  0.4052 -1.1758 -0.5641
   57MOL   H22623858   7.089   3.007   3.996  3.1584 -0.8986  0.8822
   57MOL   H22723859   6.946   2.993   4.096 -2.0600 -3.0424  0.8444
   57MOL   H22823860   7.234   2.876   4.176  0.2382 -0.5106  2.5523
   57MOL   H22923861   7.091   2.871   4.274 -0.2444  0.5837  1.0602
   57MOL   H23023862   7.081   3.123   4.272 -1.3853  0.4852 -5.8982
   57MOL   H23123863   7.243   3.125   4.204  1.3312 -1.2489 -0.0627
   57MOL   H23223864   7.222   3.056   4.353  0.3598  1.6068  0.1455
   57MOL   C23323865   7.317   2.493   3.836 -0.8663 -0.3223 -0.1392
   57MOL   C23423866   7.288   2.418   3.977  0.4135 -0.0774 -0.8905
   57MOL   C23523867   7.247   2.273   3.951 -0.0844 -0.6854  0.1014
   57MOL   O23623868   7.327   2.184   3.972 -0.1097  0.6164  0.5616
   57MOL   O23723869   7.128   2.263   3.894 -0.1467  0.4170  0.1798
   57MOL   C23823870   7.087   2.135   3.841  0.4611 -1.1000 -0.0293
   57MOL   C23923871   6.943   2.155   3.792 -0.1525 -0.6510 -0.5842
   57MOL   C24023872   6.924   2.264   3.681 -0.0631 -0.3046  0.0188
   57MOL   C24123873   6.995   2.260   3.551 -0.2388 -0.3772  0.0206
   57MOL   H24223874   7.424   2.473   3.826 -0.9192 -0.3197 -0.6999
   57MOL   H24323875   7.269   2.443   3.752 -3.0087  0.0063  0.8677
   57MOL   H24423876   7.193   2.451   4.018  0.1040 -0.1242 -1.5776
   57MOL   H24523877   7.077   2.049   3.909  0.2193 -0.2192  1.0722
   57MOL   H24623878   7.153   2.107   3.759  2.7548  2.4454  0.4877
   57MOL   H24723879   6.912   2.063   3.742  0.0785 -0.6039 -0.8168
   57MOL   H24823880   6.878   2.179   3.876  1.7897 -1.1628  1.1097
   57MOL   H24923881   6.947   2.364   3.717  1.0291  0.4364 -2.6521
   57MOL   H25023882   6.818   2.257   3.654  0.1477 -0.0979 -0.8655
   57MOL   H25123883   6.972   2.167   3.499  1.0295  0.5041 -2.1545
   57MOL   H25223884   7.103   2.275   3.556 -0.2075 -0.2987 -0.9274
   57MOL   H25323885   6.953   2.342   3.494 -1.1287 -0.0608  1.1024
   57MOL   C25423886   7.407   2.426   4.075 -0.3874  0.5007  0.3128
   57MOL   C25523887   7.389   2.560   4.147 -0.1856 -0.8199  0.5132
   57MOL   C25623888   7.288   2.564   4.253  0.2336 -0.4467  0.2940
   57MOL   O25723889   7.193   2.637   4.243 -0.1352  0.2047  0.0894
   57MOL   O25823890   7.317   2.485   4.358  0.6180  0.0298  0.3289
   57MOL   C25923891   7.215   2.477   4.463 -0.3749  0.1017  0.0833
   57MOL   C26023892   7.242   2.590   4.561  0.6981 -0.2950 -0.2584
   57MOL   C26123893   7.156   2.580   4.682  0.3020  1.1267  0.1351
   57MOL   C26223894   7.166   2.705   4.773  0.0617  0.2073 -0.3985
   57MOL   H26323895   7.495   2.398   4.018 -1.4651 -2.1154 -0.1203
   57MOL   H26423896   7.384   2.345   4.144 -1.8203  1.7100  1.2979
   57MOL   H26523897   7.349   2.633   4.077  0.7257  0.3623  1.2004
   57MOL   H26623898   7.229   2.386   4.521 -1.5948  1.1338  2.0760
   57MOL   H26723899   7.112   2.496   4.434 -0.1367  2.3255  0.6174
   57MOL   H26823900   7.350   2.592   4.579  0.7253 -1.4649 -0.2938
   57MOL   H26923901   7.225   2.674   4.494 -0.0069 -1.4289 -1.4992
   57MOL   H27023902   7.178   2.485   4.731 -0.3036  0.7041 -0.4163
   57MOL   H27123903   7.057   2.561   4.642  1.1795 -0.7286 -1.2126
   57MOL   H27223904   7.271   2.724   4.797  0.4471 -3.5272  1.1733
   57MOL   H27323905   7.113   2.694   4.867  0.7158  2.0879  0.2162
   57MOL   H27423906   7.137   2.796   4.719 -0.2400 -0.0398 -0.6529
   57MOL   C27523907   7.524   2.623   4.192  0.2981 -0.3220  0.0583
   57MOL   C27623908   7.602   2.698   4.080  0.3781 -0.4213  0.6843
   57MOL   C27723909   7.568   2.854   4.068  1.1919  0.2690  0.4662
   57MOL   O27823910   7.612   2.931   4.146 -0.5812  0.7994 -0.4250
   57MOL   O27923911   7.471   2.875   3.970 -0.1905 -0.0372 -0.0524
   57MOL   C28023912   7.427   3.006   3.944  0.4659 -0.1332 -0.0120
   57MOL   C28123913   7.523   3.080   3.851  0.3176  0.3609  0.5758
   57MOL   C28223914   7.536   3.037   3.703  0.0460 -0.3262 -0.3238
   57MOL   C28323915   7.640   3.111   3.616  0.6406 -0.2268 -0.0058
   57MOL   H28423916   7.581   2.540   4.235 -1.4303 -1.9538 -0.7450
   57MOL   H28523917   7.520   2.687   4.280 -1.3347 -1.7476  1.0539
   57MOL   H28623918   7.579   2.646   3.987 -0.0864  0.0857  0.5131
   57MOL   H28723919   7.403   3.059   4.037 -0.5181 -1.5936  0.5862
   57MOL   H28823920   7.332   3.003   3.890  1.1444 -2.5227 -1.1237
   57MOL   H28923921   7.505   3.188   3.848  3.0908  0.8421 -0.5769
   57MOL   H29023922   7.619   3.059   3.900 -0.2251 -1.2872  0.9476
   57MOL   H29123923   7.438   3.047   3.658 -0.2645 -1.1004  0.1843
   57MOL   H29223924   7.556   2.930   3.705  0.8685 -0.1626  0.4202
   57MOL   H29323925   7.654   3.054   3.524 -0.5112  1.1157 -1.0380
   57MOL   H29423926   7.729   3.141   3.671 -0.3745  0.5451  1.2700
   57MOL   H29523927   7.600   3.203   3.573 -0.4783 -0.6895  0.0235
   57MOL   C29623928   7.755   2.681   4.103  0.1217 -0.0957 -0.3698
   57MOL   C29723929   7.817   2.543   4.061 -0.2471 -0.3588  0.7236
   57MOL   C29823930   7.850   2.547   3.911  0.8983  0.4299 -0.0352
   57MOL   O29923931   0.104   2.577   3.859  0.2175  0.2294 -0.1032
   57MOL   O30023932   7.742   2.502   3.842 -0.1872  0.4626 -0.3040
   57MOL   C30123933   7.744   2.491   3.698 -0.1467  0.5002  0.0166
   57MOL   C30223934   7.668   2.360   3.656 -0.4091 -0.0926  0.1839
   57MOL   C30323935   7.701   2.237   3.740  0.1971  0.3805 -0.3496
   57MOL   C30423936   7.647   2.104   3.683 -0.5128 -0.1399  0.1510
   57MOL   H30523937   7.758   2.694   4.211  0.3271 -1.9833 -0.1215
   57MOL   H30623938   7.796   2.764   4.047 -0.4004  0.8979  0.6851
   57MOL   H30723939   7.749   2.462   4.089 -0.7440 -0.2245 -0.0943
   57MOL   H30823940   7.847   2.461   3.677  0.6338  1.5417  2.1054
   57MOL   H30923941   7.714   2.585   3.652 -0.7396  0.4601  0.3182
   57MOL   H31023942   7.560   2.375   3.650 -0.6258 -2.7047 -4.3634
   57MOL   H31123943   7.696   2.341   3.553  0.4336  2.4373 -0.0731
   57MOL   H31223944   7.664   2.251   3.841  1.8956 -0.0998  0.3666
   57MOL   H31323945   7.810   2.233   3.746  0.3574  0.6743 -2.6841
   57MOL   H31423946   7.659   2.028   3.760  1.9290  1.1006  1.0376
   57MOL   H31523947   7.704   2.066   3.598 -1.4863  1.7885 -1.3998
   57MOL   H31623948   7.542   2.123   3.661 -0.1450  4.3283  1.7251
   57MOL   C31723949   0.088   2.524   4.148  0.0298  0.0718  0.1356
   57MOL   C31823950   0.160   2.387   4.131 -0.5811  0.1326 -0.0534
   57MOL   C31923951   0.266   2.378   4.243  0.0013 -0.0739 -0.2309
   57MOL   O32023952   0.260   2.441   4.350  0.6380 -0.1924  0.0266
   57MOL   O32123953   0.365   2.290   4.208 -0.1362  0.2584  0.2910
   57MOL   C32223954   0.467   2.263   4.303 -0.4699 -0.0193 -0.0625
   57MOL   C32323955   0.592   2.352   4.279  0.5300 -0.2977  0.4540
   57MOL   C32423956   0.697   2.323   4.383  0.2685 -0.3262 -0.4759
   57MOL   C32523957   0.665   2.378   4.523 -1.0343  0.3383  0.6191
   57MOL   H32623958   0.067   2.544   4.254 -1.5955 -0.6587 -0.0257
   57MOL   H32723959   0.166   2.597   4.128  0.6139 -0.6929 -0.4355
   57MOL   H32823960   0.214   2.379   4.037 -0.5542 -0.2974 -0.0028
   57MOL   H32923961   0.503   2.161   4.302 -1.0257 -0.2394  1.2489
   57MOL   H33023962   0.427   2.279   4.404  1.7446 -0.9087  0.9846
   57MOL   H33123963   0.636   2.328   4.182  0.2452  0.7067  0.0671
   57MOL   H33223964   0.564   2.457   4.278 -0.3421 -0.5242  0.6884
   57MOL   H33323965   0.794   2.358   4.346  0.5227  2.8063  2.8754
   57MOL   H33423966   0.711   2.217   4.403 -0.4134 -0.5722 -1.2696
   57MOL   H33523967   0.579   2.324   4.562  0.1793 -1.0461  1.4324
   57MOL   H33623968   0.636   2.482   4.533 -1.6771  0.3358 -1.0109
   57MOL   H33723969   0.751   2.352   4.584 -0.3552 -0.8204 -0.8097
   57MOL   C33823970   0.063   2.262   4.143 -0.0362 -0.5855  0.0525
   57MOL   C33923971   0.124   2.119   4.123  0.1076 -0.0967 -0.2439
   57MOL   C34023972   0.037   2.012   4.177  0.1149 -0.2185 -0.0258
   57MOL   O34123973   0.070   1.955   4.286 -0.2640 -0.1453 -0.5714
   57MOL   O34223974   7.783   1.987   4.090 -0.1555  0.4025  0.4509
   57MOL   C34323975   7.692   1.893   4.125  0.5043  0.5089 -0.5974
   57MOL   C34423976   7.555   1.907   4.050  0.3961  0.0225 -0.3036
   57MOL   C34523977   7.440   1.821   4.105  0.6451  0.0222  0.5036
   57MOL   C34623978   7.398   1.842   4.252  0.1809  0.0088  0.3896
   57MOL   H34723979   7.831   2.268   4.074  0.7611  0.7978 -0.8259
   57MOL   H34823980   0.029   2.257   4.247  0.0467 -2.0120  0.0210
   57MOL   H34923981   0.217   2.102   4.177  0.9942  1.7801 -1.1463
   57MOL   H35023982   7.674   1.897   4.232  0.5245 -0.6598 -0.5497
   57MOL   H35123983   7.728   1.795   4.095 -2.1311 -0.3627 -1.0758
   57MOL   H35223984   7.527   2.012   4.052  1.4860  0.3354 -0.9062
   57MOL   H35323985   7.573   1.885   3.945  1.6582  0.7140 -0.2454
   57MOL   H35423986   7.460   1.714   4.101  0.0531 -0.1802  2.5735
   57MOL   H35523987   7.350   1.837   4.045 -0.8551 -1.7028  2.2100
   57MOL   H35623988   7.392   1.948   4.277 -0.2032 -0.3025  1.6569
   57MOL   H35723989   7.473   1.795   4.316  1.4691  1.9883  0.3754
   57MOL   H35823990   7.301   1.794   4.263 -0.3488  0.6544 -1.4348
   57MOL   C35923991   0.174   2.094   3.978  0.0999  0.7936 -0.1487
   57MOL   C36023992   0.260   1.968   3.948 -0.3005  0.1652 -0.8437
   57MOL   C36123993   0.320   1.970   3.803 -0.1664 -0.1223 -0.3724
   57MOL   O36223994   0.425   2.026   3.780  0.2716 -0.6406 -0.0279
   57MOL   O36323995   0.247   1.892   3.716  0.1780 -0.0662 -0.8683
   57MOL   C36423996   0.291   1.870   3.590  0.4013 -1.1356  0.4196
   57MOL   C36523997   0.192   1.781   3.524  0.6038  0.2288  0.4658
   57MOL   C36623998   0.186   1.648   3.600  0.5041  0.3917  0.5470
   57MOL   C36723999   0.100   1.541   3.546  0.5709 -0.0775 -0.3599
   57MOL   H36824000   0.236   2.179   3.951  0.6884  0.4074 -0.0077
   57MOL   H36924001   0.089   2.102   3.910  0.3809 -1.8922 -0.8916
   57MOL   H37024002   0.189   1.886   3.955 -2.3943  2.0780  1.8096
   57MOL   H37124003   0.391   1.828   3.600  1.6880  2.0958  1.6574
   57MOL   H37224004   0.284   1.963   3.534 -3.0813 -1.8564 -0.4620
   57MOL   H37324005   0.093   1.825   3.517  0.7988  0.3912 -1.4189
   57MOL   H37424006   0.226   1.763   3.422 -0.1267  2.5811 -0.2216
   57MOL   H37524007   0.138   1.668   3.696  0.4087  2.2457  0.1301
   57MOL   H37624008   0.286   1.613   3.624  0.1352 -0.9542  0.1529
   57MOL   H37724009   0.116   1.451   3.605  0.4887  0.1032 -0.0586
   57MOL   H37824010   0.124   1.514   3.443 -1.1252  0.5790 -0.9349
   57MOL   H37924011   7.847   1.562   3.544  0.4569 -0.0807  2.7329
   57MOL   C38024012   0.384   1.952   4.047  0.6442 -0.1550  0.0769
   57MOL   C38124013   0.459   1.823   4.038 -0.2233 -0.0498 -0.5807
   57MOL   C38224014   0.600   1.838   4.102  0.5126 -0.0486  0.1836
   57MOL   O38324015   0.699   1.810   4.036 -0.1715  0.4444  0.3800
   57MOL   O38424016   0.593   1.879   4.229  0.4095 -0.1068  0.3418
   57MOL   C38524017   0.717   1.882   4.297  0.4481 -0.2398  0.6168
   57MOL   C38624018   0.732   1.757   4.391 -0.0732 -0.0583 -0.0691
   57MOL   C38724019   0.862   1.755   4.478 -0.1014 -0.5345 -0.0395
   57MOL   C38824020   0.851   1.620   4.557 -0.6180 -0.5933  0.5954
   57MOL   H38924021   0.345   1.940   4.148  1.9225  0.2458  0.6197
   57MOL   H39024022   0.447   2.041   4.049 -0.7754  0.8421  1.3932
   57MOL   H39124023   0.490   1.805   3.935 -0.6321  0.7813 -0.8481
   57MOL   H39224024   0.718   1.972   4.358  1.3958  0.4357 -0.4052
   57MOL   H39324025   0.799   1.908   4.231 -1.6756 -2.4805 -3.0696
   57MOL   H39424026   0.646   1.758   4.457 -1.6961  2.5317 -2.1037
   57MOL   H39524027   0.731   1.667   4.330 -1.5038 -0.6126  0.7748
   57MOL   H39624028   0.855   1.847   4.535  3.0088  0.4899 -1.2139
   57MOL   H39724029   0.958   1.764   4.427  0.7852  1.0662  1.8621
   57MOL   H39824030   0.749   1.591   4.581 -1.2007  1.1524  0.2773
   57MOL   H39924031   0.906   1.632   4.651 -2.5349  1.1253  1.5393
   57MOL   H40024032   0.878   1.541   4.487 -0.0503 -0.1526  0.3148
   57MOL   C40124033   0.379   1.696   4.089 -0.4419  0.1037  0.3093
   57MOL   C40224034   0.434   1.565   4.028 -0.3963  0.1110  0.0135
   57MOL   C40324035   0.329   1.457   4.009  0.2756 -0.0872 -0.3704
   57MOL   O40424036   0.281   1.437   3.898 -0.6619  0.4447  0.0940
   57MOL   O40524037   0.311   1.385   4.114 -0.2761 -0.0551  0.2144
   57MOL   C40624038   0.225   1.270   4.104  0.2096 -0.0197 -0.2300
   57MOL   C40724039   0.298   1.163   4.173  0.5371 -0.4317 -0.1946
   57MOL   C40824040   0.414   1.105   4.089 -0.2615 -0.1338 -0.0903
   57MOL   C40924041   0.476   0.979   4.149  0.9729  0.4594  0.1763
   57MOL   H41024042   0.276   1.702   4.055 -0.9242 -1.6469  1.3611
   57MOL   H41124043   0.379   1.692   4.198  0.3814  2.0125  0.3931
   57MOL   H41224044   0.510   1.515   4.088  0.4788  1.8623  0.3885
   57MOL   H41324045   0.198   1.234   4.005  1.5321  0.7112 -0.8760
   57MOL   H41424046   0.132   1.295   4.156  1.3222  1.2779  1.2080
   57MOL   H41524047   0.324   1.190   4.276  0.3310 -0.0664 -0.2365
   57MOL   H41624048   0.220   1.087   4.171 -0.3025  0.4400 -1.2790
   57MOL   H41724049   0.503   1.167   4.077 -0.6572  0.1380 -1.7826
   57MOL   H41824050   0.371   1.087   3.990  0.4474 -0.0752 -0.4148
   57MOL   H41924051   0.405   0.896   4.143 -1.2831  2.3818 -0.6165
   57MOL   H42024052   0.501   0.990   4.255 -0.8580  1.8940  0.4850
   57MOL   H42124053   0.564   0.948   4.093  2.4751  2.1079  1.5407
   57MOL   H42224054   0.478   1.593   3.932 -0.0231  0.2778  0.2339
   58MOL     C124055   1.426   1.746   0.756  0.5081 -0.6302 -0.3472
   58MOL     C224056   1.328   1.858   0.818 -0.3917 -0.9982 -0.5099
   58MOL     C324057   1.185   1.814   0.795 -0.2828  0.0162 -0.4438
   58MOL     O424058   1.124   1.748   0.885 -0.2297 -0.1199  0.1429
   58MOL     O524059   1.144   1.850   0.673 -0.1229 -0.1866 -0.0518
   58MOL     C624060   1.010   1.831   0.650  0.1051  0.2901  0.3105
   58MOL     C724061   0.979   1.912   0.519  0.3493  0.0965  0.1442
   58MOL     C824062   0.839   1.873   0.470  0.0006  0.3350  0.1328
   58MOL     C924063   0.776   1.954   0.367  0.4808  0.2380  0.0408
   58MOL    H1024064   1.398   1.706   0.659  2.1364 -0.7446 -0.7803
   58MOL    H1124065   1.523   1.791   0.736  0.4901 -0.1289  0.6443
   58MOL    H1224066   1.342   1.947   0.757  4.3992 -0.2391  1.4478
   58MOL    H1324067   0.960   1.876   0.736 -0.6607 -0.0964  0.0741
   58MOL    H1424068   0.979   1.728   0.632 -0.2070  0.6756 -1.4985
   58MOL    H1524069   0.987   2.020   0.536  2.2335  0.0115 -0.0790
   58MOL    H1624070   1.055   1.889   0.445  1.4198 -0.9492  1.5284
   58MOL    H1724071   0.763   1.861   0.547 -1.0205  2.4359 -0.5315
   58MOL    H1824072   0.845   1.776   0.420 -3.8180 -0.0907  0.3458
   58MOL    H1924073   0.822   1.942   0.269  2.5155  1.6629  0.7976
   58MOL    H2024074   0.781   2.061   0.385  0.2144  0.0637  1.1836
   58MOL    H2124075   0.672   1.921   0.362  1.0121 -1.4754 -0.3007
   58MOL    H2224076   1.433   1.664   0.827 -0.3652 -0.4020  0.0151
   58MOL    C2324077   1.367   1.886   0.964  0.3523  0.8124 -0.2819
   58MOL    C2424078   1.489   1.975   0.980 -0.4540  0.3575  0.2378
   58MOL    C2524079   1.455   2.118   0.933 -0.4532  0.7415 -0.0056
   58MOL    O2624080   1.363   2.180   0.990 -0.0731 -0.0677 -0.3012
   58MOL    O2724081   1.542   2.160   0.838 -0.6583 -0.4747 -0.1930
   58MOL    C2824082   1.517   2.285   0.779 -0.1037 -0.1702 -0.0245
   58MOL    C2924083   1.596   2.406   0.833  0.0757  0.3261 -0.1129
   58MOL    C3024084   1.739   2.408   0.780  0.9202  0.4796 -0.2120
   58MOL    C3124085   1.823   2.522   0.827  0.1544  0.1302  0.0843
   58MOL    H3224086   1.383   1.783   0.995 -2.0299  0.4909 -0.0206
   58MOL    H3324087   1.289   1.931   1.025  0.4401  0.0903  0.3725
   58MOL    H3424088   1.568   1.933   0.919  0.0409 -2.5488  2.7095
   58MOL    H3524089   1.413   2.309   0.801 -0.4037 -1.3269 -0.1106
   58MOL    H3624090   1.534   2.271   0.673  0.0325 -1.6868  0.1753
   58MOL    H3724091   1.539   2.490   0.795  0.5670  0.8198  0.2357
   58MOL    H3824092   1.589   2.416   0.941  0.1100 -0.5439 -0.0275
   58MOL    H3924093   1.743   2.409   0.672 -0.3718  0.6329 -0.2652
   58MOL    H4024094   1.783   2.310   0.800  0.1829 -0.2487 -2.1257
   58MOL    H4124095   1.800   2.544   0.931 -1.9636 -1.9808  0.0922
   58MOL    H4224096   1.803   2.616   0.775 -0.2105  0.1870  0.3242
   58MOL    H4324097   1.930   2.500   0.819 -0.6204 -3.4335 -1.3621
   58MOL    C4424098   1.535   1.969   1.133  0.4738  0.0705  0.2717
   58MOL    C4524099   1.679   2.007   1.165  0.1425 -1.2195 -0.4942
   58MOL    C4624100   1.702   2.159   1.165  0.1403  0.4370 -0.6499
   58MOL    O4724101   1.609   2.243   1.197  0.2243  0.0776  0.3607
   58MOL    O4824102   1.832   2.191   1.142 -0.1116  0.4666  0.4229
   58MOL    C4924103   1.886   2.325   1.136 -0.3924 -0.2539 -0.7219
   58MOL    C5024104   1.956   2.356   1.278 -0.2465 -0.4661  0.1060
   58MOL    C5124105   2.071   2.248   1.287 -0.1786 -0.3035  0.0357
   58MOL    C5224106   2.188   2.288   1.372  0.9152 -0.2611  0.6516
   58MOL    H5324107   1.520   1.869   1.174  2.5081  0.0103  0.9428
   58MOL    H5424108   1.464   2.025   1.194  2.4555  0.8003  1.9455
   58MOL    H5524109   1.744   1.964   1.089 -0.8609 -1.4558 -1.2328
   58MOL    H5624110   1.808   2.399   1.119  0.3416  0.8579  0.6480
   58MOL    H5724111   1.959   2.336   1.055 -0.1526 -2.2015 -0.7928
   58MOL    H5824112   1.995   2.456   1.264  1.6379 -1.2174 -0.1744
   58MOL    H5924113   1.890   2.347   1.365 -1.3325 -0.1274 -0.6738
   58MOL    H6024114   2.111   2.212   1.192 -1.9618  0.8945 -1.2015
   58MOL    H6124115   2.032   2.156   1.330  0.5042 -0.9294 -0.6531
   58MOL    H6224116   2.239   2.384   1.359  0.4690 -0.0806  0.1994
   58MOL    H6324117   2.267   2.215   1.361 -0.2465 -1.3809 -0.4467
   58MOL    H6424118   2.156   2.295   1.476  2.1391 -0.5317  1.0461
   58MOL    C6524119   1.727   1.948   1.296  0.6115  0.5546  0.8115
   58MOL    C6624120   1.790   1.807   1.291  0.6224  0.3144 -0.2569
   58MOL    C6724121   1.909   1.823   1.189  0.4274 -0.1797 -0.4442
   58MOL    O6824122   1.904   1.763   1.082  0.3063 -0.0249 -0.1622
   58MOL    O6924123   2.011   1.896   1.226  0.1476  0.2329  0.3160
   58MOL    C7024124   2.121   1.918   1.135  0.2113 -0.3232  0.3806
   58MOL    C7124125   2.258   1.924   1.210 -0.1499  0.4064  0.3239
   58MOL    C7224126   2.375   1.988   1.130  0.3981  0.5054  0.0701
   58MOL    C7324127   2.392   1.943   0.986 -0.5032  0.0851 -0.4568
   58MOL    H7424128   1.641   1.942   1.363 -1.4101  0.9671 -1.6897
   58MOL    H7524129   1.802   2.020   1.329  1.8890  0.1191 -1.0313
   58MOL    H7624130   1.725   1.726   1.259 -0.0083  0.8170 -0.2522
   58MOL    H7724131   2.102   1.999   1.064  1.1056 -1.2410 -0.9385
   58MOL    H7824132   2.125   1.836   1.063  0.8231  1.4856 -1.7172
   58MOL    H7924133   2.251   1.987   1.299  1.1595 -0.5489  1.1085
   58MOL    H8024134   2.294   1.826   1.242 -0.5285  0.2267  0.2110
   58MOL    H8124135   2.465   1.970   1.189  1.0709  0.1515 -1.0514
   58MOL    H8224136   2.356   2.095   1.139 -1.0911  0.4056 -1.6367
   58MOL    H8324137   2.441   2.003   0.909  1.1069  1.3301  1.4916
   58MOL    H8424138   2.296   1.922   0.939 -1.0120  1.6310 -0.1233
   58MOL    H8524139   2.451   1.851   0.978 -0.7376 -0.6975  5.1744
   58MOL    C8624140   1.834   1.747   1.427 -0.3282 -0.2381 -0.3976
   58MOL    C8724141   1.887   1.603   1.449  1.0837 -0.4049  0.1725
   58MOL    C8824142   2.028   1.574   1.391 -0.0215  0.4457  0.1443
   58MOL    O8924143   2.122   1.653   1.406 -0.0851 -0.2389 -0.1922
   58MOL    O9024144   2.032   1.463   1.314 -0.3815 -0.1107 -0.5009
   58MOL    C9124145   2.153   1.431   1.242 -0.5797  0.0203 -0.5656
   58MOL    C9224146   2.127   1.494   1.112  0.0941 -0.6763 -0.0434
   58MOL    C9324147   2.251   1.475   1.019  0.4750  0.7288  0.2762
   58MOL    C9424148   2.251   1.537   0.882 -0.8060 -0.1373 -0.4068
   58MOL    H9524149   1.736   1.739   1.475  0.5067  0.5238  1.4886
   58MOL    H9624150   1.871   1.823   1.495 -0.9713  0.4556 -0.8196
   58MOL    H9724151   1.822   1.539   1.390 -0.3187  1.4367 -0.3357
   58MOL    H9824152   2.159   1.326   1.213 -1.1513  0.2811 -1.6507
   58MOL    H9924153   2.240   1.464   1.297 -0.5380  0.1390 -0.7043
   58MOL   H10024154   2.042   1.459   1.053 -0.7476 -1.9103  1.8714
   58MOL   H10124155   2.112   1.600   1.127 -3.2549 -1.3375  1.8311
   58MOL   H10224156   2.262   1.367   1.011  1.3343  0.8714 -0.5821
   58MOL   H10324157   2.340   1.505   1.074 -0.7405  1.9637  1.6173
   58MOL   H10424158   2.336   1.509   0.820 -0.7122 -1.5084  0.3194
   58MOL   H10524159   2.253   1.645   0.887  1.7245 -0.0978 -1.6662
   58MOL   H10624160   2.158   1.504   0.834 -0.2238 -1.3157 -0.7408
   58MOL   C10724161   1.883   1.552   1.598  1.0072  0.1379 -0.8672
   58MOL   C10824162   1.765   1.462   1.641  0.3665  0.9905 -0.2656
   58MOL   C10924163   1.746   1.340   1.554  0.1709  0.7396  0.5931
   58MOL   O11024164   1.636   1.319   1.515 -0.1647 -0.0750  0.1297
   58MOL   O11124165   1.854   1.254   1.536 -0.3683 -0.1308 -0.2744
   58MOL   C11224166   1.838   1.122   1.488 -0.2142 -0.1073  0.1607
   58MOL   C11324167   1.981   1.085   1.443 -0.2339 -0.6253 -0.1805
   58MOL   C11424168   1.984   0.944   1.386 -0.4269 -0.0206 -1.0517
   58MOL   C11524169   2.123   0.883   1.374  0.3272  0.0529  0.2660
   58MOL   H11624170   1.876   1.643   1.657  0.3841 -0.7087  0.3725
   58MOL   H11724171   1.969   1.490   1.621  1.1937  0.8140  0.2864
   58MOL   H11824172   1.680   1.529   1.633 -0.2650  0.4648  1.6482
   58MOL   H11924173   1.782   1.131   1.395  1.2206 -0.2424 -0.7397
   58MOL   H12024174   1.784   1.061   1.561  0.8872 -2.3882 -0.8929
   58MOL   H12124175   2.009   1.146   1.358  1.2990 -0.8178  0.1798
   58MOL   H12224176   2.044   1.094   1.532  2.5674 -0.6886 -2.1050
   58MOL   H12324177   1.930   0.934   1.292 -1.6582  3.1420 -0.7142
   58MOL   H12424178   1.918   0.895   1.458  0.2490  2.1078  1.0918
   58MOL   H12524179   2.109   0.787   1.323 -0.8594  0.6202 -0.5243
   58MOL   H12624180   2.171   0.872   1.471  2.5063 -3.1566 -1.0593
   58MOL   H12724181   2.192   0.942   1.313  2.3508  0.6904  3.0746
   58MOL   C12824182   1.775   1.430   1.793 -0.5217  0.1826 -0.5027
   58MOL   C12924183   1.657   1.355   1.856  0.7623  0.0494 -1.1431
   58MOL   C13024184   1.672   1.205   1.863 -0.2933  0.0135 -0.0761
   58MOL   O13124185   1.787   1.155   1.870  0.3261 -0.2596  0.1659
   58MOL   O13224186   1.560   1.140   1.871  0.2797  0.1630  0.0639
   58MOL   C13324187   1.563   0.999   1.874 -0.4022 -1.5090 -0.7444
   58MOL   C13424188   1.456   0.959   1.776  0.0715  0.2598  0.0359
   58MOL   C13524189   1.322   0.986   1.838  0.2156  0.1270  0.0036
   58MOL   C13624190   1.210   0.917   1.755  0.4640 -0.2339  0.1303
   58MOL   H13724191   1.809   1.517   1.849 -2.8358  0.3406  0.7100
   58MOL   H13824192   1.867   1.372   1.796 -0.5551  0.1710  0.6433
   58MOL   H13924193   1.570   1.368   1.791 -0.3439  2.4834  0.7522
   58MOL   H14024194   1.545   0.971   1.978 -2.0758  1.0944 -0.2724
   58MOL   H14124195   1.660   0.954   1.853  1.0260  1.7663 -1.5929
   58MOL   H14224196   1.463   1.025   1.689  1.7736 -0.2613 -0.2577
   58MOL   H14324197   1.461   0.855   1.743  1.3523  0.6180 -0.9564
   58MOL   H14424198   1.305   1.092   1.859 -0.9704 -0.3778  1.7435
   58MOL   H14524199   1.302   0.935   1.932  0.0728 -1.5472 -0.9185
   58MOL   H14624200   1.192   0.980   1.668 -0.7601 -0.7995 -0.0425
   58MOL   H14724201   1.116   0.911   1.810  1.1520  2.5326  1.7047
   58MOL   H14824202   1.224   0.814   1.723 -0.5466 -0.6271  0.9211
   58MOL   C14924203   1.621   1.409   1.997 -0.5961  0.5114 -0.4969
   58MOL   C15024204   1.485   1.381   2.061  0.5925 -0.5329  0.2068
   58MOL   C15124205   1.474   1.436   2.202  0.2388  0.2579 -0.1297
   58MOL   O15224206   1.563   1.496   2.255 -0.3202  0.3598 -0.1199
   58MOL   O15324207   1.354   1.402   2.259 -0.0159  0.0441  0.6668
   58MOL   C15424208   1.297   1.476   2.365  0.2062 -0.0188  0.0982
   58MOL   C15524209   1.168   1.545   2.303 -0.1250 -0.0899 -0.1185
   58MOL   C15624210   1.102   1.635   2.410  0.0120  0.0397 -0.4296
   58MOL   C15724211   1.057   1.571   2.545 -0.1538 -0.0129  0.1620
   58MOL   H15824212   1.622   1.518   2.004 -0.0001  0.4815 -0.1400
   58MOL   H15924213   1.703   1.370   2.056 -0.1114 -0.4558 -1.7825
   58MOL   H16024214   1.476   1.272   2.060  0.2684 -0.5097  0.3210
   58MOL   H16124215   1.370   1.545   2.407  0.7739 -0.9556  0.6438
   58MOL   H16224216   1.268   1.412   2.448 -1.2171 -2.4541 -2.1984
   58MOL   H16324217   1.198   1.603   2.215  3.2193  1.5180  1.9898
   58MOL   H16424218   1.093   1.471   2.276 -1.4752  1.3472 -0.3819
   58MOL   H16524219   1.006   1.661   2.365 -2.1711 -2.1869  2.6864
   58MOL   H16624220   1.165   1.724   2.416 -0.6447  0.6908 -2.7529
   58MOL   H16724221   0.995   1.483   2.535 -0.7904  0.4339  0.1794
   58MOL   H16824222   1.019   1.650   2.609  0.7965 -0.1784  0.9542
   58MOL   H16924223   1.152   1.549   2.595 -1.7766  1.8297  4.2338
   58MOL   C17024224   1.357   1.417   1.979  0.1022 -0.4080 -0.7106
   58MOL   C17124225   1.339   1.564   1.957  0.2170 -0.0063 -0.0452
   58MOL   C17224226   1.421   1.613   1.837 -0.4149 -0.4858 -0.2486
   58MOL   O17324227   1.412   1.554   1.728 -0.1638 -0.0689  0.1866
   58MOL   O17424228   1.496   1.723   1.870  0.2115  0.6289  0.1167
   58MOL   C17524229   1.594   1.770   1.780  0.5955  0.2464  0.1552
   58MOL   C17624230   1.597   1.923   1.794  0.3313 -0.3114 -0.2045
   58MOL   C17724231   1.711   1.999   1.725  0.4336 -0.1056 -0.0005
   58MOL   C17824232   1.687   2.145   1.704  0.0694  0.1101  0.1098
   58MOL   H17924233   1.269   1.377   2.030 -0.2988  0.7928 -0.4337
   58MOL   H18024234   1.356   1.350   1.893 -0.2839 -1.7782  0.3331
   58MOL   H18124235   1.372   1.633   2.034  0.2233  0.5574 -0.5475
   58MOL   H18224236   1.578   1.739   1.676  0.9464  0.2018  0.1145
   58MOL   H18324237   1.690   1.725   1.808  0.4919  0.1828  0.4115
   58MOL   H18424238   1.507   1.964   1.747 -0.0729 -1.3132 -0.3190
   58MOL   H18524239   1.585   1.939   1.901 -1.4611 -0.4987 -0.3551
   58MOL   H18624240   1.712   1.946   1.629 -0.1898  2.9330 -1.7538
   58MOL   H18724241   1.806   1.988   1.777  0.1330  2.4469  1.1114
   58MOL   H18824242   1.766   2.183   1.640  0.7192 -0.5598  0.5031
   58MOL   H18924243   1.691   2.204   1.795 -1.2760  1.8003 -0.8931
   58MOL   H19024244   1.594   2.163   1.650 -0.8007  1.4911  2.0226
   58MOL   C19124245   1.185   1.586   1.931  0.1353  1.0707  0.4491
   58MOL   C19224246   1.120   1.729   1.905 -0.0435 -0.0078  0.5493
   58MOL   C19324247   1.149   1.829   2.014  0.1582  0.0706 -0.0726
   58MOL   O19424248   1.068   1.865   2.101 -0.2164  0.1113 -0.5157
   58MOL   O19524249   1.270   1.879   1.999 -0.1928  0.3324  0.2668
   58MOL   C19624250   1.326   1.969   2.095  0.3898  0.5242  0.2849
   58MOL   C19724251   1.388   1.891   2.215  0.6186 -0.8155  0.1027
   58MOL   C19824252   1.457   1.970   2.331  0.0682  0.0858  0.9525
   58MOL   C19924253   1.490   1.882   2.451 -0.6810  0.4173  0.4198
   58MOL   H20024254   1.130   1.547   2.016 -2.2253 -3.3346 -2.9088
   58MOL   H20124255   1.152   1.523   1.849 -0.4991  1.5157  0.3574
   58MOL   H20224256   1.014   1.713   1.920  0.0750 -0.3367  1.0505
   58MOL   H20324257   1.249   2.043   2.118 -1.1160 -0.6285 -0.9720
   58MOL   H20424258   1.405   2.027   2.048  0.8710 -0.6690 -0.3824
   58MOL   H20524259   1.312   1.839   2.273 -0.8049  0.9071 -0.1772
   58MOL   H20624260   1.456   1.823   2.162  0.8391 -1.3999  1.1142
   58MOL   H20724261   1.395   2.048   2.376 -0.1362  1.1554 -1.1421
   58MOL   H20824262   1.550   2.016   2.299 -0.2256 -0.7771 -1.2515
   58MOL   H20924263   1.546   1.932   2.529 -1.0100 -0.3126  1.1297
   58MOL   H21024264   1.547   1.796   2.414 -1.1313  0.9190 -1.5086
   58MOL   H21124265   1.406   1.832   2.499  0.5661 -0.0573  2.1555
   58MOL   C21224266   1.152   1.776   1.760  0.9623  0.5534  0.1538
   58MOL   C21324267   1.042   1.872   1.692 -0.4622 -0.2071 -0.2899
   58MOL   C21424268   1.080   2.016   1.698  0.0485 -0.4769  0.2581
   58MOL   O21524269   1.193   2.043   1.667  0.3912 -0.1828 -0.0595
   58MOL   O21624270   0.981   2.102   1.730  0.0017  0.9880 -0.5539
   58MOL   C21724271   1.023   2.239   1.741  0.0490 -0.6453 -0.5568
   58MOL   C21824272   0.926   2.309   1.830 -0.1304  0.6559 -0.0191
   58MOL   C21924273   0.903   2.246   1.973  0.2091  0.3975 -0.5275
   58MOL   C22024274   0.798   2.333   2.048  0.2390  0.5469  0.7593
   58MOL   H22124275   1.153   1.687   1.697  0.7842 -0.4217  1.5038
   58MOL   H22224276   1.253   1.814   1.756  1.0103  0.3384 -0.6127
   58MOL   H22324277   0.947   1.869   1.747 -0.9225 -0.7407 -1.1131
   58MOL   H22424278   1.036   2.294   1.648  1.9856 -0.8710 -0.4339
   58MOL   H22524279   1.123   2.255   1.782 -0.3403  0.4212 -0.0094
   58MOL   H22624280   0.972   2.407   1.843 -0.5219  0.7376  0.7353
   58MOL   H22724281   0.838   2.316   1.767  0.0648 -0.6924 -0.4568
   58MOL   H22824282   1.003   2.244   2.017 -0.2172 -0.6902  0.4023
   58MOL   H22924283   0.865   2.147   1.949  1.5759  0.3772 -2.7440
   58MOL   H23024284   0.824   2.438   2.044 -2.2741  1.2088  0.9545
   58MOL   H23124285   0.791   2.303   2.152  0.6209 -0.6043  0.4602
   58MOL   H23224286   0.700   2.326   2.000  0.1857 -0.8636  1.0584
   58MOL   C23324287   0.992   1.832   1.549 -0.7095  0.0348 -1.0209
   58MOL   C23424288   1.094   1.881   1.433  0.0218  0.1083  0.2012
   58MOL   C23524289   1.216   1.794   1.436  0.4237  0.3347  0.1960
   58MOL   O23624290   1.321   1.832   1.481  0.4930 -0.6439 -0.0195
   58MOL   O23724291   1.195   1.666   1.395  0.1679  0.1968  0.2706
   58MOL   C23824292   1.306   1.574   1.387  0.1425  0.0057  0.0406
   58MOL   C23924293   1.283   1.471   1.269 -0.7766  0.0610 -0.6315
   58MOL   C24024294   1.275   1.530   1.129  0.4879 -0.1435 -0.8606
   58MOL   C24124295   1.236   1.427   1.020 -0.0472 -0.3950 -0.7427
   58MOL   H24224296   0.890   1.871   1.548  0.2823  2.8896  2.3801
   58MOL   H24324297   0.979   1.724   1.546  0.0284 -0.0490 -1.2009
   58MOL   H24424298   1.128   1.984   1.445  0.1822 -0.0740  1.3780
   58MOL   H24524299   1.311   1.524   1.483 -1.1437 -0.8014 -0.3091
   58MOL   H24624300   1.399   1.624   1.360  0.4606 -1.4702 -1.6527
   58MOL   H24724301   1.357   1.392   1.285 -0.5569  1.0367  3.7141
   58MOL   H24824302   1.184   1.427   1.287 -0.5554 -0.0115  0.4165
   58MOL   H24924303   1.373   1.567   1.098  0.7034 -1.7041 -2.0953
   58MOL   H25024304   1.195   1.604   1.125 -0.3443 -1.0609 -1.6167
   58MOL   H25124305   1.244   1.471   0.921 -1.9871 -2.1287 -1.7115
   58MOL   H25224306   1.135   1.387   1.031  0.8129 -3.0463 -2.0635
   58MOL   H25324307   1.303   1.341   1.018 -0.0652 -0.4017 -1.0452
   58MOL   C25424308   1.027   1.871   1.292 -1.2992 -0.5636 -0.2149
   58MOL   C25524309   0.904   1.969   1.274  0.7368  0.1565 -0.2894
   58MOL   C25624310   0.947   2.116   1.287 -0.1220 -0.0697 -0.6406
   58MOL   O25724311   0.887   2.186   1.365 -0.1420 -0.6311  0.7164
   58MOL   O25824312   1.055   2.157   1.205 -0.3540  0.6625  0.4280
   58MOL   C25924313   1.087   2.298   1.204 -0.0860  0.0229  0.2203
   58MOL   C26024314   1.166   2.349   1.326  0.0016  0.2771 -0.0367
   58MOL   C26124315   1.317   2.306   1.324 -0.0650 -0.3108 -0.8604
   58MOL   C26224316   1.399   2.360   1.437  0.1963 -0.3299 -0.9468
   58MOL   H26324317   0.991   1.769   1.284 -2.5746 -0.1978  0.7951
   58MOL   H26424318   1.095   1.877   1.206  1.3572 -1.3802  1.7728
   58MOL   H26524319   0.835   1.941   1.353  0.9995 -1.4409 -0.5927
   58MOL   H26624320   0.997   2.357   1.184 -0.4855 -1.3060 -2.1290
   58MOL   H26724321   1.149   2.315   1.115  0.7004  1.5204  1.0319
   58MOL   H26824322   1.159   2.457   1.332 -0.3378  0.3310 -1.2107
   58MOL   H26924323   1.119   2.304   1.413 -1.4333  1.6150 -0.1139
   58MOL   H27024324   1.362   2.320   1.226  1.3567 -0.5631 -0.2588
   58MOL   H27124325   1.313   2.198   1.338  0.5214 -0.3224 -0.7531
   58MOL   H27224326   1.505   2.339   1.422  1.2849  3.7022  0.4376
   58MOL   H27324327   1.364   2.317   1.531  1.2007  3.6477  1.3643
   58MOL   H27424328   1.383   2.467   1.447  0.5807 -0.5022  1.9479
   58MOL   C27524329   0.850   1.940   1.136 -0.1118 -0.1471  0.0184
   58MOL   C27624330   0.701   1.916   1.125  0.3347 -0.3379 -0.0279
   58MOL   C27724331   0.631   2.038   1.175 -0.0922 -0.0634 -0.2262
   58MOL   O27824332   0.590   2.119   1.093  0.2768  0.3183  0.4660
   58MOL   O27924333   0.612   2.042   1.305 -0.2169  0.3023 -0.0893
   58MOL   C28024334   0.522   2.139   1.361  0.2918 -0.0627 -0.5404
   58MOL   C28124335   0.495   2.131   1.513  0.4342  0.1715 -0.3234
   58MOL   C28224336   0.629   2.098   1.592  0.5546 -0.6594 -0.1955
   58MOL   C28324337   0.618   2.078   1.740  0.0618 -0.1268 -0.5185
   58MOL   H28424338   0.890   1.848   1.094 -1.1499 -0.1675 -0.9486
   58MOL   H28524339   0.881   2.011   1.059  2.0438 -0.4239  0.6127
   58MOL   H28624340   0.667   1.838   1.193 -1.7591  0.9977  0.5337
   58MOL   H28724341   0.428   2.120   1.311  0.7999 -1.1807 -1.0882
   58MOL   H28824342   0.553   2.241   1.336  1.0281 -0.0296  0.4443
   58MOL   H28924343   0.453   2.225   1.548 -1.5893 -0.3162 -1.3864
   58MOL   H29024344   0.431   2.044   1.530 -1.7660  1.7983 -0.0940
   58MOL   H29124345   0.697   2.182   1.575  1.8862 -1.4878  1.0458
   58MOL   H29224346   0.671   2.012   1.542 -0.5635 -1.3231 -0.0106
   58MOL   H29324347   0.723   2.061   1.764  0.4832 -0.3329 -2.4551
   58MOL   H29424348   0.556   1.989   1.754  0.2180  0.0554  1.5573
   58MOL   H29524349   0.585   2.165   1.796 -0.5561 -0.5110 -0.2810
   58MOL   C29624350   0.663   1.874   0.979  0.5264 -0.6107  0.4188
   58MOL   C29724351   0.510   1.860   0.941  0.1043  0.3764  0.3077
   58MOL   C29824352   0.475   1.847   0.795 -0.2976  0.1200 -0.3327
   58MOL   O29924353   0.532   1.763   0.722  0.5493  0.5259  0.1382
   58MOL   O30024354   0.377   1.928   0.752  0.0805  0.4728 -0.1896
   58MOL   C30124355   0.350   1.942   0.613  0.0374 -0.1225  0.7091
   58MOL   C30224356   0.244   2.055   0.597  0.8893  0.0520 -0.2897
   58MOL   C30324357   0.187   2.048   0.456 -0.9883  0.2996  0.0299
   58MOL   C30424358   0.112   2.177   0.412 -0.5017  0.3647 -0.9598
   58MOL   H30524359   0.715   1.781   0.956 -0.0747 -0.9326  0.3592
   58MOL   H30624360   0.693   1.957   0.915 -0.7039  1.4482  2.4308
   58MOL   H30724361   0.456   1.944   0.984  0.6316 -0.3704  2.4981
   58MOL   H30824362   0.305   1.846   0.589 -0.1485 -0.4130  2.1680
   58MOL   H30924363   0.438   1.972   0.555 -0.8593  0.4373 -0.3949
   58MOL   H31024364   0.168   2.044   0.674  0.1593  0.7579 -0.9067
   58MOL   H31124365   0.291   2.149   0.622 -0.3725  0.5976  0.0776
   58MOL   H31224366   0.120   1.963   0.459  0.6203 -0.9390  2.4744
   58MOL   H31324367   0.261   2.020   0.380  1.8720  2.1652  2.0015
   58MOL   H31424368   0.189   2.236   0.362  2.2229 -1.8524  0.4924
   58MOL   H31524369   0.069   2.231   0.496 -0.6348  0.0001 -0.7944
   58MOL   H31624370   0.021   2.158   0.355 -0.9624 -1.4176  0.3399
   58MOL   C31724371   0.455   1.732   1.011 -0.1436 -0.2143 -0.3376
   58MOL   C31824372   0.305   1.701   1.025 -0.3326 -0.0687  0.0044
   58MOL   C31924373   0.226   1.832   1.054  0.6452  0.2412  0.6872
   58MOL   O32024374   0.125   1.867   0.986 -0.0572 -0.7366  0.5154
   58MOL   O32124375   0.274   1.888   1.160  0.9898 -0.0469  0.0506
   58MOL   C32224376   0.204   2.003   1.217 -0.0002 -0.3655 -0.2678
   58MOL   C32324377   0.167   1.978   1.361  0.6697 -0.0574  0.5374
   58MOL   C32424378   0.097   2.096   1.429  0.0544  0.2195 -0.2819
   58MOL   C32524379   0.059   2.056   1.572 -0.1579  0.0644  0.2114
   58MOL   H32624380   0.488   1.717   1.113  1.0209 -0.3178 -0.7221
   58MOL   H32724381   0.510   1.655   0.956  2.0013  0.5916  0.6193
   58MOL   H32824382   0.289   1.638   1.112 -0.6674 -0.0792 -0.0672
   58MOL   H32924383   0.112   2.041   1.172 -0.4164 -0.8976  0.1235
   58MOL   H33024384   0.261   2.095   1.214  0.4517 -0.6514 -0.4068
   58MOL   H33124385   0.098   1.894   1.359  1.0840 -0.3715 -2.0296
   58MOL   H33224386   0.252   1.946   1.421 -1.4892 -0.8625  3.2347
   58MOL   H33324387   0.001   2.103   1.378 -0.0027 -2.7756 -0.6908
   58MOL   H33424388   0.131   2.199   1.422 -1.9124  0.7017 -3.8302
   58MOL   H33524389   0.007   2.136   1.624  2.6464  1.1203  1.4357
   58MOL   H33624390   0.147   2.031   1.631 -1.7191 -1.1561  2.0637
   58MOL   H33724391   7.850   1.966   1.564  1.0703 -0.6178 -2.3127
   58MOL   C33824392   0.250   1.619   0.909 -0.2233  0.1331 -0.0051
   58MOL   C33924393   0.114   1.547   0.949 -0.8016 -0.6204  0.2987
   58MOL   C34024394   0.019   1.529   0.833 -1.2469  0.3885  0.0745
   58MOL   O34124395   0.018   1.431   0.758 -0.1445  0.2468  0.2085
   58MOL   O34224396   7.793   1.632   0.816  0.1824  0.2224 -0.3041
   58MOL   C34324397   7.687   1.629   0.722 -0.2515  0.0358 -0.3566
   58MOL   C34424398   7.553   1.634   0.803 -0.1188 -0.3792 -0.5450
   58MOL   C34524399   7.431   1.681   0.724 -0.1702 -0.2916 -0.1655
   58MOL   C34624400   7.314   1.739   0.804 -0.4209 -0.3976 -0.3709
   58MOL   H34724401   0.315   1.538   0.877 -2.4934 -0.8401 -2.3486
   58MOL   H34824402   0.237   1.678   0.818  0.4550  4.7583  2.7117
   58MOL   H34924403   0.057   1.608   1.019  3.5254  1.9309  1.7692
   58MOL   H35024404   7.700   1.545   0.653  2.2333  1.1155 -1.2836
   58MOL   H35124405   7.682   1.724   0.668  1.6273  1.7776  2.4115
   58MOL   H35224406   7.519   1.538   0.842 -0.4202 -0.0989 -0.1170
   58MOL   H35324407   7.568   1.705   0.884  0.5943  0.7124 -1.6175
   58MOL   H35424408   7.387   1.601   0.663 -0.7380  1.1693 -1.7211
   58MOL   H35524409   7.457   1.760   0.654  1.2660  0.9679  1.7461
   58MOL   H35624410   7.243   1.665   0.842  0.7997 -0.6417  1.5279
   58MOL   H35724411   7.256   1.814   0.751 -1.6064 -2.9051 -2.7275
   58MOL   H35824412   7.348   1.793   0.893  1.1515 -0.8840 -0.6472
   58MOL   C35924413   0.142   1.416   1.035 -0.5166  0.1496  0.2097
   58MOL   C36024414   0.214   1.299   0.965  0.5509 -0.1498 -0.2460
   58MOL   C36124415   0.369   1.303   0.981 -0.2365 -0.1176 -0.4546
   58MOL   O36224416   0.430   1.343   1.082  0.2468 -0.1726  0.2470
   58MOL   O36324417   0.439   1.254   0.874 -0.6458  0.1786 -0.3110
   58MOL   C36424418   0.579   1.253   0.873 -0.3937 -0.5165 -0.3276
   58MOL   C36524419   0.635   1.393   0.819 -0.1662  0.2036 -0.6154
   58MOL   C36624420   0.787   1.385   0.807  0.4487 -0.0757  0.3719
   58MOL   C36724421   0.856   1.519   0.777 -0.0330  0.3352  0.6576
   58MOL   H36824422   0.049   1.382   1.080 -1.5065 -0.8258 -2.4630
   58MOL   H36924423   0.202   1.447   1.120 -0.6911 -0.6965  0.6539
   58MOL   H37024424   0.181   1.307   0.862 -1.6107 -2.5308  0.2015
   58MOL   H37124425   0.606   1.169   0.808 -0.5538 -0.1484 -0.8722
   58MOL   H37224426   0.617   1.217   0.969 -1.7797 -1.0383  0.0439
   58MOL   H37324427   0.592   1.419   0.722 -1.0162  0.8310 -0.0808
   58MOL   H37424428   0.601   1.476   0.881 -2.1260 -1.0103 -0.0265
   58MOL   H37524429   0.826   1.319   0.729  1.1902 -0.1571  0.8038
   58MOL   H37624430   0.829   1.345   0.899  2.5441  1.7261  0.2376
   58MOL   H37724431   0.957   1.510   0.736 -0.1249 -0.8821  0.6804
   58MOL   H37824432   0.855   1.594   0.856 -0.0240  1.9239 -0.8318
   58MOL   H37924433   0.801   1.561   0.693  1.6728  1.3206  0.0026
   58MOL   C38024434   0.169   1.164   1.028  0.3312 -0.4824  0.6079
   58MOL   C38124435   0.211   1.036   0.951 -0.2133 -0.5497  0.1956
   58MOL   C38224436   0.171   0.904   1.020  0.4323 -0.1330  0.1777
   58MOL   O38324437   0.254   0.818   1.030 -0.1426  0.1424  0.3310
   58MOL   O38424438   0.046   0.898   1.066  0.7177 -0.0443 -0.1417
   58MOL   C38524439   7.850   0.776   1.122 -0.6628 -0.5701 -0.3306
   58MOL   C38624440   7.825   0.782   1.273 -0.0837  0.2305 -0.5764
   58MOL   C38724441   0.086   0.856   1.345  0.2619 -0.6887 -0.4034
   58MOL   C38824442   0.087   0.838   1.497 -0.6414  0.0446 -0.4811
   58MOL   H38924443   0.060   1.158   1.038  0.0826  0.7051 -1.2994
   58MOL   H39024444   0.186   1.156   1.136 -1.3856 -0.2160  0.9126
   58MOL   H39124445   0.320   1.034   0.955 -0.2417  0.2128  1.6643
   58MOL   H39224446   0.056   0.688   1.098 -1.4202 -0.9493 -0.8317
   58MOL   H39324447   7.749   0.759   1.085 -0.6400 -0.9845 -0.2034
   58MOL   H39424448   7.736   0.840   1.296 -0.3830 -0.4550 -0.0086
   58MOL   H39524449   7.814   0.681   1.312  0.1030  0.8170  1.0056
   58MOL   H39624450   0.088   0.962   1.320 -0.5005 -0.5729  0.0182
   58MOL   H39724451   0.180   0.835   1.294 -0.1116 -1.1816 -0.8889
   58MOL   H39824452   7.847   0.867   1.546  1.5984  0.9586  3.4984
   58MOL   H39924453   0.158   0.909   1.538 -0.1916  0.2001 -1.5141
   58MOL   H40024454   0.117   0.736   1.524 -0.2762 -0.0027 -1.0508
   58MOL   C40124455   0.168   1.038   0.800 -0.1750 -0.6656  0.6957
   58MOL   C40224456   0.015   1.042   0.785 -0.0776 -0.0409 -0.1993
   58MOL   C40324457   7.810   1.002   0.651  0.4838  0.8050 -0.1180
   58MOL   O40424458   7.798   0.887   0.624 -0.2210  0.1744 -0.1841
   58MOL   O40524459   7.790   1.108   0.571 -0.2279  0.3233 -0.1228
   58MOL   C40624460   7.761   1.075   0.433  0.5016  0.0084  0.1011
   58MOL   C40724461   0.040   1.074   0.344 -0.1236 -0.1464 -0.7363
   58MOL   C40824462   0.131   1.196   0.343 -0.2561  0.7192  0.5877
   58MOL   C40924463   0.261   1.176   0.263 -0.2653  0.2363  0.1253
   58MOL   H41024464   0.215   0.952   0.752  3.4211  0.6626  1.6913
   58MOL   H41124465   0.218   1.127   0.761  0.6837 -1.0490  0.9256
   58MOL   H41224466   7.835   1.144   0.803  0.6713  0.1575  0.0667
   58MOL   H41324467   7.700   1.161   0.409 -0.4687 -1.2300 -2.0063
   58MOL   H41424468   7.701   0.985   0.420  0.0554  0.2270  0.6237
   58MOL   H41524469   0.105   0.989   0.366  0.4815  0.6139  0.4416
   58MOL   H41624470   0.009   1.065   0.240  2.1529  0.9564 -1.5312
   58MOL   H41724471   0.157   1.215   0.447  1.9148 -1.9005  0.5639
   58MOL   H41824472   0.079   1.282   0.300 -0.8001 -0.4130 -1.0584
   58MOL   H41924473   0.242   1.138   0.162 -1.5556  3.0633 -0.7576
   58MOL   H42024474   0.333   1.110   0.311 -0.3316 -0.2159 -0.3897
   58MOL   H42124475   0.302   1.276   0.252  1.4802 -0.4469  0.1740
   58MOL   H42224476   7.810   0.970   0.842  1.9853 -0.8515  0.9379
   59MOL     C124477   1.971   4.505   1.433 -0.3710 -0.4667  0.5381
   59MOL     C224478   1.835   4.554   1.391  0.0133 -0.3387 -0.4329
   59MOL     C324479   1.727   4.519   1.490  0.2141 -0.0020  0.3992
   59MOL     O424480   1.647   4.432   1.465 -0.9436 -0.5922 -1.1937
   59MOL     O524481   1.743   4.579   1.610 -0.3852 -0.0309 -1.0507
   59MOL     C624482   1.643   4.551   1.705 -0.0028  0.2619 -0.3863
   59MOL     C724483   1.585   4.679   1.763 -0.2735 -0.2841 -0.2068
   59MOL     C824484   1.680   4.746   1.864 -0.2898  0.1362 -0.4491
   59MOL     C924485   1.606   4.864   1.936  0.3343  0.1182  0.3103
   59MOL    H1024486   2.042   4.527   1.354 -1.6491  0.2577 -0.4176
   59MOL    H1124487   2.004   4.563   1.520  0.6543  0.7297 -0.6355
   59MOL    H1224488   1.808   4.530   1.288 -0.5038 -0.5105 -0.2589
   59MOL    H1324489   1.681   4.481   1.780  1.3048  0.3695 -0.9419
   59MOL    H1424490   1.561   4.491   1.664  0.5464  0.5566 -1.9424
   59MOL    H1524491   1.563   4.753   1.686 -0.2654 -1.0435 -0.9410
   59MOL    H1624492   1.491   4.667   1.817 -0.0232  2.0014  0.8135
   59MOL    H1724493   1.759   4.787   1.802 -1.3636 -1.3784 -2.9137
   59MOL    H1824494   1.715   4.672   1.937  0.7823 -0.1333 -1.2258
   59MOL    H1924495   1.518   4.841   1.997  0.6839 -0.1967  0.6908
   59MOL    H2024496   1.572   4.938   1.863  0.0872  1.1818  1.4959
   59MOL    H2124497   1.677   4.928   1.988 -0.5880 -0.0708  1.8364
   59MOL    H2224498   1.979   4.398   1.453  0.9697 -0.6672 -1.0366
   59MOL    C2324499   1.842   4.707   1.379  0.8103  0.2941  0.4521
   59MOL    C2424500   1.712   4.775   1.314 -0.4552  0.5448  0.3883
   59MOL    C2524501   1.728   4.926   1.327  0.7769  0.7078 -0.1128
   59MOL    O2624502   1.640   4.994   1.384  0.4447 -0.2363 -0.2149
   59MOL    O2724503   1.840   4.969   1.276 -0.0757  0.5705  0.3861
   59MOL    C2824504   1.860   5.111   1.259 -0.7865  0.0330  0.9141
   59MOL    C2924505   2.000   5.138   1.208 -0.2193  0.3787 -0.0532
   59MOL    C3024506   2.034   5.069   1.078  0.0343 -0.5814 -0.1541
   59MOL    C3124507   2.169   5.090   1.023 -0.0905  0.1338  0.5331
   59MOL    H3224508   1.931   4.735   1.321  1.1576 -0.1708  0.7526
   59MOL    H3324509   1.855   4.751   1.478  0.5059  0.2250  0.5205
   59MOL    H3424510   1.626   4.738   1.370 -0.7535 -0.0062 -0.4160
   59MOL    H3524511   1.843   5.163   1.353  2.0142 -0.1159  1.5180
   59MOL    H3624512   1.784   5.156   1.194  0.1841 -0.2948 -0.4767
   59MOL    H3724513   2.008   5.246   1.193 -5.2835  0.7517 -1.1973
   59MOL    H3824514   2.070   5.112   1.287  1.3232 -1.3069 -1.9237
   59MOL    H3924515   1.965   5.101   0.999  0.1000 -0.0545  0.0007
   59MOL    H4024516   2.025   4.964   1.103 -0.1191 -0.2579  1.1841
   59MOL    H4124517   2.238   5.010   1.052 -0.3654  0.2155  1.4237
   59MOL    H4224518   2.205   5.192   1.032  0.2228  0.0167  0.6461
   59MOL    H4324519   2.159   5.076   0.916  2.3798  0.6848  0.1910
   59MOL    C4424520   1.684   4.723   1.166 -0.2890 -0.8326  0.3683
   59MOL    C4524521   1.550   4.779   1.103 -0.2723  0.1279  0.8453
   59MOL    C4624522   1.567   4.800   0.945 -0.4084  0.5053 -0.5431
   59MOL    O4724523   1.620   4.714   0.875 -0.1478 -0.3449  0.6354
   59MOL    O4824524   1.519   4.912   0.898  0.0244  0.3545  0.4994
   59MOL    C4924525   1.516   4.924   0.756 -0.2034  0.2452  0.3283
   59MOL    C5024526   1.439   5.047   0.711 -0.0463  0.3001 -0.2297
   59MOL    C5124527   1.312   5.059   0.790  0.0956  0.4335 -0.2675
   59MOL    C5224528   1.224   5.176   0.742 -0.3521  0.4852 -0.2626
   59MOL    H5324529   1.674   4.616   1.154 -1.2089 -0.7156  0.0500
   59MOL    H5424530   1.771   4.755   1.108  1.0234 -2.4291  1.4224
   59MOL    H5524531   1.537   4.875   1.155  0.7877 -0.0038  1.3642
   59MOL    H5624532   1.465   4.840   0.708 -0.8601  0.7114  0.1988
   59MOL    H5724533   1.617   4.929   0.717 -0.0395 -0.5911  0.6438
   59MOL    H5824534   1.492   5.139   0.734  0.0481  0.6662 -1.8523
   59MOL    H5924535   1.413   5.045   0.605 -0.2954 -2.1559 -0.1597
   59MOL    H6024536   1.333   5.082   0.894 -1.6490  2.3612 -0.2924
   59MOL    H6124537   1.250   4.973   0.764  1.7286 -1.3541  1.6002
   59MOL    H6224538   1.173   5.223   0.827 -1.3094  0.7598 -0.9772
   59MOL    H6324539   1.153   5.144   0.666 -0.6248  1.0527 -0.2464
   59MOL    H6424540   1.280   5.262   0.707  0.3507  0.6023  1.1188
   59MOL    C6524541   1.431   4.677   1.128 -0.4406  0.4629 -0.3866
   59MOL    C6624542   1.282   4.706   1.106 -0.6567  0.0304 -0.0925
   59MOL    C6724543   1.228   4.814   1.201 -0.0313  0.3198 -0.1889
   59MOL    O6824544   1.200   4.932   1.171  0.1483 -0.3405  0.3005
   59MOL    O6924545   1.205   4.764   1.317  0.5485 -0.5356 -0.1506
   59MOL    C7024546   1.146   4.841   1.418 -0.2410  0.0337 -0.1629
   59MOL    C7124547   1.124   4.763   1.549  0.7391 -0.5610  0.1422
   59MOL    C7224548   1.237   4.775   1.648 -0.2990 -0.1129  0.0242
   59MOL    C7324549   1.186   4.785   1.791 -0.5376  0.5308 -0.5970
   59MOL    H7424550   1.444   4.648   1.233 -0.0277 -0.5317 -0.7026
   59MOL    H7524551   1.458   4.584   1.078 -0.1077  0.2328  0.2105
   59MOL    H7624552   1.220   4.620   1.130 -0.1391 -0.1408  0.6565
   59MOL    H7724553   1.048   4.869   1.378 -1.0634 -1.4178  0.7569
   59MOL    H7824554   1.199   4.935   1.433  2.1987 -1.2170 -0.6537
   59MOL    H7924555   1.036   4.811   1.592  0.2970 -0.4162 -0.9246
   59MOL    H8024556   1.099   4.658   1.531  1.2771 -0.7127  0.2742
   59MOL    H8124557   1.297   4.864   1.626  0.2464 -0.7552 -1.1454
   59MOL    H8224558   1.304   4.690   1.632  0.3336  0.3728  0.0348
   59MOL    H8324559   1.107   4.718   1.825  0.9786 -1.3767 -0.7371
   59MOL    H8424560   1.144   4.884   1.802 -1.9809 -0.0822 -0.5603
   59MOL    H8524561   1.266   4.787   1.866 -1.4395  1.9157  0.3399
   59MOL    C8624562   1.251   4.732   0.956 -0.1628  0.1880  0.2840
   59MOL    C8724563   1.104   4.710   0.917  0.4977  0.4876 -0.0199
   59MOL    C8824564   1.068   4.776   0.786 -0.4042  0.0254 -0.4513
   59MOL    O8924565   0.978   4.863   0.785 -0.4150  0.1447  0.5327
   59MOL    O9024566   1.140   4.734   0.688 -0.1501 -0.1391 -0.0301
   59MOL    C9124567   1.105   4.780   0.559  0.1282 -0.0888  0.1771
   59MOL    C9224568   1.155   4.669   0.456  1.3270 -0.6698 -0.5615
   59MOL    C9324569   1.074   4.681   0.322 -0.1423 -0.3795  0.2464
   59MOL    C9424570   1.087   4.551   0.237  0.0308  0.4931 -0.3351
   59MOL    H9524571   1.320   4.671   0.898  0.4033 -1.2263  2.4005
   59MOL    H9624572   1.287   4.835   0.943  1.4200 -0.4851 -0.8555
   59MOL    H9724573   1.040   4.769   0.982  1.8201  0.4102  1.3564
   59MOL    H9824574   1.152   4.874   0.533 -1.0410  0.4877  0.0982
   59MOL    H9924575   1.000   4.801   0.538  0.1785  0.4906  0.5099
   59MOL   H10024576   1.262   4.653   0.450  1.4422  0.3637 -1.3650
   59MOL   H10124577   1.116   4.576   0.499  3.3028 -0.9562  0.6570
   59MOL   H10224578   1.101   4.767   0.261 -2.5634  1.1735  1.2829
   59MOL   H10324579   0.971   4.700   0.353  0.0325  1.0165  0.0297
   59MOL   H10424580   1.056   4.463   0.293 -2.7329  1.4888 -0.2349
   59MOL   H10524581   1.190   4.526   0.212  0.3354 -0.4666  1.7806
   59MOL   H10624582   1.024   4.558   0.149 -0.0257  0.4902 -0.2945
   59MOL   C10724583   1.041   4.570   0.934 -0.6456 -1.0265  0.5112
   59MOL   C10824584   1.092   4.454   0.848  0.2630 -0.5277  0.3243
   59MOL   C10924585   1.239   4.414   0.872  0.4275 -0.2196 -0.0673
   59MOL   O11024586   1.278   4.368   0.977 -0.5631  0.7185  0.0625
   59MOL   O11124587   1.310   4.437   0.765  0.3622 -0.1924  0.0238
   59MOL   C11224588   1.445   4.403   0.777  0.3725  0.1065  0.4352
   59MOL   C11324589   1.514   4.453   0.643 -0.5558 -0.7982  0.7234
   59MOL   C11424590   1.526   4.347   0.529  0.0490  0.1371  0.6224
   59MOL   C11524591   1.391   4.317   0.476  0.4364  0.0219  0.0975
   59MOL   H11624592   0.942   4.587   0.891 -0.0040 -1.2959 -1.1192
   59MOL   H11724593   1.031   4.550   1.040 -2.1389 -2.6219  0.0833
   59MOL   H11824594   1.090   4.474   0.741 -1.1073 -1.1629  0.2229
   59MOL   H11924595   1.464   4.297   0.800  0.3464  0.1582  0.6988
   59MOL   H12024596   1.487   4.461   0.859 -0.1010  0.9843  0.0555
   59MOL   H12124597   1.479   4.552   0.617 -1.2489 -1.4116 -0.7500
   59MOL   H12224598   1.616   4.473   0.678  0.2233 -3.4090  0.0994
   59MOL   H12324599   1.568   4.253   0.564 -0.9047 -0.8862 -0.9282
   59MOL   H12424600   1.582   4.398   0.451 -0.4779  1.4740  1.0957
   59MOL   H12524601   1.328   4.270   0.552  0.6877  0.0277  0.3074
   59MOL   H12624602   1.406   4.240   0.400 -1.4468  0.6467 -0.9353
   59MOL   H12724603   1.342   4.402   0.428 -0.4028 -1.1940 -1.2179
   59MOL   C12824604   1.002   4.331   0.876  0.5757 -0.4196  0.0303
   59MOL   C12924605   1.004   4.233   0.760  0.8621 -0.5160  0.3429
   59MOL   C13024606   0.951   4.094   0.798 -0.5192 -0.1565 -0.3414
   59MOL   O13124607   0.868   4.077   0.884 -0.2138 -0.3710 -0.0916
   59MOL   O13224608   1.009   4.002   0.721  0.0311  0.0352 -0.3260
   59MOL   C13324609   0.978   3.866   0.741 -0.0790 -0.1380 -0.6589
   59MOL   C13424610   1.035   3.782   0.625 -0.3186  0.2623 -0.2008
   59MOL   C13524611   0.994   3.634   0.627  0.6227  0.4595 -0.3051
   59MOL   C13624612   1.065   3.565   0.507 -0.2844 -0.0334 -0.3050
   59MOL   H13724613   0.898   4.353   0.900  0.7559 -0.5776  0.9973
   59MOL   H13824614   1.042   4.278   0.963  1.9717 -1.3108 -1.1376
   59MOL   H13924615   1.108   4.213   0.733  0.3832 -1.4751 -0.8627
   59MOL   H14024616   0.870   3.849   0.735  0.0377 -1.3018  0.4864
   59MOL   H14124617   1.013   3.826   0.836  1.3169 -0.9485 -1.5010
   59MOL   H14224618   1.000   3.827   0.531  0.4250 -0.2611 -0.7295
   59MOL   H14324619   1.142   3.784   0.609 -0.6096 -0.6533 -2.4590
   59MOL   H14424620   0.887   3.620   0.617  0.8672 -1.1572 -0.8198
   59MOL   H14524621   1.020   3.583   0.720  0.1922 -1.8255 -1.4017
   59MOL   H14624622   1.172   3.579   0.519 -0.2056 -0.4503 -0.5076
   59MOL   H14724623   1.029   3.612   0.415  3.1973  2.7854 -0.3039
   59MOL   H14824624   1.028   3.462   0.509  0.0253 -0.2964 -4.4911
   59MOL   C14924625   0.930   4.282   0.629  0.4275  0.6533  0.1889
   59MOL   C15024626   0.783   4.319   0.642 -0.6973  0.0627  0.1164
   59MOL   C15124627   0.748   4.466   0.681  0.1940 -0.7123  0.1574
   59MOL   O15224628   0.786   4.567   0.621  0.0016 -0.1755 -0.0085
   59MOL   O15324629   0.672   4.472   0.784 -0.3040  0.1967 -0.1650
   59MOL   C15424630   0.621   4.594   0.829  0.1662  0.2566 -0.2623
   59MOL   C15524631   0.508   4.574   0.931 -0.1356  0.9633 -0.6487
   59MOL   C15624632   0.420   4.687   0.973 -0.3036 -0.5618 -0.6974
   59MOL   C15724633   0.493   4.809   1.034  0.4573  0.4465  0.1373
   59MOL   H15824634   0.945   4.215   0.544  2.5154  1.4509 -0.0991
   59MOL   H15924635   0.971   4.372   0.584  0.8188  2.2891  3.6428
   59MOL   H16024636   0.731   4.251   0.709 -1.4127  0.4796 -0.0112
   59MOL   H16124637   0.590   4.663   0.750  4.0880  0.4423 -1.7170
   59MOL   H16224638   0.691   4.654   0.887 -0.1595 -1.6954  2.1989
   59MOL   H16324639   0.455   4.483   0.901  1.6418 -0.0405 -0.8211
   59MOL   H16424640   0.568   4.540   1.015  1.2732 -0.4794 -2.1844
   59MOL   H16524641   0.343   4.654   1.043  0.5130 -0.2550  0.3554
   59MOL   H16624642   0.374   4.724   0.881  1.2578  0.9662 -0.8878
   59MOL   H16724643   0.414   4.879   1.061  1.7075  1.4986  1.0944
   59MOL   H16824644   0.546   4.862   0.955  1.0006 -1.3166 -0.7054
   59MOL   H16924645   0.557   4.793   1.121  2.3165 -0.7819 -1.4045
   59MOL   C17024646   0.717   4.297   0.503  0.0522 -0.0955 -0.3059
   59MOL   C17124647   0.706   4.152   0.443 -0.1414  0.0565 -0.5872
   59MOL   C17224648   0.686   4.032   0.541 -0.0298 -0.6982  0.0048
   59MOL   O17324649   0.771   3.942   0.531  0.2727 -0.4269 -0.0998
   59MOL   O17424650   0.586   4.039   0.632 -0.2590  0.2959  0.2598
   59MOL   C17524651   0.565   3.918   0.697 -0.2994  0.5357 -0.2653
   59MOL   C17624652   0.476   3.940   0.822 -0.2891 -0.4244  0.1227
   59MOL   C17724653   0.557   4.006   0.939 -0.1963 -0.4007 -0.1649
   59MOL   C17824654   0.557   4.154   0.936 -0.1066 -0.5418 -0.3523
   59MOL   H17924655   0.755   4.367   0.429 -0.0725  0.2660 -0.0309
   59MOL   H18024656   0.611   4.316   0.521 -0.0771  1.2548 -2.2895
   59MOL   H18124657   0.807   4.128   0.409  0.6573 -0.0803  1.7902
   59MOL   H18224658   0.656   3.873   0.735  1.2884  3.3158 -0.6566
   59MOL   H18324659   0.519   3.855   0.621 -0.7634  0.0319  0.4233
   59MOL   H18424660   0.404   4.011   0.780  0.8303  1.0230  0.6242
   59MOL   H18524661   0.430   3.843   0.846  0.5952 -0.6757  0.8175
   59MOL   H18624662   0.660   3.970   0.944 -0.3283 -0.4909  4.6372
   59MOL   H18724663   0.518   3.963   1.031 -1.8546  1.1350 -0.1213
   59MOL   H18824664   0.459   4.188   0.901 -0.2332  1.8114  2.0620
   59MOL   H18924665   0.632   4.179   0.861 -0.0503 -0.0550 -0.1351
   59MOL   H19024666   0.606   4.208   1.017 -0.8053  1.3841 -1.1871
   59MOL   C19124667   0.607   4.146   0.327  0.5476  0.0802 -0.1672
   59MOL   C19224668   0.666   4.107   0.184  0.1309 -0.2860 -0.2961
   59MOL   C19324669   0.677   3.948   0.158  0.7485  0.0926 -0.1068
   59MOL   O19424670   0.748   3.885   0.237  0.1289 -0.7990 -0.3108
   59MOL   O19524671   0.620   3.898   0.044  0.0189  0.8341  0.0626
   59MOL   C19624672   0.663   3.770   7.852  0.1651  0.2894 -1.1881
   59MOL   C19724673   0.752   3.788   7.728  0.2375 -0.1408  0.2197
   59MOL   C19824674   0.800   3.658   7.658  0.0199 -0.1329  0.2238
   59MOL   C19924675   0.862   3.695   7.523  0.2440 -0.5335  0.5509
   59MOL   H20024676   0.555   4.239   0.306  0.6407  0.1559 -0.0660
   59MOL   H20124677   0.532   4.069   0.340 -2.3873  3.3480  3.0587
   59MOL   H20224678   0.770   4.139   0.193  0.3779 -0.5271 -2.1778
   59MOL   H20324679   0.575   3.708   7.833  1.4473 -2.6809  2.0984
   59MOL   H20424680   0.712   3.710   0.075  0.1622  1.5143 -0.2068
   59MOL   H20524681   0.689   3.845   7.659  1.2187  1.4591  0.6281
   59MOL   H20624682   0.827   3.863   7.750 -0.1463  0.5577 -0.7862
   59MOL   H20724683   0.727   3.579   7.640  0.5735 -1.0562  1.8501
   59MOL   H20824684   0.877   3.611   7.720  0.2486  1.6539  1.3273
   59MOL   H20924685   0.785   3.736   7.458 -1.0975 -1.2176  1.6892
   59MOL   H21024686   0.909   3.608   7.478 -0.8390 -0.9939  0.3011
   59MOL   H21124687   0.940   3.770   7.535 -0.8145  0.7540 -0.5096
   59MOL   C21224688   0.593   4.179   0.062  0.3111  0.0658 -1.6603
   59MOL   C21324689   0.694   4.258   7.825 -0.2075  0.1674 -0.2489
   59MOL   C21424690   0.755   4.370   0.052  0.3177  0.3746  0.0204
   59MOL   O21524691   0.876   4.364   0.085  0.2476  0.2129 -0.0848
   59MOL   O21624692   0.669   4.468   0.084  0.0402 -0.2272 -0.5836
   59MOL   C21724693   0.720   4.559   0.179  0.0930  0.3107 -0.0877
   59MOL   C21824694   0.611   4.667   0.230  0.1306 -0.1510  0.3397
   59MOL   C21924695   0.671   4.792   0.290  0.9138  0.1404 -0.2024
   59MOL   C22024696   0.556   4.899   0.306  0.3098  0.2367  0.3234
   59MOL   H22124697   0.527   4.256   0.102  0.4633 -0.0665 -1.1528
   59MOL   H22224698   0.517   4.116   0.016 -0.1559  1.0761 -2.3059
   59MOL   H22324699   0.632   4.309   7.752 -0.9651  0.5511  0.6526
   59MOL   H22424700   0.783   4.625   0.119  0.4368 -0.4730 -0.6007
   59MOL   H22524701   0.771   4.513   0.263  0.5647 -0.3412 -0.7253
   59MOL   H22624702   0.547   4.686   0.144  0.6280  0.3353  0.0691
   59MOL   H22724703   0.537   4.626   0.298 -0.8713  2.7572  1.0503
   59MOL   H22824704   0.758   4.823   0.232  1.4490  2.8051  1.8723
   59MOL   H22924705   0.699   4.770   0.393 -0.5127 -3.3068 -0.5040
   59MOL   H23024706   0.522   4.918   0.204 -2.3254  0.8806  1.2854
   59MOL   H23124707   0.587   4.990   0.359 -0.8670  0.3051  0.8926
   59MOL   H23224708   0.477   4.847   0.360  0.9134 -0.6223  0.3816
   59MOL   C23324709   0.799   4.170   7.752  0.5373  0.0167  0.3947
   59MOL   C23424710   0.889   4.238   7.642  0.4684  0.3746 -0.1404
   59MOL   C23524711   1.032   4.169   7.640 -0.2959 -0.2424 -0.7941
   59MOL   O23624712   1.046   4.046   7.632 -0.3124 -1.0778  0.0183
   59MOL   O23724713   1.130   4.260   7.653  0.0569  0.1001  0.0217
   59MOL   C23824714   1.266   4.213   7.651 -0.6606  0.0276  0.3760
   59MOL   C23924715   1.301   4.188   7.801  0.1291 -0.2976 -0.1172
   59MOL   C24024716   1.359   4.308   0.020 -0.0926 -0.0473  0.5034
   59MOL   C24124717   1.510   4.296   0.037  0.1522  0.8207  0.5362
   59MOL   H24224718   0.748   4.091   7.697  1.0870  0.5088 -0.8405
   59MOL   H24324719   0.863   4.128   7.829 -0.5328  0.0895  1.3280
   59MOL   H24424720   0.900   4.342   7.673  2.3138  0.5756 -1.3347
   59MOL   H24524721   1.340   4.289   7.625  1.6322 -1.8638  1.1174
   59MOL   H24624722   1.275   4.129   7.582 -0.8010 -1.8366  2.5480
   59MOL   H24724723   1.220   4.145   0.006  0.5866  0.2595  0.9495
   59MOL   H24824724   1.386   4.119   7.801  0.4926  0.1332 -1.9151
   59MOL   H24924725   1.307   4.327   0.114 -0.3437  5.3873 -0.6017
   59MOL   H25024726   1.340   4.401   7.820 -0.7336 -0.1671  0.5151
   59MOL   H25124727   1.539   4.215   0.104 -1.4853 -0.6985 -0.5746
   59MOL   H25224728   1.557   4.383   0.084  0.1190  0.5686  1.0450
   59MOL   H25324729   1.560   4.292   7.793  0.0376  0.2333  0.5060
   59MOL   C25424730   0.827   4.233   7.500 -0.4351  0.3397  0.2344
   59MOL   C25524731   0.825   4.100   7.416  0.1752 -0.7720 -0.1079
   59MOL   C25624732   0.674   4.069   7.388 -0.0993 -0.1046 -0.3651
   59MOL   O25724733   0.634   4.049   7.274 -0.3643  0.6116  0.4953
   59MOL   O25824734   0.596   4.062   7.506  0.4684 -0.0598  0.7990
   59MOL   C25924735   0.452   4.039   7.509  0.3545  0.1019  0.3011
   59MOL   C26024736   0.413   3.895   7.546 -0.3016  0.0705 -0.2882
   59MOL   C26124737   0.456   3.788   7.433  0.1809  0.2198  0.0953
   59MOL   C26224738   0.383   3.656   7.454 -0.8875  0.0890 -0.4742
   59MOL   H26324739   0.869   4.317   7.444 -0.9330  0.4874  0.0783
   59MOL   H26424740   0.729   4.280   7.510 -0.0695  1.4283 -1.1222
   59MOL   H26524741   0.863   4.016   7.474  1.2349  0.1031  0.4706
   59MOL   H26624742   0.405   4.075   7.417 -1.6889  0.0206  1.2899
   59MOL   H26724743   0.405   4.096   7.589  0.2177  0.5972 -0.1270
   59MOL   H26824744   0.468   3.874   7.638  0.8389 -2.0074 -1.3906
   59MOL   H26924745   0.306   3.894   7.565 -0.4869  1.4269 -1.1665
   59MOL   H27024746   0.557   3.751   7.448 -0.6068 -3.0310 -2.1202
   59MOL   H27124747   0.444   3.826   7.332  0.1974  1.8032  0.6713
   59MOL   H27224748   0.397   3.580   7.377 -0.7581  0.7580 -1.1228
   59MOL   H27324749   0.276   3.678   7.451 -0.8903  0.1474  0.1013
   59MOL   H27424750   0.413   3.621   7.553  0.0172  0.1529 -0.7174
   59MOL   C27524751   0.907   4.112   7.285 -0.0936  0.1211 -0.1129
   59MOL   C27624752   1.059   4.134   7.290  0.1491 -0.3210  0.2482
   59MOL   C27724753   1.152   4.012   7.298 -0.6350  0.1965  0.1424
   59MOL   O27824754   1.107   3.902   7.261  0.1993  0.2919  0.1882
   59MOL   O27924755   1.276   4.037   7.336 -0.1937  0.1660 -0.3834
   59MOL   C28024756   1.368   3.935   7.328 -0.1298 -0.0928 -0.2808
   59MOL   C28124757   1.505   4.001   7.318 -0.4045  0.1979 -0.0920
   59MOL   C28224758   1.545   4.071   7.445  0.1558 -0.0670 -0.0254
   59MOL   C28324759   1.583   3.979   7.563  0.7901  0.6747 -0.3190
   59MOL   H28424760   0.867   4.200   7.234  1.7915  0.2241 -1.4279
   59MOL   H28524761   0.891   4.018   7.231  2.2299 -0.5964  0.4094
   59MOL   H28624762   1.066   4.207   7.371 -2.2691  0.1426  0.0662
   59MOL   H28724763   1.353   3.864   7.247  0.0217 -0.2397 -0.1824
   59MOL   H28824764   1.345   3.872   7.415 -2.5001  1.4529  0.2561
   59MOL   H28924765   1.584   3.926   7.305  0.9637  1.7664 -1.0242
   59MOL   H29024766   1.521   4.059   7.227 -0.6079  1.3413  0.5933
   59MOL   H29124767   1.468   4.142   7.475  1.7579  0.4143  3.2133
   59MOL   H29224768   1.630   4.139   7.433  0.6729 -0.5697  0.7122
   59MOL   H29324769   1.655   3.903   7.532 -0.7126 -0.8532 -0.1453
   59MOL   H29424770   1.495   3.932   7.606  2.1903 -0.9447  0.9003
   59MOL   H29524771   1.622   4.032   7.650  1.1050 -0.5357  0.2946
   59MOL   C29624772   1.095   4.216   7.164 -0.0876 -0.3087  0.9408
   59MOL   C29724773   1.116   4.369   7.187 -0.4614 -1.0400  0.7397
   59MOL   C29824774   1.249   4.397   7.254 -0.4893  0.2410 -0.0280
   59MOL   O29924775   1.257   4.426   7.371 -0.0204 -0.1113 -0.1840
   59MOL   O30024776   1.348   4.383   7.171 -0.0185  0.5162  0.5487
   59MOL   C30124777   1.475   4.365   7.227 -0.4747  0.3460 -0.8867
   59MOL   C30224778   1.550   4.487   7.267 -0.2696 -0.0250 -0.1535
   59MOL   C30324779   1.691   4.463   7.306 -0.7694  0.1005  0.6487
   59MOL   C30424780   1.716   4.433   7.456  0.6660 -0.2011  0.0405
   59MOL   H30524781   1.027   4.194   7.082  1.9083 -0.9411 -0.5868
   59MOL   H30624782   1.183   4.182   7.109 -0.0313 -0.7542  1.3003
   59MOL   H30724783   1.053   4.409   7.267  0.1106  1.7023 -0.1425
   59MOL   H30824784   1.525   4.304   7.151 -2.0775 -0.2873 -1.4642
   59MOL   H30924785   1.463   4.297   7.311 -0.2744 -0.4757 -1.5127
   59MOL   H31024786   1.539   4.546   7.175 -3.7498 -0.3983 -0.0213
   59MOL   H31124787   1.499   4.546   7.343 -1.4080 -0.4777 -0.5575
   59MOL   H31224788   1.752   4.550   7.284 -1.3435  1.3913  3.9973
   59MOL   H31324789   1.735   4.386   7.242 -0.2853  0.0555  1.0347
   59MOL   H31424790   1.681   4.519   7.513  0.2819 -1.8655  2.3664
   59MOL   H31524791   1.818   4.428   7.491  1.0875  1.1347 -0.9429
   59MOL   H31624792   1.655   4.350   7.491 -0.5500  0.8101  0.3463
   59MOL   C31724793   1.093   4.462   7.062  0.2947 -0.2317 -0.4954
   59MOL   C31824794   0.966   4.549   7.068  0.6076  0.0015  0.0930
   59MOL   C31924795   0.837   4.473   7.118 -0.6203  0.0019 -0.2277
   59MOL   O32024796   0.774   4.502   7.220  0.8171  0.4191 -0.3827
   59MOL   O32124797   0.800   4.370   7.038  0.1536  0.1048 -0.7123
   59MOL   C32224798   0.671   4.299   7.055 -0.1068  0.4819  0.8278
   59MOL   C32324799   0.565   4.363   6.962  0.3002  1.0430 -0.1494
   59MOL   C32424800   0.523   4.505   6.992 -0.2641 -0.4897  0.1130
   59MOL   C32524801   0.408   4.550   6.899 -0.4769 -0.3906  0.7073
   59MOL   H32624802   1.084   4.398   6.974 -2.5669  0.3018 -0.6352
   59MOL   H32724803   1.173   4.534   7.047  0.6066 -0.2095  1.2026
   59MOL   H32824804   0.949   4.597   6.972 -0.7933  1.2530  0.9361
   59MOL   H32924805   0.618   4.299   7.150  0.2856 -1.4145  1.0519
   59MOL   H33024806   0.687   4.194   7.034  1.4622  0.4079  2.3282
   59MOL   H33124807   0.616   4.337   6.869 -0.2398 -0.5525 -0.0275
   59MOL   H33224808   0.472   4.305   6.955 -0.3059  1.8771  0.7684
   59MOL   H33324809   0.611   4.569   6.983  0.3204 -1.3956 -0.7688
   59MOL   H33424810   0.500   4.505   7.098 -0.8274 -1.1733 -0.0029
   59MOL   H33524811   0.443   4.533   6.797 -0.4994  1.5565  0.3546
   59MOL   H33624812   0.390   4.657   6.903  1.2536 -0.0189 -0.4261
   59MOL   H33724813   0.314   4.499   6.917 -0.2735 -1.2042 -0.4108
   59MOL   C33824814   0.999   4.679   7.152  0.6393  0.1708 -0.9071
   59MOL   C33924815   1.030   4.795   7.052  0.3207 -0.6540  0.3057
   59MOL   C34024816   0.895   4.856   7.001 -0.5735  0.9804 -0.0804
   59MOL   O34124817   0.896   4.891   6.883 -0.0659 -0.9864 -0.4524
   59MOL   O34224818   0.807   4.888   7.097  0.2265  0.2784 -0.4376
   59MOL   C34324819   0.690   4.963   7.064  0.2164 -0.4341 -0.4085
   59MOL   C34424820   0.575   4.869   7.081 -0.3556  0.0661 -0.7185
   59MOL   C34524821   0.443   4.946   7.128  0.3851 -0.0309  0.5993
   59MOL   C34624822   0.322   4.863   7.164  0.2673  0.4063 -0.6739
   59MOL   H34724823   1.084   4.641   7.207  0.2849  0.1724 -0.3585
   59MOL   H34824824   0.914   4.710   7.213  0.1266 -0.4488 -1.2929
   59MOL   H34924825   1.086   4.762   6.964  0.5451 -2.3618  1.0682
   59MOL   H35024826   0.687   4.991   6.959  1.2443  0.3791 -0.2310
   59MOL   H35124827   0.673   5.056   7.119 -0.5176 -0.1804 -1.0466
   59MOL   H35224828   0.552   4.812   6.991  0.2513  0.3420 -1.0545
   59MOL   H35324829   0.595   4.794   7.157 -2.3728  0.6587  0.4292
   59MOL   H35424830   0.423   5.025   7.055 -1.8791  0.1256  1.3531
   59MOL   H35524831   0.466   5.002   7.218  3.7549 -1.3216  0.6213
   59MOL   H35624832   0.243   4.919   7.213  0.6189  1.5693 -1.4180
   59MOL   H35724833   0.354   4.776   7.221 -0.1804  1.9264  1.9795
   59MOL   H35824834   0.274   4.831   7.072 -0.0073  1.7147 -0.9957
   59MOL   C35924835   1.103   4.904   7.123  0.1374 -0.3696 -0.1302
   59MOL   C36024836   1.248   4.855   7.153 -0.2490 -0.0980 -0.0474
   59MOL   C36124837   1.329   4.843   7.028 -0.2013 -0.2350 -0.2958
   59MOL   O36224838   1.339   4.934   6.943 -0.5784 -0.2538 -0.3504
   59MOL   O36324839   1.389   4.722   7.025  0.4067  0.5224  0.2173
   59MOL   C36424840   1.476   4.690   6.918 -0.2947  0.4062 -0.5586
   59MOL   C36524841   1.407   4.638   6.798 -0.7940  0.1901  0.2670
   59MOL   C36624842   1.523   4.565   6.726 -0.9509  0.4135  0.2917
   59MOL   C36724843   1.556   4.424   6.779  0.2078 -0.2831  0.1255
   59MOL   H36824844   1.054   4.925   7.219 -2.9476  1.3807 -2.0054
   59MOL   H36924845   1.096   4.996   7.065  0.8251 -0.9212 -1.1039
   59MOL   H37024846   1.245   4.760   7.206 -1.8990  0.0483  0.1272
   59MOL   H37124847   1.539   4.609   6.956 -0.5895  1.4698  2.3542
   59MOL   H37224848   1.538   4.772   6.884 -2.8196  1.8564 -1.8041
   59MOL   H37324849   1.327   4.568   6.823  0.5038 -1.3031  0.3698
   59MOL   H37424850   1.368   4.718   6.736  0.5303  0.3627 -0.3749
   59MOL   H37524851   1.611   4.628   6.736 -1.7188  1.8467 -1.5986
   59MOL   H37624852   1.504   4.567   6.619  0.6462  0.7603 -0.0001
   59MOL   H37724853   1.644   4.382   6.731  0.0954  0.4939 -0.7688
   59MOL   H37824854   1.472   4.360   6.752 -1.4198  1.5213  0.8621
   59MOL   H37924855   1.578   4.426   6.886  0.3357 -1.2923  0.1252
   59MOL   C38024856   1.311   4.961   7.248 -0.6728 -0.0216  0.2345
   59MOL   C38124857   1.289   4.929   7.402  0.5414  0.8064  0.6736
   59MOL   C38224858   1.370   4.812   7.452  0.6392 -0.0172  0.1851
   59MOL   O38324859   1.481   4.785   7.418 -0.4121  0.1804  0.2683
   59MOL   O38424860   1.299   4.745   7.551 -0.3131 -0.1052  0.6109
   59MOL   C38524861   1.357   4.631   7.613  0.5602  0.0895  0.2787
   59MOL   C38624862   1.464   4.651   7.716  0.3494 -0.3419 -0.0957
   59MOL   C38724863   1.406   4.707   7.847  0.2763 -0.3844  0.3258
   59MOL   C38824864   1.502   4.790   0.079  0.2888  0.1432  0.5741
   59MOL   H38924865   1.277   5.062   7.228 -0.5657  0.5668  2.8279
   59MOL   H39024866   1.418   4.959   7.227 -0.5635 -0.1199  0.7793
   59MOL   H39124867   1.185   4.900   7.412  0.5922  0.7158  0.9456
   59MOL   H39224868   1.382   4.562   7.533 -0.6317  0.0828 -0.1010
   59MOL   H39324869   1.263   4.597   7.657  0.5039 -0.8697 -0.5531
   59MOL   H39424870   1.525   4.565   7.743 -0.3698 -0.2307  1.9961
   59MOL   H39524871   1.526   4.732   7.679  0.2649 -1.0829 -1.8980
   59MOL   H39624872   1.367   4.626   0.055 -1.1095  0.3565  0.4541
   59MOL   H39724873   1.322   4.771   7.820  0.8761  0.2581 -0.0315
   59MOL   H39824874   1.588   4.727   0.103 -0.2488 -1.5636 -1.7801
   59MOL   H39924875   1.466   4.807   0.181 -2.2424  0.9266 -0.4202
   59MOL   H40024876   1.542   4.872   0.020 -1.3755  0.5041 -0.0761
   59MOL   C40124877   1.303   5.059   7.485  0.5348  0.5387 -0.4133
   59MOL   C40224878   1.303   5.046   7.635 -0.0314 -0.0510 -0.7039
   59MOL   C40324879   1.158   5.027   7.687  0.7056  0.3899  0.4987
   59MOL   O40424880   1.074   5.109   7.655  0.2348  0.6753 -0.7974
   59MOL   O40524881   1.137   4.932   7.776 -0.1440  0.5997  0.0965
   59MOL   C40624882   1.016   4.885   7.818 -0.5189 -0.0508 -0.7088
   59MOL   C40724883   0.986   4.744   7.766  0.3213  0.0769  0.3197
   59MOL   C40824884   0.958   4.730   7.613  0.0334 -0.3161 -0.0452
   59MOL   C40924885   0.925   4.593   7.552 -0.2563  0.5385 -0.0331
   59MOL   H41024886   1.217   5.120   7.456 -0.4646 -0.8742 -0.4698
   59MOL   H41124887   1.386   5.115   7.444  0.3887  0.5076 -0.7515
   59MOL   H41224888   1.329   5.144   7.676 -1.4477  0.6799 -1.5236
   59MOL   H41324889   0.935   4.950   7.786 -0.0247  1.4105  0.9377
   59MOL   H41424890   1.010   4.887   0.074 -0.6994  1.0486 -0.7286
   59MOL   H41524891   1.060   4.667   7.788  0.7244  0.9411  1.9964
   59MOL   H41624892   0.891   4.721   7.814  0.7404 -1.7175  0.3221
   59MOL   H41724893   1.035   4.765   7.544  0.7859  1.7206  1.7706
   59MOL   H41824894   0.867   4.785   7.589  1.6893  2.1136 -1.0079
   59MOL   H41924895   0.840   4.541   7.596 -0.1829 -0.0179 -0.5398
   59MOL   H42024896   1.008   4.525   7.568 -1.2496 -0.2845  1.8118
   59MOL   H42124897   0.912   4.605   7.444  1.8417 -3.6880 -0.8541
   59MOL   H42224898   1.370   4.969   7.676 -4.0971 -3.3872  0.0003
   60MOL     C124899   4.707   4.466   2.855  0.2955  0.4305 -0.4674
   60MOL     C224900   4.679   4.322   2.911  0.3720  0.5341 -0.1069
   60MOL     C324901   4.598   4.317   3.041 -0.0941  0.3072 -0.1359
   60MOL     O424902   4.477   4.293   3.050  0.7854 -0.3302 -0.2267
   60MOL     O524903   4.670   4.353   3.154  0.1795 -0.1050  0.2042
   60MOL     C624904   4.595   4.392   3.264 -0.5638 -0.1601  0.3939
   60MOL     C724905   4.684   4.490   3.345 -0.3070  0.2026 -0.0114
   60MOL     C824906   4.807   4.427   3.396  0.6289 -0.4244 -1.0140
   60MOL     C924907   4.908   4.532   3.440  0.2605  0.4037  0.6439
   60MOL    H1024908   4.611   4.518   2.845  0.2211  0.5508  0.8516
   60MOL    H1124909   4.761   4.524   2.929  1.0272 -0.8435  0.0111
   60MOL    H1224910   4.777   4.284   2.939 -0.0098 -0.0909  0.3853
   60MOL    H1324911   4.585   4.307   3.332  0.1911  0.5512  1.4203
   60MOL    H1424912   4.497   4.434   3.237  1.5381  2.3247 -3.7982
   60MOL    H1524913   4.702   4.584   3.292  1.4814  0.9353  1.8342
   60MOL    H1624914   4.622   4.518   3.430  0.0467 -2.0098  1.0080
   60MOL    H1724915   4.862   4.373   3.319  1.2346 -0.2514 -0.7024
   60MOL    H1824916   4.790   4.354   3.475 -1.2070  0.6726 -0.3529
   60MOL    H1924917   4.868   4.580   3.530 -2.8568  0.1310 -0.5221
   60MOL    H2024918   4.917   4.602   3.357  0.6912 -2.0944 -1.4902
   60MOL    H2124919   5.003   4.483   3.460 -1.1315 -2.4352  0.7081
   60MOL    H2224920   4.755   4.469   2.757 -2.2691 -1.0850 -1.8501
   60MOL    C2324921   4.634   4.230   2.796 -0.1042 -0.2429  0.0848
   60MOL    C2424922   4.489   4.219   2.741  0.4365 -0.3304  0.6324
   60MOL    C2524923   4.441   4.355   2.684  0.4291  0.3558 -0.2020
   60MOL    O2624924   4.365   4.424   2.755  0.1414 -0.7199 -0.5053
   60MOL    O2724925   4.487   4.381   2.560 -0.5353  0.6270 -0.2671
   60MOL    C2824926   4.471   4.503   2.500  0.5968  0.2879 -0.0346
   60MOL    C2924927   4.337   4.499   2.427  0.4775 -0.1450  0.5551
   60MOL    C3024928   4.342   4.387   2.318  0.0510 -0.7871 -0.6308
   60MOL    C3124929   4.214   4.375   2.230 -0.1341  0.4266  0.3745
   60MOL    H3224930   4.662   4.135   2.842  0.0744 -0.0266  0.4331
   60MOL    H3324931   4.699   4.246   2.711  0.3217 -1.7771  0.1204
   60MOL    H3424932   4.434   4.199   2.833  0.0018  2.4681  1.0166
   60MOL    H3524933   4.562   4.527   2.444 -0.4714 -2.2589 -2.9861
   60MOL    H3624934   4.447   4.583   2.570 -1.5117 -1.6137  1.5087
   60MOL    H3724935   4.252   4.477   2.492 -0.1726  0.0272 -0.2233
   60MOL    H3824936   4.318   4.596   2.380  3.0139 -0.2709 -0.7786
   60MOL    H3924937   4.352   4.290   2.366 -0.5235 -0.0152  1.0955
   60MOL    H4024938   4.434   4.393   2.259  1.1293  2.1958  1.2285
   60MOL    H4124939   4.194   4.457   2.162 -0.3515  0.3578  0.3555
   60MOL    H4224940   4.125   4.377   2.293 -2.0363  0.0855 -2.2288
   60MOL    H4324941   4.212   4.280   2.177 -1.3021  0.7972 -0.2484
   60MOL    C4424942   4.474   4.103   2.638 -0.8733  0.7167 -0.3051
   60MOL    C4524943   4.329   4.078   2.592  0.1997 -0.1568  0.4585
   60MOL    C4624944   4.336   3.959   2.494 -0.1105 -0.8945  0.5473
   60MOL    O4724945   4.343   3.843   2.529  0.5352  0.5097  0.0852
   60MOL    O4824946   4.330   4.001   2.368 -0.2624 -0.4012  0.1525
   60MOL    C4924947   4.377   3.922   2.263 -0.4023 -0.0050 -0.0284
   60MOL    C5024948   4.466   4.009   2.173 -0.3561 -0.5917  0.5327
   60MOL    C5124949   4.584   4.068   2.250 -0.1721  0.4170 -0.0639
   60MOL    C5224950   4.684   4.139   2.158  0.0451 -0.3493 -0.0591
   60MOL    H5324951   4.506   4.010   2.685 -1.4009  0.5899 -0.1955
   60MOL    H5424952   4.540   4.114   2.552 -0.5112  2.7063  0.2025
   60MOL    H5524953   4.310   4.167   2.532  2.5975 -0.6344 -1.0559
   60MOL    H5624954   4.295   3.872   2.210  1.2443 -0.5576 -2.1423
   60MOL    H5724955   4.448   3.851   2.306 -0.2249  0.6548  0.7815
   60MOL    H5824956   4.502   3.950   2.089  2.2439  2.0180 -0.2825
   60MOL    H5924957   4.407   4.082   2.118  0.7517 -0.9645 -1.1732
   60MOL    H6024958   4.634   3.992   2.310 -1.9465 -0.6415  0.1179
   60MOL    H6124959   4.547   4.139   2.325 -0.2503  0.6486 -0.3195
   60MOL    H6224960   4.747   4.070   2.102  2.4885  1.0964  0.8066
   60MOL    H6324961   4.749   4.203   2.218  1.2647 -0.7168 -0.9543
   60MOL    H6424962   4.628   4.203   2.089 -1.3836 -0.6298  0.8148
   60MOL    C6524963   4.220   4.064   2.702  0.1955 -0.2587 -0.3141
   60MOL    C6624964   4.077   4.079   2.652  0.0390 -0.0957  0.6174
   60MOL    C6724965   4.035   3.993   2.532  0.0531 -0.5426 -0.2018
   60MOL    O6824966   4.029   4.038   2.417  0.3424  0.1444  0.8112
   60MOL    O6924967   4.005   3.867   2.573 -0.1029 -0.2885 -0.3182
   60MOL    C7024968   3.996   3.770   2.470  0.1999 -0.1438  0.3269
   60MOL    C7124969   4.008   3.628   2.529  0.2432 -0.1792 -0.0061
   60MOL    C7224970   3.906   3.602   2.638 -0.3559 -0.0047  0.1955
   60MOL    C7324971   3.766   3.567   2.581  0.4320  0.4135 -0.6932
   60MOL    H7424972   4.230   4.149   2.770 -0.6671  0.2061 -0.7673
   60MOL    H7524973   4.241   3.970   2.754  0.5894  0.0027  0.0065
   60MOL    H7624974   4.068   4.182   2.616 -4.1463 -0.4489  0.3867
   60MOL    H7724975   4.080   3.771   2.401 -0.1788 -1.0031 -0.1631
   60MOL    H7824976   3.893   3.768   2.433  1.2904 -3.8215 -2.8953
   60MOL    H7924977   4.007   3.567   2.438  0.9587 -1.0185  0.5487
   60MOL    H8024978   4.105   3.625   2.577 -0.9022  0.2059  2.3881
   60MOL    H8124979   3.891   3.696   2.693  1.4952  1.3897 -1.6289
   60MOL    H8224980   3.938   3.518   2.699  1.6460  0.6557  0.0935
   60MOL    H8324981   3.694   3.566   2.663  0.1341  0.9025 -0.9408
   60MOL    H8424982   3.767   3.470   2.532  1.0293  0.7791 -1.4073
   60MOL    H8524983   3.719   3.639   2.514 -0.0212  1.1664  0.4094
   60MOL    C8624984   3.958   4.084   2.753 -0.1157 -0.5621 -0.5623
   60MOL    C8724985   3.918   3.963   2.845  0.3570  0.5914 -0.4189
   60MOL    C8824986   4.034   3.890   2.912 -0.3440  0.6499  0.4358
   60MOL    O8924987   4.057   3.773   2.887 -0.1666  0.6334 -0.5780
   60MOL    O9024988   4.099   3.973   2.993  0.3608 -0.3280  0.3579
   60MOL    C9124989   4.215   3.939   3.063  0.7455 -0.0107  0.5398
   60MOL    C9224990   4.252   4.026   3.182 -0.2961 -0.4703 -0.8245
   60MOL    C9324991   4.141   4.058   3.282  0.3473 -0.6159 -0.5140
   60MOL    C9424992   4.185   4.139   3.405  0.0367 -0.4694 -0.0760
   60MOL    H9524993   3.868   4.107   2.696 -0.4887 -0.4544  0.0585
   60MOL    H9624994   3.973   4.168   2.821  1.1356 -1.3421  0.1432
   60MOL    H9724995   3.862   3.900   2.776  1.0199  2.4665 -2.7203
   60MOL    H9824996   4.288   3.935   2.983  0.1103 -1.8249  0.0327
   60MOL    H9924997   4.187   3.839   3.097 -1.6994  1.3278  2.6381
   60MOL   H10024998   4.347   3.994   3.225 -0.1345  1.3541  0.2130
   60MOL   H10124999   4.274   4.121   3.132 -0.5170  0.7442  1.3511
   60MOL   H10225000   4.116   3.958   3.319 -0.8299  0.3786  1.4164
   60MOL   H10325001   4.058   4.112   3.239  1.4249  2.2287  0.8751
   60MOL   H10425002   4.125   4.120   3.494  2.2883  1.6342  1.9917
   60MOL   H10525003   4.194   4.246   3.387  0.1225 -0.5784 -0.6728
   60MOL   H10625004   4.283   4.107   3.441 -0.9725 -3.2451  0.3390
   60MOL   C10725005   3.819   4.001   2.957 -0.1871 -0.1876 -0.1912
   60MOL   C10825006   3.678   3.988   2.912  0.8475  0.2725 -0.4409
   60MOL   C10925007   3.634   3.844   2.892  0.0455  0.3646  0.4753
   60MOL   O11025008   3.608   3.798   2.781  0.1230 -0.4502  0.1417
   60MOL   O11125009   3.618   3.768   3.011 -0.5720 -0.3878 -0.1769
   60MOL   C11225010   3.598   3.627   3.007  0.5660 -0.5032 -0.0952
   60MOL   C11325011   3.718   3.564   3.078  0.2248  0.3486 -0.7194
   60MOL   C11425012   3.686   3.412   3.097 -0.6712  0.0402 -0.6675
   60MOL   C11525013   3.724   3.322   2.979 -0.5424  0.6700  0.2075
   60MOL   H11625014   3.844   4.105   2.977  2.1009 -0.4168 -1.7411
   60MOL   H11725015   3.828   3.947   3.051  0.3895 -0.5900 -0.4722
   60MOL   H11825016   3.667   4.031   2.813 -0.8932 -0.7749 -0.7179
   60MOL   H11925017   3.609   3.587   2.906 -1.8555 -0.2013 -0.5095
   60MOL   H12025018   3.506   3.589   3.053  0.5106  1.1480  1.1862
   60MOL   H12125019   3.817   3.578   3.034  0.6445 -1.2445 -0.3304
   60MOL   H12225020   3.720   3.601   3.181  0.6420  0.6492 -0.8347
   60MOL   H12325021   3.581   3.398   3.122 -0.7837  2.3304  0.2949
   60MOL   H12425022   3.737   3.387   3.190 -0.7932 -2.2923 -1.2072
   60MOL   H12525023   3.665   3.337   2.889 -1.1291  0.4943  0.5643
   60MOL   H12625024   3.697   3.224   3.017 -1.1810  1.1790  1.0826
   60MOL   H12725025   3.828   3.306   2.951 -1.2540 -1.1554 -1.5278
   60MOL   C12825026   3.578   4.057   3.012  0.0056 -0.4357  0.3560
   60MOL   C12925027   3.427   4.059   2.984  0.0673 -0.3511 -0.6900
   60MOL   C13025028   3.354   4.115   3.107  0.3671 -0.9118 -0.3890
   60MOL   O13125029   3.317   4.234   3.117  0.7100  0.4470 -0.4375
   60MOL   O13225030   3.345   4.019   3.199  0.1653 -0.2929 -0.5545
   60MOL   C13325031   3.290   4.060   3.321 -0.4653  0.2213 -0.5405
   60MOL   C13425032   3.135   4.075   3.330  0.5030  0.2996  0.0857
   60MOL   C13525033   3.074   4.120   3.458  0.5901 -0.3804 -0.7401
   60MOL   C13625034   2.924   4.148   3.476 -0.8466 -0.3489  0.0379
   60MOL   H13725035   3.616   4.159   3.008 -2.4828  0.5266  0.4476
   60MOL   H13825036   3.606   4.019   3.111 -1.0533  1.5906  1.4509
   60MOL   H13925037   3.389   3.957   2.981 -0.1920 -0.3261  1.5133
   60MOL   H14025038   3.338   4.152   3.355  0.3906  0.2883 -1.8907
   60MOL   H14125039   3.310   3.985   3.397 -0.0618  0.8763  0.0105
   60MOL   H14225040   3.108   4.139   3.246 -1.7439  2.1944  2.1897
   60MOL   H14325041   3.100   3.976   3.301  0.6254  0.3023 -0.0742
   60MOL   H14425042   3.125   4.215   3.475 -1.6222  1.6862 -4.8699
   60MOL   H14525043   3.097   4.058   3.544 -1.6408 -2.0627 -1.3108
   60MOL   H14625044   2.889   4.184   3.379 -0.0275  0.2101 -0.0581
   60MOL   H14725045   2.892   4.226   3.545 -2.2315 -0.7486 -0.1484
   60MOL   H14825046   2.867   4.056   3.488  0.6825 -1.2773  0.3736
   60MOL   C14925047   3.392   4.137   2.847 -0.1638  0.6308 -0.3478
   60MOL   C15025048   3.249   4.124   2.789 -0.0297 -0.0177 -0.0095
   60MOL   C15125049   3.219   4.253   2.713 -0.2615  0.3743 -0.7637
   60MOL   O15225050   3.151   4.347   2.761  0.1441 -0.5003 -0.2824
   60MOL   O15325051   3.277   4.256   2.589  0.0594  0.3806 -0.4040
   60MOL   C15425052   3.252   4.366   2.500 -0.7929 -0.4540 -0.2897
   60MOL   C15525053   3.348   4.488   2.528  0.0523  0.2104  0.4777
   60MOL   C15625054   3.348   4.590   2.411  0.0538  0.6484  0.2658
   60MOL   C15725055   3.452   4.694   2.434 -0.4450  0.0455 -0.2841
   60MOL   H15825056   3.463   4.111   2.769  0.1451 -0.1406  0.1875
   60MOL   H15925057   3.421   4.238   2.874  0.6749 -0.1469  1.8267
   60MOL   H16025058   3.179   4.121   2.874 -0.1840 -1.0809 -0.1630
   60MOL   H16125059   3.149   4.399   2.516 -0.9291 -0.9961 -0.0232
   60MOL   H16225060   3.252   4.338   2.395 -1.7520  1.4690 -0.8209
   60MOL   H16325061   3.310   4.543   2.614 -2.3730 -2.1530  0.9983
   60MOL   H16425062   3.445   4.446   2.553  0.8191  2.1655  0.9265
   60MOL   H16525063   3.253   4.641   2.396  0.2291  0.9727  0.2480
   60MOL   H16625064   3.381   4.555   2.313  0.7627  0.1628  0.6708
   60MOL   H16725065   3.450   4.748   2.529  4.5196 -0.8973  0.4815
   60MOL   H16825066   3.449   4.766   2.352  0.8254 -0.6158 -0.9287
   60MOL   H16925067   3.552   4.651   2.439  0.0195  1.1584  0.0566
   60MOL   C17025068   3.227   4.002   2.692 -0.5149  0.2393 -0.4966
   60MOL   C17125069   3.222   3.853   2.744 -0.3386 -0.1485 -0.4125
   60MOL   C17225070   3.111   3.837   2.848  0.0904  0.3286 -0.3533
   60MOL   O17325071   3.125   3.775   2.962  0.1108 -0.6103  0.2615
   60MOL   O17425072   2.991   3.890   2.816 -0.2036  0.0137  0.0596
   60MOL   C17525073   2.884   3.882   2.911 -0.2895  0.0434  0.5907
   60MOL   C17625074   2.894   4.001   3.019 -0.6573 -0.8570  0.8770
   60MOL   C17725075   2.848   4.137   2.960  0.5962  0.1133  0.2435
   60MOL   C17825076   2.871   4.249   3.065 -0.7224 -0.0861  1.2262
   60MOL   H17925077   3.302   4.013   2.613 -0.7145 -0.0568 -0.7305
   60MOL   H18025078   3.135   4.022   2.637 -0.4635  0.7238 -0.4105
   60MOL   H18125079   3.317   3.828   2.791  0.1390  0.7115 -0.9150
   60MOL   H18225080   2.876   3.786   2.962 -0.1641  0.2019  0.9183
   60MOL   H18325081   2.795   3.904   2.853 -0.7281 -0.3244  1.1263
   60MOL   H18425082   2.828   3.973   3.102 -0.5192  1.0336  1.6663
   60MOL   H18525083   2.992   4.003   3.066 -1.2912 -0.7823  2.2466
   60MOL   H18625084   2.743   4.123   2.936  0.4228  0.2891  0.9223
   60MOL   H18725085   2.907   4.149   2.869 -1.3443  1.4002 -0.8780
   60MOL   H18825086   2.882   4.348   3.020 -1.5828 -0.7806 -0.5721
   60MOL   H18925087   2.958   4.231   3.128  0.8785 -1.2047 -1.2210
   60MOL   H19025088   2.787   4.253   3.134 -0.0189 -1.0171  2.1625
   60MOL   C19125089   3.193   3.748   2.638  0.2350  0.2179 -0.9021
   60MOL   C19225090   3.259   3.609   2.664 -0.6839  0.2607  0.3404
   60MOL   C19325091   3.212   3.544   2.798  0.5533 -0.1776  0.5796
   60MOL   O19425092   3.279   3.539   2.902  0.2325  0.5172  0.0673
   60MOL   O19525093   3.075   3.517   2.794 -0.0249  0.1856 -0.0392
   60MOL   C19625094   3.015   3.480   2.920 -0.6322  0.8140  0.1741
   60MOL   C19725095   2.870   3.427   2.890  0.1835  0.8525  0.3784
   60MOL   C19825096   2.855   3.294   2.812  0.5138 -0.3698  0.7130
   60MOL   C19925097   2.732   3.214   2.845  0.0187 -1.3845  0.6952
   60MOL   H20025098   3.252   3.780   2.552  1.8546 -1.3843 -0.4274
   60MOL   H20125099   3.089   3.753   2.605 -0.1388 -4.2718 -0.7144
   60MOL   H20225100   3.365   3.632   2.663 -0.5621 -0.1781  2.1496
   60MOL   H20325101   3.013   3.567   2.986 -1.5311  1.4184 -0.6263
   60MOL   H20425102   3.073   3.403   2.970 -2.2877  1.1706  2.7098
   60MOL   H20525103   2.826   3.409   2.988  1.3141 -0.7450  0.6202
   60MOL   H20625104   2.807   3.507   2.852 -0.2504  0.6899  0.7574
   60MOL   H20725105   2.943   3.236   2.839  0.6092 -0.5208  0.0715
   60MOL   H20825106   2.868   3.311   2.705  1.0300 -0.2788  0.7888
   60MOL   H20925107   2.733   3.170   2.944 -2.0246  1.6121  2.1344
   60MOL   H21025108   2.700   3.146   2.766 -1.1119 -1.1192  0.9091
   60MOL   H21125109   2.656   3.291   2.855  2.4342  1.0192  1.2300
   60MOL   C21225110   3.256   3.511   2.539 -0.5649 -0.0930  0.3530
   60MOL   C21325111   3.385   3.438   2.504 -0.1406 -0.7266 -0.2876
   60MOL   C21425112   3.429   3.344   2.620  0.6754 -0.5899  0.5165
   60MOL   O21525113   3.541   3.346   2.677  0.3495  0.1019  0.0865
   60MOL   O21625114   3.333   3.268   2.651  0.6498  0.3244  0.2847
   60MOL   C21725115   3.352   3.161   2.743  0.2908  0.1809 -0.3679
   60MOL   C21825116   3.358   3.211   2.886 -0.2399 -0.4618 -0.2375
   60MOL   C21925117   3.387   3.099   2.983  0.1306  0.0470 -0.3289
   60MOL   C22025118   3.405   3.146   3.126 -0.4453  0.5533  0.1049
   60MOL   H22125119   3.228   3.572   2.452  0.6055  0.6897  0.5153
   60MOL   H22225120   3.170   3.446   2.554 -0.9594  0.3685  0.1416
   60MOL   H22325121   3.470   3.507   2.505 -0.4261 -0.3560 -1.0746
   60MOL   H22425122   3.435   3.099   2.711  1.4574  0.7245  1.5344
   60MOL   H22525123   3.270   3.094   2.718  0.6593 -0.5150  0.2968
   60MOL   H22625124   3.438   3.285   2.884 -1.3896  0.8748  2.0273
   60MOL   H22725125   3.266   3.263   2.912 -0.4290 -0.3134 -1.1876
   60MOL   H22825126   3.476   3.042   2.956 -0.2044 -0.5640 -0.1786
   60MOL   H22925127   3.309   3.024   2.971 -0.0947  0.0969  0.7330
   60MOL   H23025128   3.322   3.211   3.154 -1.3402 -0.6088  0.2006
   60MOL   H23125129   3.503   3.194   3.133 -0.4892  0.9040 -1.4850
   60MOL   H23225130   3.404   3.072   3.206  1.5221  0.1596 -0.2018
   60MOL   C23325131   3.388   3.349   2.366 -0.4134 -0.3149 -0.2364
   60MOL   C23425132   3.416   3.431   2.240 -0.5536 -0.2649  0.0042
   60MOL   C23525133   3.568   3.462   2.232  0.1240  0.3021  0.3327
   60MOL   O23625134   3.604   3.584   2.239  0.2288  0.0587 -0.4513
   60MOL   O23725135   3.646   3.359   2.213  0.2499  0.2470  0.2911
   60MOL   C23825136   3.788   3.381   2.193  0.7102  0.2215  0.6208
   60MOL   C23925137   3.846   3.242   2.154 -0.6255  0.1395  0.3422
   60MOL   C24025138   4.003   3.219   2.141  0.3764 -0.2428  0.2273
   60MOL   C24125139   4.053   3.084   2.082  0.2230  0.5651 -0.5588
   60MOL   H24225140   3.291   3.302   2.349 -1.0564  0.6533  0.7295
   60MOL   H24325141   3.455   3.264   2.375  2.2335  1.6873 -0.4360
   60MOL   H24425142   3.361   3.525   2.237  0.9229  0.5974 -0.6229
   60MOL   H24525143   3.834   3.401   2.290  1.6703 -0.5948  0.3389
   60MOL   H24625144   3.804   3.459   2.119 -1.6160 -0.2209 -0.3990
   60MOL   H24725145   3.816   3.164   2.224 -0.5053 -0.0388  0.1989
   60MOL   H24825146   3.795   3.212   2.062 -1.1953 -0.1715  0.7640
   60MOL   H24925147   4.047   3.223   2.241  1.5113 -1.0059 -0.2183
   60MOL   H25025148   4.050   3.303   2.089 -1.1036  0.1902 -0.4393
   60MOL   H25125149   4.044   3.081   1.974  2.7281 -0.6200 -0.7797
   60MOL   H25225150   3.985   3.005   2.115  1.1743  1.4372  3.8365
   60MOL   H25325151   4.148   3.044   2.118  0.2960  0.8764 -0.4050
   60MOL   C25425152   3.366   3.361   2.109 -0.6953 -0.6185 -0.3125
   60MOL   C25525153   3.219   3.308   2.095 -0.6112 -0.0796  0.8260
   60MOL   C25625154   3.117   3.415   2.134 -1.2424  0.6935 -0.1937
   60MOL   O25725155   3.105   3.512   2.065  0.2532 -0.5405  0.0868
   60MOL   O25825156   3.042   3.386   2.241 -0.1183 -0.7194  1.2416
   60MOL   C25925157   2.953   3.489   2.283 -0.5534 -0.2918  0.3505
   60MOL   C26025158   2.844   3.427   2.372  0.0359  0.4861 -0.1824
   60MOL   C26125159   2.766   3.544   2.439 -0.2915  0.5894 -0.1034
   60MOL   C26225160   2.670   3.472   2.540 -0.4371  0.1757 -0.4547
   60MOL   H26325161   3.430   3.276   2.086 -0.2302 -0.5648  0.7654
   60MOL   H26425162   3.378   3.421   2.019 -0.4512 -1.0868 -0.5972
   60MOL   H26525163   3.211   3.232   2.173 -0.3732 -0.9145  0.0464
   60MOL   H26625164   2.904   3.529   2.195 -1.4370  0.8975  1.3644
   60MOL   H26725165   3.006   3.574   2.325  1.7442  0.1712 -3.2728
   60MOL   H26825166   2.775   3.368   2.312  0.8948 -2.0494  1.2806
   60MOL   H26925167   2.878   3.357   2.448  1.2721  0.5835 -0.6268
   60MOL   H27025168   2.702   3.593   2.366 -1.1526  2.5568  1.9168
   60MOL   H27125169   2.831   3.615   2.491 -1.6438  0.3017  2.0562
   60MOL   H27225170   2.587   3.406   2.513 -0.2021 -0.4847  0.4131
   60MOL   H27325171   2.630   3.550   2.605  2.1419  0.8946  0.3267
   60MOL   H27425172   2.743   3.424   2.605 -0.5027 -2.1393 -2.0144
   60MOL   C27525173   3.200   3.248   1.954  0.5653 -0.0224  0.4003
   60MOL   C27625174   3.078   3.154   1.948  0.0827 -0.5435 -0.6752
   60MOL   C27725175   2.940   3.225   1.947 -0.0553  0.1374  0.0463
   60MOL   O27825176   2.858   3.216   2.039  0.2793  0.6394  0.2050
   60MOL   O27925177   2.913   3.285   1.827  0.1085  0.2880 -0.2614
   60MOL   C28025178   2.791   3.356   1.799  0.1559 -0.2990 -0.3527
   60MOL   C28125179   2.796   3.439   1.674 -0.1423  0.0063  0.1058
   60MOL   C28225180   2.890   3.560   1.662  1.1687 -0.2533 -0.2480
   60MOL   C28325181   2.844   3.656   1.550 -0.1374  0.2849 -0.2146
   60MOL   H28425182   3.289   3.192   1.926  0.2189 -0.9329  1.1044
   60MOL   H28525183   3.180   3.334   1.890  0.6212  2.3752  3.4948
   60MOL   H28625184   3.078   3.105   2.046 -0.4263  0.9201  0.0719
   60MOL   H28725185   2.767   3.419   1.884 -0.8854  1.3873 -1.8457
   60MOL   H28825186   2.705   3.292   1.779  0.5800 -0.5160 -1.5418
   60MOL   H28925187   2.808   3.371   1.590  0.8322 -1.3862  1.3599
   60MOL   H29025188   2.694   3.474   1.658 -0.0456  0.4923  0.5721
   60MOL   H29125189   2.986   3.519   1.632  0.5538  0.0573 -2.7154
   60MOL   H29225190   2.909   3.611   1.757 -0.9741 -0.1975  0.1706
   60MOL   H29325191   2.736   3.665   1.545 -0.1460 -0.2900 -1.1461
   60MOL   H29425192   2.888   3.614   1.459 -1.6983  1.4862 -1.5545
   60MOL   H29525193   2.890   3.755   1.557  1.7748 -0.6878  1.3491
   60MOL   C29625194   3.097   3.065   1.826 -0.0646  0.3398 -0.0893
   60MOL   C29725195   3.031   2.928   1.837 -0.3860 -0.6791  0.3242
   60MOL   C29825196   2.878   2.936   1.825 -0.1241 -0.4123 -0.1818
   60MOL   O29925197   2.802   2.891   1.911  0.3656  0.0582  0.2596
   60MOL   O30025198   2.830   2.989   1.711 -0.6037 -0.2211 -0.5367
   60MOL   C30125199   2.691   3.007   1.696 -0.4085 -0.0301 -0.2728
   60MOL   C30225200   2.656   3.054   1.563 -0.8772  0.1965  0.6970
   60MOL   C30325201   2.636   2.945   1.456 -0.1830  0.9257 -0.1716
   60MOL   C30425202   2.597   2.997   1.307 -0.7131 -0.2335 -0.3129
   60MOL   H30525203   3.203   3.046   1.809  0.0087  0.4905  0.1955
   60MOL   H30625204   3.068   3.112   1.732 -1.7734  0.3686  0.4285
   60MOL   H30725205   3.049   2.899   1.940 -2.4810  1.1593  1.2570
   60MOL   H30825206   2.655   3.074   1.774 -2.1453 -1.8332  0.5304
   60MOL   H30925207   2.637   2.917   1.727  1.0885 -1.1453 -0.8277
   60MOL   H31025208   2.565   3.113   1.559 -0.6079  0.4825 -1.9136
   60MOL   H31125209   2.738   3.122   1.540  1.4498 -2.4403  0.9049
   60MOL   H31225210   2.556   2.879   1.490 -0.8868 -0.3181 -4.0059
   60MOL   H31325211   2.731   2.897   1.435 -1.6605 -0.5677 -3.7681
   60MOL   H31425212   2.570   2.919   1.236  0.6904 -0.3343 -0.7613
   60MOL   H31525213   2.676   3.062   1.270  0.2206 -1.7771 -1.1215
   60MOL   H31625214   2.511   3.062   1.317 -0.7403  0.0868 -2.3420
   60MOL   C31725215   3.096   2.833   1.728 -0.5217  0.4607  0.2633
   60MOL   C31825216   3.210   2.748   1.772  0.0479  0.1977 -0.7370
   60MOL   C31925217   3.157   2.605   1.821 -0.2009  0.0422  0.3809
   60MOL   O32025218   3.190   2.498   1.768  0.4029 -0.2956 -0.0587
   60MOL   O32125219   3.083   2.618   1.932 -0.4875 -0.0063  0.8415
   60MOL   C32225220   3.041   2.502   2.004 -0.0357  0.0776  0.5693
   60MOL   C32325221   2.917   2.531   2.080 -0.1950 -0.4317  0.0323
   60MOL   C32425222   2.805   2.538   1.968 -0.6152 -0.2703  1.3135
   60MOL   C32525223   2.663   2.544   2.038  0.1842  0.0598 -0.2701
   60MOL   H32625224   3.126   2.889   1.639 -0.7057  1.0799  0.5929
   60MOL   H32725225   3.018   2.771   1.683 -0.1147  0.6679 -0.7490
   60MOL   H32825226   3.264   2.797   1.853 -1.7275 -0.1885  0.7201
   60MOL   H32925227   3.121   2.474   2.073 -0.1086 -0.5758  0.3937
   60MOL   H33025228   3.022   2.421   1.934 -2.6767  0.5453  0.6867
   60MOL   H33125229   2.896   2.451   2.152  1.2580 -0.1185  0.8086
   60MOL   H33225230   2.924   2.627   2.131  3.2624 -0.3404 -0.5199
   60MOL   H33325231   2.805   2.453   1.900 -1.0236 -0.3751  1.4487
   60MOL   H33425232   2.825   2.619   1.898  1.0075 -1.0362  0.8654
   60MOL   H33525233   2.662   2.614   2.121 -3.9521 -1.8470  1.4253
   60MOL   H33625234   2.644   2.450   2.090 -1.0421  1.0055  1.0317
   60MOL   H33725235   2.586   2.546   1.962 -0.4999 -0.1847  0.4104
   60MOL   C33825236   3.320   2.735   1.656  0.2240 -0.0644  0.2736
   60MOL   C33925237   3.274   2.658   1.526  0.0577 -0.6438 -0.3436
   60MOL   C34025238   3.257   2.760   1.411  0.5910 -0.1780  0.1553
   60MOL   O34125239   3.355   2.800   1.347  0.2553 -0.5240  0.2787
   60MOL   O34225240   3.134   2.793   1.384  0.3247  0.4438  0.2451
   60MOL   C34325241   3.106   2.895   1.287  0.6160 -0.8228 -0.1032
   60MOL   C34425242   3.021   3.011   1.352  1.1770 -0.5201  0.0149
   60MOL   C34525243   3.063   3.156   1.306 -0.1278 -0.6659 -0.5939
   60MOL   C34625244   2.973   3.266   1.361 -1.1865 -0.4869  0.1351
   60MOL   H34725245   3.402   2.676   1.698  1.1382  0.4308 -0.7906
   60MOL   H34825246   3.358   2.835   1.634 -0.8875  0.7777  2.0687
   60MOL   H34925247   3.181   2.603   1.538 -1.5637  1.9134 -0.7733
   60MOL   H35025248   3.050   2.842   1.210 -0.4191 -1.5338  1.1285
   60MOL   H35125249   3.196   2.930   1.235 -0.6447 -0.2529 -1.9360
   60MOL   H35225250   2.915   2.999   1.327  1.0473  1.3275 -0.3668
   60MOL   H35325251   3.028   3.005   1.461  3.2392 -0.9892 -0.1305
   60MOL   H35425252   3.071   3.168   1.198  1.2893  2.2680 -0.2021
   60MOL   H35525253   3.163   3.175   1.344 -0.3440 -0.1375 -0.2941
   60MOL   H35625254   3.000   3.364   1.320  2.7866 -0.7409  1.8940
   60MOL   H35725255   2.969   3.269   1.469  0.1029  0.5052  0.1764
   60MOL   H35825256   2.872   3.253   1.324 -0.4282 -1.6531 -1.6337
   60MOL   C35925257   3.373   2.542   1.484  0.3108 -0.3823 -0.5154
   60MOL   C36025258   3.335   2.453   1.372 -0.0990  0.3356  0.5948
   60MOL   C36125259   3.461   2.408   1.298 -0.4010  0.2623  0.3274
   60MOL   O36225260   3.526   2.311   1.335 -0.1537  0.5360  0.2743
   60MOL   O36325261   3.489   2.485   1.189  0.0397 -0.1102 -0.3364
   60MOL   C36425262   3.610   2.478   1.108 -0.0155  0.1347  0.2324
   60MOL   C36525263   3.693   2.611   1.122  0.3870  0.4188  0.1400
   60MOL   C36625264   3.800   2.628   1.015 -0.4962  0.2786 -0.3990
   60MOL   C36725265   3.852   2.779   1.027 -0.4485 -0.1502  0.3376
   60MOL   H36825266   3.391   2.482   1.573 -1.7518  1.1674  1.0026
   60MOL   H36925267   3.467   2.590   1.459 -0.6832  1.5672 -0.6558
   60MOL   H37025268   3.269   2.506   1.303  0.6418 -0.2116 -0.5429
   60MOL   H37125269   3.581   2.465   1.004 -0.3039  0.9335  0.2065
   60MOL   H37225270   3.669   2.388   1.124  1.3883  1.1935  1.1054
   60MOL   H37325271   3.624   2.695   1.129 -0.0843  0.3176 -2.5459
   60MOL   H37425272   3.737   2.611   1.222  1.2348 -0.0679 -0.2222
   60MOL   H37525273   3.767   2.599   0.916 -0.2163  0.2702 -0.4910
   60MOL   H37625274   3.883   2.560   1.035 -0.1002  0.9114  0.1727
   60MOL   H37725275   3.928   2.800   0.952  0.1891  0.5101  1.1568
   60MOL   H37825276   3.895   2.805   1.124 -0.3723  3.1818 -0.5183
   60MOL   H37925277   3.764   2.836   0.998 -0.2024 -0.3599 -0.8562
   60MOL   C38025278   3.255   2.335   1.423  0.4858 -0.3101 -0.2552
   60MOL   C38125279   3.153   2.272   1.324 -0.4278 -0.3255 -0.2216
   60MOL   C38225280   3.105   2.132   1.374  0.1828 -0.4074 -0.4051
   60MOL   O38325281   3.148   2.076   1.475 -0.1069  0.4972  0.0943
   60MOL   O38425282   3.013   2.081   1.292  0.0338  0.3144  0.4013
   60MOL   C38525283   2.943   1.963   1.320  0.3644  0.6633 -0.0523
   60MOL   C38625284   2.805   1.995   1.387  0.8567 -0.1263  0.1804
   60MOL   C38725285   2.717   2.071   1.282  0.6096  0.9250 -0.2767
   60MOL   C38825286   2.603   2.138   1.358  0.6842 -0.1138  0.4154
   60MOL   H38925287   3.198   2.359   1.513  0.1963  2.1841 -1.0466
   60MOL   H39025288   3.315   2.252   1.458 -0.7451 -1.3277 -0.5195
   60MOL   H39125289   3.203   2.259   1.228 -2.1248 -0.3912 -1.1166
   60MOL   H39225290   2.997   1.896   1.387  1.7640  0.4117 -1.3842
   60MOL   H39325291   2.920   1.906   1.230 -3.3783  0.1587  1.1572
   60MOL   H39425292   2.754   1.905   1.420  0.3106  0.1309  0.0339
   60MOL   H39525293   2.818   2.052   1.479  2.1443  2.0582 -1.3114
   60MOL   H39625294   2.688   2.008   1.198  2.2757 -0.2266 -0.0159
   60MOL   H39725295   2.772   2.146   1.224 -0.8399  2.2230 -0.0265
   60MOL   H39825296   2.538   2.058   1.395  0.0783  0.6669  1.0786
   60MOL   H39925297   2.543   2.199   1.290  0.4899  0.4677  1.0991
   60MOL   H40025298   2.645   2.201   1.436  0.0595  0.4407  0.3163
   60MOL   C40125299   3.029   2.367   1.305 -0.1605  0.0175 -0.1045
   60MOL   C40225300   2.950   2.382   1.431  0.2624 -0.3254 -0.6033
   60MOL   C40325301   2.841   2.490   1.429  0.2458 -0.0977 -0.0126
   60MOL   O40425302   2.817   2.540   1.324  0.1042  0.3644  0.3230
   60MOL   O40525303   2.796   2.528   1.552 -0.0045 -0.3454 -0.5907
   60MOL   C40625304   2.700   2.637   1.557 -0.5948  0.0546 -0.4396
   60MOL   C40725305   2.598   2.599   1.667 -1.2181 -0.2463  0.3740
   60MOL   C40825306   2.513   2.476   1.632 -0.0392 -0.7381 -0.2898
   60MOL   C40925307   2.398   2.439   1.719 -0.6521 -0.2296 -0.4820
   60MOL   H41025308   2.958   2.324   1.234  0.7546 -1.4409 -0.1672
   60MOL   H41125309   3.064   2.461   1.263  2.7749 -0.4063  1.2819
   60MOL   H41225310   3.007   2.413   1.519 -1.7557  0.3108  0.5075
   60MOL   H41325311   2.653   2.645   1.459  1.3689 -1.1075 -1.5377
   60MOL   H41425312   2.757   2.729   1.571 -0.8739  0.5960 -2.7035
   60MOL   H41525313   2.656   2.575   1.756 -0.9745 -0.3920  0.1761
   60MOL   H41625314   2.538   2.689   1.682 -0.4370  0.5994 -1.4875
   60MOL   H41725315   2.581   2.391   1.634  0.4961 -0.2836  1.1225
   60MOL   H41825316   2.485   2.493   1.527 -1.1349  0.7637  0.2278
   60MOL   H41925317   2.353   2.346   1.682 -0.0741 -0.0182 -1.7275
   60MOL   H42025318   2.313   2.507   1.728 -2.5574 -2.4027 -1.5170
   60MOL   H42125319   2.435   2.420   1.820 -2.9577 -0.5593  0.3365
   60MOL   H42225320   2.906   2.283   1.447 -1.2373  0.6197  1.3339
   61MOL     C125321   2.587   5.848   7.363  0.1206 -0.5484  0.1725
   61MOL     C225322   2.489   5.967   7.344 -0.6195  0.5029 -0.3967
   61MOL     C325323   2.536   6.099   7.387 -0.1185  0.7613 -0.0442
   61MOL     O425324   2.651   6.113   7.432  0.1672  0.5854  0.3241
   61MOL     O525325   2.430   6.198   7.384 -0.1604  0.4110  0.0696
   61MOL     C625326   2.453   6.328   7.451 -0.7099 -0.0025  0.2065
   61MOL     C725327   2.324   6.406   7.471 -0.0615 -0.2837  0.3619
   61MOL     C825328   2.212   6.337   7.542  0.2899  0.5513 -0.0737
   61MOL     C925329   2.082   6.406   7.535  0.4801  0.3800 -0.1283
   61MOL    H1025330   2.661   5.875   7.437  0.9191  1.3944 -1.2809
   61MOL    H1125331   2.542   5.761   7.411 -1.3125  0.2029  0.2131
   61MOL    H1225332   2.413   5.950   7.420 -0.5484  1.6392 -0.0581
   61MOL    H1325333   2.529   6.392   7.407 -1.1945  1.1673  1.0266
   61MOL    H1425334   2.484   6.313   7.555  0.5642  1.2896  0.0223
   61MOL    H1525335   2.341   6.498   7.527  1.8840 -0.9430  0.8810
   61MOL    H1625336   2.288   6.431   7.371 -0.0078  1.5370  0.7759
   61MOL    H1725337   2.235   6.307   7.644  1.5751 -0.4003 -0.6303
   61MOL    H1825338   2.204   6.245   7.484 -0.4156  0.0912  0.7434
   61MOL    H1925339   2.085   6.502   7.585 -3.5062 -0.2268  1.4625
   61MOL    H2025340   2.010   6.353   7.597  0.1345 -0.0436 -0.8742
   61MOL    H2125341   2.042   6.413   7.434 -0.2327 -0.5500  0.0786
   61MOL    H2225342   2.633   5.819   7.268 -0.8882  0.0447 -0.5037
   61MOL    C2325343   2.424   5.974   7.204 -0.7174 -0.1229 -0.8128
   61MOL    C2425344   2.344   5.850   7.172  0.4218 -0.8887 -0.2838
   61MOL    C2525345   2.209   5.844   7.253  0.3206 -0.3609 -0.1600
   61MOL    O2625346   2.166   5.948   7.309 -0.1439  0.1151  0.1362
   61MOL    O2725347   2.153   5.721   7.252 -0.4133 -0.3942 -0.2127
   61MOL    C2825348   2.025   5.701   7.309  0.3126 -0.5645 -0.2845
   61MOL    C2925349   1.922   5.713   7.201 -0.3150 -0.2906  0.0098
   61MOL    C3025350   1.955   5.624   7.076  0.0168 -0.3891  0.5846
   61MOL    C3125351   1.845   5.627   6.970  0.1914  0.4530 -0.0838
   61MOL    H3225352   2.511   5.986   7.140  1.5712 -2.2717  1.7932
   61MOL    H3325353   2.356   6.058   7.189 -1.1016 -0.2416  0.2541
   61MOL    H3425354   2.397   5.765   7.216 -1.4123 -1.8058  0.2014
   61MOL    H3525355   2.004   5.777   7.384  3.0921  0.1977 -0.2423
   61MOL    H3625356   2.023   5.600   7.349 -3.2058  0.0528  1.3643
   61MOL    H3725357   1.823   5.690   7.239  1.4012 -2.3172  3.5167
   61MOL    H3825358   1.912   5.815   7.166  2.3404 -0.5601 -1.6847
   61MOL    H3925359   1.960   5.518   7.102 -0.8294 -1.0436 -1.7946
   61MOL    H4025360   2.051   5.654   7.034 -0.4352  0.6047  0.2582
   61MOL    H4125361   1.739   5.623   6.997  0.1365  1.2867 -0.1456
   61MOL    H4225362   1.857   5.550   6.894  0.6206  0.2016  0.2410
   61MOL    H4325363   1.860   5.724   6.923 -1.3075 -0.1395 -1.8717
   61MOL    C4425364   2.339   5.816   7.018  0.8317 -0.5518  0.4889
   61MOL    C4525365   2.467   5.756   6.950  0.4863 -0.0320  0.1212
   61MOL    C4625366   2.499   5.609   6.997  0.0186 -0.2491 -0.2439
   61MOL    O4725367   2.504   5.521   6.915  0.1742 -0.2019 -0.0619
   61MOL    O4825368   2.512   5.590   7.128  0.0131  0.1783 -0.0055
   61MOL    C4925369   2.555   5.460   7.176 -0.0206  0.1805  0.3581
   61MOL    C5025370   2.661   5.473   7.289 -0.4136 -0.8112 -0.2119
   61MOL    C5125371   2.803   5.503   7.242  0.2617 -0.1345 -0.6744
   61MOL    C5225372   2.894   5.377   7.248  0.1603 -0.8819  0.6413
   61MOL    H5325373   2.306   5.902   6.960 -0.8346 -0.5214  1.4335
   61MOL    H5425374   2.265   5.739   6.999  0.1652  0.2715 -0.3116
   61MOL    H5525375   2.549   5.816   6.991  0.9471  0.6314 -1.7263
   61MOL    H5625376   2.600   5.395   7.102  0.7941 -0.0143  1.0194
   61MOL    H5725377   2.471   5.418   7.232  1.0823 -0.5300  1.5026
   61MOL    H5825378   2.627   5.556   7.352 -0.1155 -1.5198  0.9000
   61MOL    H5925379   2.662   5.392   7.362 -1.0665  0.3857  1.1722
   61MOL    H6025380   2.844   5.579   7.307  1.5915 -0.7625 -0.7517
   61MOL    H6125381   2.812   5.547   7.142  1.3523 -2.8931 -1.8541
   61MOL    H6225382   2.988   5.401   7.199  1.1122  0.5809  3.1318
   61MOL    H6325383   2.846   5.292   7.198  1.6394 -1.2392 -0.1900
   61MOL    H6425384   2.922   5.351   7.350 -2.6938 -0.4035  1.6069
   61MOL    C6525385   2.451   5.768   6.793  0.3579  0.4191 -0.3726
   61MOL    C6625386   2.583   5.784   6.722  0.7229 -0.2968 -0.1117
   61MOL    C6725387   2.581   5.745   6.579  0.0678  0.2085  0.1856
   61MOL    O6825388   2.484   5.690   6.531  0.4532 -0.1468  0.2773
   61MOL    O6925389   2.705   5.764   6.515 -0.1513 -0.1746  0.1846
   61MOL    C7025390   2.719   5.742   6.376 -0.6520  0.1908  0.2811
   61MOL    C7125391   2.755   5.588   6.360  0.1109 -0.1300  0.8461
   61MOL    C7225392   2.739   5.541   6.215  0.4766 -0.3021  0.7298
   61MOL    C7325393   2.748   5.390   6.199  0.0842  0.1223  0.4945
   61MOL    H7425394   2.390   5.855   6.771 -0.7806 -0.4262 -0.6278
   61MOL    H7525395   2.385   5.685   6.766  0.3820 -0.6107  2.5066
   61MOL    H7625396   2.648   5.709   6.767  0.5866  0.7144  1.8043
   61MOL    H7725397   2.799   5.811   6.349 -1.6393  1.3781  0.3300
   61MOL    H7825398   2.629   5.768   6.319 -0.1726 -0.2723 -0.6945
   61MOL    H7925399   2.857   5.569   6.393  0.2811 -1.5905 -0.4747
   61MOL    H8025400   2.692   5.534   6.430 -2.3123  1.3885 -0.0787
   61MOL    H8125401   2.809   5.581   6.142  0.7570 -1.2342  0.4713
   61MOL    H8225402   2.640   5.565   6.177  0.6423 -1.4098 -0.4403
   61MOL    H8325403   2.850   5.355   6.218  0.7039  2.0545  0.8207
   61MOL    H8425404   2.717   5.349   6.103  0.5027 -1.4002  0.9946
   61MOL    H8525405   2.689   5.342   6.276  0.6214  0.2552  0.9951
   61MOL    C8625406   2.647   5.922   6.737 -0.5816  0.0867  0.0395
   61MOL    C8725407   2.570   6.043   6.663 -1.0408  0.5522 -0.1949
   61MOL    C8825408   2.542   6.163   6.762  0.0977 -0.0598 -0.2029
   61MOL    O8925409   2.619   6.260   6.764 -0.4776  0.6757 -0.0229
   61MOL    O9025410   2.432   6.138   6.839 -0.3460 -0.3804 -0.7318
   61MOL    C9125411   2.390   6.238   6.931 -0.2880  0.7455  0.0826
   61MOL    C9225412   2.293   6.340   6.861  0.2843 -0.3500 -0.4512
   61MOL    C9325413   2.224   6.445   6.955 -0.1640 -0.5108 -0.2899
   61MOL    C9425414   2.132   6.521   6.864  0.0800  0.7295  0.3504
   61MOL    H9525415   2.751   5.920   6.703 -0.7511 -0.0372 -0.4707
   61MOL    H9625416   2.657   5.938   6.844 -0.1692 -0.8907  0.1510
   61MOL    H9725417   2.469   6.013   6.634 -1.4356  2.9263 -1.3999
   61MOL    H9825418   2.476   6.288   6.976  0.7935  0.3790 -1.5520
   61MOL    H9925419   2.325   6.204   7.012  3.7380  1.4975  3.7787
   61MOL   H10025420   2.367   6.395   6.803 -0.1401  0.3786 -0.3131
   61MOL   H10125421   2.216   6.288   6.804 -0.4735  0.7392 -0.4264
   61MOL   H10225422   2.303   6.508   6.994 -1.0018 -0.4045  1.3156
   61MOL   H10325423   2.173   6.391   7.036 -0.8949  0.9961  0.2746
   61MOL   H10425424   2.049   6.456   6.835 -1.8644  3.5111 -0.5106
   61MOL   H10525425   2.174   6.558   6.771 -0.8391  1.0706  0.0658
   61MOL   H10625426   2.089   6.610   6.909  0.9420  1.4146 -0.1665
   61MOL   C10725427   2.631   6.081   6.529 -0.8322  0.1852  0.0629
   61MOL   C10825428   2.563   6.204   6.456  0.5693 -0.0307  0.1121
   61MOL   C10925429   2.649   6.261   6.341  0.5672 -0.3129  0.3327
   61MOL   O11025430   2.714   6.190   6.262 -0.7347  0.1180 -0.3091
   61MOL   O11125431   2.651   6.392   6.361 -0.3686  0.1478 -0.3003
   61MOL   C11225432   2.757   6.464   6.297 -0.5175  0.3769 -0.5837
   61MOL   C11325433   2.749   6.610   6.329 -0.1334  0.3321 -0.5105
   61MOL   C11425434   2.870   6.683   6.272 -1.2181  0.0547 -0.8276
   61MOL   C11525435   2.870   6.839   6.276  0.5284 -0.2455 -0.4517
   61MOL   H11625436   2.627   5.996   6.461  0.6426  1.6420 -1.9231
   61MOL   H11725437   2.737   6.101   6.544 -0.8908 -0.1704  0.9589
   61MOL   H11825438   2.563   6.291   6.522  0.3006 -1.3471  1.9107
   61MOL   H11925439   2.762   6.445   6.190  2.2631  1.0198 -0.6116
   61MOL   H12025440   2.852   6.428   6.338 -1.4285 -1.7970 -0.3184
   61MOL   H12125441   2.656   6.648   6.287 -1.7627 -3.1893 -0.2709
   61MOL   H12225442   2.738   6.618   6.437 -1.6076 -0.1879 -0.6078
   61MOL   H12325443   2.898   6.648   6.173  0.2889  0.4173 -0.5468
   61MOL   H12425444   2.956   6.654   6.332 -0.4329  1.4002 -1.2912
   61MOL   H12525445   2.964   6.877   6.236  0.5390  0.1452 -0.0623
   61MOL   H12625446   2.864   6.875   6.379  0.2267  0.7269 -0.7996
   61MOL   H12725447   2.793   6.877   6.209 -1.5386  1.1687  2.6359
   61MOL   C12825448   2.416   6.185   6.413 -0.7471  0.1188  0.2419
   61MOL   C12925449   2.385   6.064   6.309 -0.0679 -0.3131  0.4959
   61MOL   C13025450   2.311   5.949   6.376  0.4264  0.4264  0.8963
   61MOL   O13125451   2.257   5.958   6.484 -0.7027 -0.3157  0.0951
   61MOL   O13225452   2.311   5.844   6.304 -0.4391  0.0789  0.0770
   61MOL   C13325453   2.227   5.734   6.341  0.4453 -0.3682  0.0319
   61MOL   C13425454   2.285   5.614   6.267 -0.4197 -0.3511  0.0462
   61MOL   C13525455   2.282   5.629   6.116  0.5692  0.0156 -0.0745
   61MOL   C13625456   2.328   5.502   6.053 -0.6793  0.2260 -0.3140
   61MOL   H13725457   2.383   6.280   6.370 -0.4834  0.0527 -0.1029
   61MOL   H13825458   2.357   6.170   6.503 -0.3186  0.4388  0.5753
   61MOL   H13925459   2.473   6.008   6.276  0.8342  0.8975  0.8396
   61MOL   H14025460   2.126   5.766   6.317  0.9407  1.2293  0.0137
   61MOL   H14125461   2.217   5.703   6.445  0.7566  2.2561  0.8911
   61MOL   H14225462   2.385   5.595   6.307 -0.4178 -0.0318  0.1938
   61MOL   H14325463   2.216   5.533   6.288  0.6225 -1.2151  0.1747
   61MOL   H14425464   2.349   5.710   6.086  0.7420  0.2562  0.9425
   61MOL   H14525465   2.181   5.652   6.082  0.6655  0.0358 -0.3545
   61MOL   H14625466   2.436   5.487   6.051 -0.9650 -2.0906 -4.2565
   61MOL   H14725467   2.310   5.506   5.945  1.4782  0.8814 -0.6793
   61MOL   H14825468   2.279   5.413   6.092  0.5890 -0.7047 -0.7966
   61MOL   C14925469   2.301   6.128   6.194 -0.7156  0.0093 -0.0097
   61MOL   C15025470   2.392   6.149   6.067 -0.0922 -0.2053  0.3138
   61MOL   C15125471   2.432   6.014   6.002 -0.0800  0.3922 -0.0499
   61MOL   O15225472   2.346   5.946   5.940 -0.1903  0.3484  0.2549
   61MOL   O15325473   2.557   5.988   6.016  0.4306  0.4971  0.1925
   61MOL   C15425474   2.610   5.877   5.942 -0.1998  0.5273 -0.4174
   61MOL   C15525475   2.754   5.860   5.998 -0.7171  0.0617 -0.5069
   61MOL   C15625476   2.855   5.974   5.981 -0.0839  0.3373  0.5245
   61MOL   C15725477   2.972   5.937   6.063  0.0826 -0.2629  0.6070
   61MOL   H15825478   2.249   6.220   6.222 -0.0164  0.3923  0.0382
   61MOL   H15925479   2.215   6.065   6.172 -0.6631  0.4750 -1.6307
   61MOL   H16025480   2.490   6.188   6.096 -0.8059  1.1921  0.8922
   61MOL   H16125481   2.624   5.905   5.838 -0.5044  1.1153 -0.3057
   61MOL   H16225482   2.545   5.790   5.936  0.0547  0.4809 -2.9294
   61MOL   H16325483   2.729   5.864   6.104 -1.2406  1.8310 -0.6946
   61MOL   H16425484   2.795   5.763   5.968 -1.4502  0.5736 -3.2815
   61MOL   H16525485   2.811   6.068   6.013 -0.7453 -0.0550  0.7817
   61MOL   H16625486   2.886   5.987   5.877 -1.0910  0.4910  0.2348
   61MOL   H16725487   2.944   5.936   6.169  1.6029  2.3401  1.0856
   61MOL   H16825488   3.056   6.006   6.060  0.0574 -0.2487  0.1875
   61MOL   H16925489   3.007   5.840   6.030  0.6920  0.2784 -0.3641
   61MOL   C17025490   2.336   6.238   5.965 -0.9684 -0.8618  0.1393
   61MOL   C17125491   2.335   6.392   6.009 -0.1922  0.5025  0.0192
   61MOL   C17225492   2.475   6.445   6.010 -0.7970 -0.2819  0.1358
   61MOL   O17325493   2.513   6.515   6.103  0.4478 -0.1624  0.2620
   61MOL   O17425494   2.558   6.411   5.911 -0.0756 -0.2274  0.1744
   61MOL   C17525495   2.688   6.453   5.902  0.4881 -0.2978  0.1172
   61MOL   C17625496   2.783   6.338   5.883 -0.9925  0.1866 -0.3577
   61MOL   C17725497   2.930   6.376   5.864 -0.3143 -0.5583 -0.1539
   61MOL   C17825498   3.027   6.262   5.834 -0.8970 -0.3198 -0.1534
   61MOL   H17925499   2.239   6.202   5.931 -1.6785  0.3049  0.8951
   61MOL   H18025500   2.397   6.229   5.874 -0.6222  1.0255  0.1786
   61MOL   H18125501   2.306   6.385   6.114  1.3286  0.1677  0.4242
   61MOL   H18225502   2.725   6.518   5.982 -0.2489 -1.6193  1.5580
   61MOL   H18325503   2.700   6.518   5.815 -0.7876  1.0322  0.9123
   61MOL   H18425504   2.771   6.275   5.971 -1.6285  1.1263  0.2454
   61MOL   H18525505   2.739   6.277   5.804  0.3357 -0.9944 -0.2110
   61MOL   H18625506   2.959   6.426   5.957 -2.6694 -2.2842  1.5891
   61MOL   H18725507   2.935   6.456   5.790 -1.2500  1.5705  1.9803
   61MOL   H18825508   3.004   6.223   5.735  1.1005  0.0335 -0.7676
   61MOL   H18925509   3.033   6.187   5.912 -0.9266  0.5905  0.7316
   61MOL   H19025510   3.131   6.292   5.819 -1.2862  0.5903 -1.0606
   61MOL   C19125511   2.234   6.476   5.936 -0.1260 -0.0094  0.0190
   61MOL   C19225512   2.260   6.519   5.785 -0.1508  0.1262  0.3779
   61MOL   C19325513   2.211   6.410   5.688 -0.5810  0.1893  0.6847
   61MOL   O19425514   2.120   6.336   5.717  0.3398  0.0473  0.4440
   61MOL   O19525515   2.286   6.410   5.577 -0.1037  0.1920  0.1819
   61MOL   C19625516   2.278   6.301   5.482 -0.9855  0.1286  0.7453
   61MOL   C19725517   2.418   6.232   5.465  0.1180 -0.8557 -0.3156
   61MOL   C19825518   2.471   6.172   5.594 -0.3138  0.0055 -0.8865
   61MOL   C19925519   2.600   6.101   5.565  0.7640  0.2558 -0.1302
   61MOL   H20025520   2.242   6.567   5.996 -2.2256  0.9306 -1.0590
   61MOL   H20125521   2.131   6.444   5.945 -0.5360  1.6731  1.5703
   61MOL   H20225522   2.366   6.539   5.774  0.2305 -0.9894  1.8194
   61MOL   H20325523   2.251   6.343   5.385 -0.9362  0.0696  0.7069
   61MOL   H20425524   2.203   6.224   5.500  0.5987 -1.3094  1.3425
   61MOL   H20525525   2.420   6.152   5.392 -0.0178 -0.6587 -0.5369
   61MOL   H20625526   2.470   6.322   5.431 -2.2845  1.3031  1.5129
   61MOL   H20725527   2.395   6.104   5.631 -1.7433  0.9800 -1.9618
   61MOL   H20825528   2.480   6.256   5.663 -1.5646 -0.2352 -0.4110
   61MOL   H20925529   2.576   5.999   5.536 -1.3419  0.0512  2.1299
   61MOL   H21025530   2.659   6.104   5.656  2.1379  0.5765 -1.0215
   61MOL   H21125531   2.665   6.153   5.495 -0.3628  0.9631 -0.6734
   61MOL   C21225532   2.181   6.650   5.768 -0.4264  0.3619  0.7159
   61MOL   C21325533   2.197   6.730   5.638 -0.1365 -0.8533  0.0884
   61MOL   C21425534   2.109   6.855   5.636 -0.3432 -0.0278  0.0559
   61MOL   O21525535   2.043   6.885   5.536  0.4281 -0.1317 -0.1089
   61MOL   O21625536   2.126   6.929   5.748  0.0367  0.0355 -0.7462
   61MOL   C21725537   2.054   7.050   5.761 -0.6220  0.2370 -0.2845
   61MOL   C21825538   2.123   7.138   5.866  0.5093 -0.1741  0.3463
   61MOL   C21925539   2.087   7.093   6.005  1.1041  0.5163 -0.2592
   61MOL   C22025540   2.104   7.204   6.117  0.6028  0.3983 -0.5719
   61MOL   H22125541   2.209   6.725   5.842  0.1247  0.7962  0.0746
   61MOL   H22225542   2.075   6.633   5.784 -0.3654 -0.7720  0.0023
   61MOL   H22325543   2.169   6.678   5.546  1.2439 -0.0702 -0.8027
   61MOL   H22425544   1.951   7.026   5.788 -0.7441 -0.7542 -1.5734
   61MOL   H22525545   2.043   7.098   5.664  2.1556  0.6362 -0.4260
   61MOL   H22625546   2.232   7.137   5.855  0.6323  1.3341  1.3862
   61MOL   H22725547   2.089   7.241   5.856 -0.3065 -0.3740  0.9925
   61MOL   H22825548   2.155   7.009   6.023 -1.5876 -1.2410  1.9879
   61MOL   H22925549   1.983   7.066   5.993  1.2107 -0.9934  2.0767
   61MOL   H23025550   2.053   7.298   6.095 -1.2373 -0.0951  1.4295
   61MOL   H23125551   2.200   7.227   6.166 -0.2102 -0.6254  1.5593
   61MOL   H23225552   2.050   7.172   6.207 -0.7627  2.6463 -0.5519
   61MOL   C23325553   2.343   6.770   5.612 -0.8668  0.2546 -0.0647
   61MOL   C23425554   2.415   6.884   5.686 -0.5772  0.0177 -0.8598
   61MOL   C23525555   2.456   6.840   5.833  0.0042 -0.2973 -0.1419
   61MOL   O23625556   2.547   6.755   5.857  0.8527  0.0562  0.0262
   61MOL   O23725557   2.386   6.908   5.929  0.5256  0.1614 -0.5921
   61MOL   C23825558   2.432   6.906   6.060 -0.2366  0.1601 -0.4208
   61MOL   C23925559   2.557   6.999   6.078  0.2699  0.1183  0.2626
   61MOL   C24025560   2.543   7.150   6.050  0.4516 -0.1480  0.1350
   61MOL   C24125561   2.671   7.227   6.087 -0.6100  0.1195 -0.2010
   61MOL   H24225562   2.346   6.813   5.512  0.8059 -2.2509 -1.1362
   61MOL   H24325563   2.413   6.687   5.615  1.2441  1.9725  0.1451
   61MOL   H24425564   2.343   6.965   5.705 -0.3957  0.2584 -1.2050
   61MOL   H24525565   2.461   6.806   6.089 -3.5464 -0.7619 -0.0372
   61MOL   H24625566   2.352   6.938   6.127  2.2167  0.2717  2.5692
   61MOL   H24725567   2.591   6.978   6.180 -0.3804 -0.2819  0.3977
   61MOL   H24825568   2.648   6.956   6.036  1.3326  0.1835  2.4088
   61MOL   H24925569   2.454   7.177   6.106 -1.0416 -0.0043 -2.2212
   61MOL   H25025570   2.526   7.168   5.944  2.7170  0.1413 -0.2083
   61MOL   H25125571   2.756   7.179   6.038 -0.4923  0.4937 -0.3669
   61MOL   H25225572   2.684   7.243   6.194  0.2835 -0.7680 -0.1655
   61MOL   H25325573   2.670   7.328   6.047  0.7580 -0.0357 -0.6452
   61MOL   C25425574   2.542   6.941   5.619  0.2738 -0.1067  0.5614
   61MOL   C25525575   2.544   7.043   5.501  0.5386 -0.1326 -0.0624
   61MOL   C25625576   2.456   7.164   5.533  0.2655 -0.1165 -0.0118
   61MOL   O25725577   2.499   7.274   5.567 -0.1503  0.2459  0.4853
   61MOL   O25825578   2.332   7.136   5.496  0.2129  0.2591 -0.0831
   61MOL   C25925579   2.229   7.238   5.496 -0.8954  0.7556 -0.2892
   61MOL   C26025580   2.241   7.312   5.362 -0.1688 -0.3205  0.4050
   61MOL   C26125581   2.329   7.255   5.251  0.2178  0.4976  0.3657
   61MOL   C26225582   2.307   7.325   5.110 -0.7431 -0.1594 -0.7873
   61MOL   H26325583   2.609   6.860   5.590 -0.7540  0.1885 -2.7814
   61MOL   H26425584   2.592   6.996   5.698 -0.9653  0.1097  1.2102
   61MOL   H26525585   2.501   6.988   5.417  0.3392  2.3949 -1.6560
   61MOL   H26625586   2.234   7.302   5.584  0.2638 -1.6172  1.4123
   61MOL   H26725587   2.137   7.181   5.509 -0.1255  0.1040  2.5982
   61MOL   H26825588   2.139   7.335   5.330  0.9419  1.8475 -1.7532
   61MOL   H26925589   2.277   7.414   5.381 -1.6404  0.4876 -1.0636
   61MOL   H27025590   2.317   7.147   5.237  1.3590  0.4260 -0.1474
   61MOL   H27125591   2.433   7.265   5.283  0.4572  1.9590 -0.8180
   61MOL   H27225592   2.201   7.316   5.087 -0.5953 -2.4918 -0.7202
   61MOL   H27325593   2.369   7.274   5.036  0.5577  0.9520 -0.4807
   61MOL   H27425594   2.344   7.426   5.123  0.0377 -0.5865  0.4112
   61MOL   C27525595   2.698   7.087   5.482 -0.0637 -0.3321 -0.2083
   61MOL   C27625596   2.767   6.998   5.374  0.0288 -0.0281  0.5179
   61MOL   C27725597   2.714   7.015   5.233  0.1225  1.0179 -0.1791
   61MOL   O27825598   2.655   6.927   5.163  0.0223 -0.0049 -0.1729
   61MOL   O27925599   2.728   7.133   5.194  0.5179  0.6130  0.3179
   61MOL   C28025600   2.685   7.177   5.063 -0.6394  0.7189 -0.3892
   61MOL   C28125601   2.803   7.214   4.979 -0.1917 -0.2195 -0.0542
   61MOL   C28225602   2.879   7.089   4.927 -0.6431 -0.0152  0.3062
   61MOL   C28325603   2.992   7.126   4.832 -0.2465  0.2652  0.1063
   61MOL   H28425604   2.759   7.082   5.572  0.0727 -0.1959 -0.2930
   61MOL   H28525605   2.703   7.189   5.444 -0.4395  0.9815  3.1245
   61MOL   H28625606   2.741   6.893   5.388  0.4678 -0.1852  0.1487
   61MOL   H28725607   2.633   7.271   5.085  0.6581  1.2567  0.4523
   61MOL   H28825608   2.614   7.117   5.006  0.4699 -0.2936 -0.7121
   61MOL   H28925609   2.777   7.271   4.890  2.3736 -1.0148 -1.3829
   61MOL   H29025610   2.874   7.279   5.031  0.8032 -1.7192  0.5088
   61MOL   H29125611   2.814   7.014   4.882  1.0660 -0.8611 -0.8225
   61MOL   H29225612   2.930   7.033   5.005  4.5032  1.9986 -1.3722
   61MOL   H29325613   3.038   7.223   4.850  1.4312 -0.4378 -0.3510
   61MOL   H29425614   2.947   7.125   4.733  0.2863  1.8734 -0.1538
   61MOL   H29525615   3.067   7.048   4.834  0.6982  1.1316 -1.0250
   61MOL   C29625616   2.929   7.003   5.363  0.7267  0.0092  0.2984
   61MOL   C29725617   2.998   7.138   5.365  0.0207  0.5530 -0.7221
   61MOL   C29825618   3.007   7.198   5.504 -0.5287  0.4430 -0.5772
   61MOL   O29925619   2.995   7.321   5.522  0.6210 -0.4369  0.2079
   61MOL   O30025620   3.017   7.103   5.606  0.0487 -0.0108 -0.0397
   61MOL   C30125621   2.995   7.145   5.731  0.3079  0.0452  0.1898
   61MOL   C30225622   2.987   7.041   5.846  0.1730 -0.2693  0.4244
   61MOL   C30325623   2.869   6.941   5.831  0.6339 -0.3533  0.5472
   61MOL   C30425624   2.902   6.812   5.917 -0.5273 -0.1066  0.1798
   61MOL   H30525625   2.969   6.966   5.269 -0.6829  2.0408 -1.1435
   61MOL   H30625626   2.964   6.934   5.440  1.9548  0.5590  0.2407
   61MOL   H30725627   2.939   7.214   5.314 -1.8413  0.4053  1.1338
   61MOL   H30825628   2.909   7.212   5.738 -1.5217 -2.0136 -1.6799
   61MOL   H30925629   3.079   7.210   5.755  0.6108 -0.2167 -0.1552
   61MOL   H31025630   3.079   6.984   5.832 -0.0485 -1.0250  1.8934
   61MOL   H31125631   2.983   7.097   5.940 -0.4300  0.1630  0.1431
   61MOL   H31225632   2.867   6.909   5.726  1.7656 -0.5055  0.5702
   61MOL   H31325633   2.768   6.973   5.860  2.3078  0.7223  5.6984
   61MOL   H31425634   2.967   6.756   5.850 -0.3721  3.8695 -3.1962
   61MOL   H31525635   2.817   6.744   5.919  0.8345 -1.8177  0.9819
   61MOL   H31625636   2.925   6.830   6.022 -1.5313 -1.8794  0.7207
   61MOL   C31725637   3.143   7.142   5.300 -0.4663  0.9739 -0.1124
   61MOL   C31825638   3.213   7.275   5.275  0.3233  0.4079  0.1099
   61MOL   C31925639   3.361   7.252   5.216  0.5905 -0.1027 -0.7472
   61MOL   O32025640   3.457   7.309   5.270 -0.3561  0.2576  0.2303
   61MOL   O32125641   3.358   7.164   5.112  0.0532 -0.0419 -0.0473
   61MOL   C32225642   3.477   7.146   5.042  0.2504 -0.5762  0.1002
   61MOL   C32325643   3.449   7.046   4.931 -0.1501 -0.1080 -0.2958
   61MOL   C32425644   3.385   7.111   4.805  0.6215  0.3731  0.0910
   61MOL   C32525645   3.339   7.012   4.701 -0.4467 -0.0822 -0.1344
   61MOL   H32625646   3.130   7.087   5.207  1.5377  0.1571  0.0485
   61MOL   H32725647   3.223   7.089   5.354  0.3708  1.2128 -1.1104
   61MOL   H32825648   3.229   7.323   5.372 -0.0894 -0.0675  0.4114
   61MOL   H32925649   3.555   7.102   5.104 -0.3534 -1.4530  0.2462
   61MOL   H33025650   3.514   7.243   5.010 -0.6214 -0.0920  0.5323
   61MOL   H33125651   3.547   7.013   4.895  0.0282  1.8329 -1.6618
   61MOL   H33225652   3.391   6.961   4.967 -1.4010  0.4960 -0.8621
   61MOL   H33325653   3.447   7.178   4.746  1.7136  0.0270  0.8256
   61MOL   H33425654   3.298   7.165   4.843  0.1884  0.2745 -0.7573
   61MOL   H33525655   3.421   6.971   4.642 -1.8617 -2.6999 -0.3748
   61MOL   H33625656   3.254   7.044   4.640  0.0344  0.5882 -0.4516
   61MOL   H33725657   3.302   6.928   4.760 -0.3601 -0.5900 -0.7819
   61MOL   C33825658   3.123   7.365   5.177 -0.3691  0.7007 -0.3942
   61MOL   C33925659   3.191   7.492   5.136 -0.1110 -0.1898  0.4296
   61MOL   C34025660   3.208   7.512   4.987 -0.3521 -0.6783 -0.2116
   61MOL   O34125661   3.318   7.515   4.936 -0.2735 -0.1986 -0.3879
   61MOL   O34225662   3.085   7.534   4.925 -0.7655  0.0830 -0.5134
   61MOL   C34325663   3.080   7.555   4.791 -0.0928 -0.3617 -0.3171
   61MOL   C34425664   2.965   7.641   4.752  0.4004  0.0584  0.8366
   61MOL   C34525665   2.971   7.777   4.827 -0.6388  0.4406 -0.1901
   61MOL   C34625666   2.888   0.036   4.776  0.3045 -0.1573  0.3601
   61MOL   H34725667   3.039   7.389   5.242  0.0428  0.3587  0.2660
   61MOL   H34825668   3.087   7.320   5.084  0.6240  1.0388 -0.9557
   61MOL   H34925669   3.294   7.483   5.173 -0.4603 -3.7807  0.7024
   61MOL   H35025670   3.076   7.454   4.748  2.4124 -0.7990  0.4016
   61MOL   H35125671   3.177   7.590   4.757 -0.1314  0.4963  0.4456
   61MOL   H35225672   2.965   7.647   4.643 -2.4769  2.6767  0.9324
   61MOL   H35325673   2.873   7.587   4.772  0.4998 -0.7401 -0.7876
   61MOL   H35425674   3.073   7.814   4.831 -0.6762  0.4094  1.5041
   61MOL   H35525675   2.941   7.769   4.932  0.7473 -0.8873  0.1318
   61MOL   H35625676   2.885   0.119   4.846 -0.1752  0.3697 -0.2773
   61MOL   H35725677   2.789   7.847   4.760  1.0543 -1.3729 -1.2543
   61MOL   H35825678   2.923   0.082   4.683 -2.9969 -1.4016 -1.5714
   61MOL   C35925679   3.128   7.621   5.199 -0.3906  0.4949 -0.1064
   61MOL   C36025680   3.190   7.758   5.149 -0.3309 -0.0003 -0.5312
   61MOL   C36125681   3.084   0.013   5.152  0.3175 -0.4646  1.0102
   61MOL   O36225682   3.097   0.113   5.075 -0.6797 -0.2499 -0.1215
   61MOL   O36325683   3.002   0.006   5.250  0.0817  0.0792  0.2484
   61MOL   C36425684   2.922   0.113   5.287  0.2956 -0.2070  0.0680
   61MOL   C36525685   2.901   0.105   5.436  0.2000  0.0035  0.2396
   61MOL   C36625686   2.782   0.194   5.484 -0.1135 -0.3538  0.1915
   61MOL   C36725687   2.796   0.338   5.450  0.1250  0.1182  0.2435
   61MOL   H36825688   3.128   7.602   5.307  1.7922 -0.4169 -0.2438
   61MOL   H36925689   3.021   7.617   5.179 -0.1402 -0.6879 -1.2318
   61MOL   H37025690   3.229   7.743   5.049  0.7245 -2.0651  0.1484
   61MOL   H37125691   2.827   0.111   5.233  0.7333  1.9904 -0.8401
   61MOL   H37225692   2.973   0.206   5.264  1.6488 -0.9454  0.0551
   61MOL   H37325693   2.881   0.002   5.466 -2.4004  0.5496  0.5615
   61MOL   H37425694   2.990   0.141   5.487 -0.6022 -0.0085  1.7008
   61MOL   H37525695   2.774   0.201   5.592  2.7559  1.2379  0.3484
   61MOL   H37625696   2.687   0.159   5.443 -0.7102  3.2294 -1.7262
   61MOL   H37725697   2.840   0.359   5.353 -0.0246 -2.0281 -0.2958
   61MOL   H37825698   2.833   0.409   5.525  0.4737 -0.7433  0.8925
   61MOL   H37925699   2.698   0.375   5.421  0.1553 -0.0830 -0.1092
   61MOL   C38025700   3.313   7.801   5.231 -0.4610 -0.1843 -0.8827
   61MOL   C38125701   3.416   0.026   5.155 -0.4433 -1.1647 -0.3302
   61MOL   C38225702   3.479   0.142   5.235  0.6461 -0.2643 -0.0176
   61MOL   O38325703   3.487   0.254   5.185  0.2999  0.7673  0.0744
   61MOL   O38425704   3.536   0.096   5.342 -0.2804 -0.3837 -0.1745
   61MOL   C38525705   3.613   0.183   5.420  0.7496  0.3450  0.2497
   61MOL   C38625706   3.746   0.127   5.448 -0.2797  0.5018  0.0143
   61MOL   C38725707   3.842   0.173   5.336  0.0528 -0.2822 -0.2323
   61MOL   C38825708   3.983   0.122   5.362 -0.0962 -0.0549 -0.0453
   61MOL   H38925709   3.361   7.715   5.278  0.8727  0.6941 -0.6104
   61MOL   H39025710   3.265   0.011   5.306 -0.9069  0.1283 -1.4314
   61MOL   H39125711   3.368   0.071   5.068  0.2562  0.7159  0.2383
   61MOL   H39225712   3.553   0.189   5.511 -0.9156 -0.5632 -0.7761
   61MOL   H39325713   3.627   0.280   5.373 -0.0827  0.5726  0.4640
   61MOL   H39425714   3.776   0.150   5.550  0.9369  1.9366 -0.6369
   61MOL   H39525715   3.747   0.019   5.463 -1.2990  0.4033 -0.5485
   61MOL   H39625716   3.824   0.280   5.325  1.3706 -0.2628 -2.2992
   61MOL   H39725717   3.811   0.131   5.241  0.5721  0.5920 -0.7886
   61MOL   H39825718   4.016   0.152   5.462 -3.2949  5.1924 -0.3967
   61MOL   H39925719   4.033   0.157   5.273  0.9189  0.6025  0.7736
   61MOL   H40025720   3.975   0.013   5.364 -1.7610  0.0662  2.3807
   61MOL   C40125721   3.514   7.781   5.102  0.3776  0.1352  0.6117
   61MOL   C40225722   3.606   7.829   4.988 -1.1362  0.0216  0.3430
   61MOL   C40325723   3.546   7.829   4.852  0.5150 -0.5159  0.3441
   61MOL   O40425724   3.436   7.778   4.834 -0.0727 -0.0634 -0.2727
   61MOL   O40525725   3.620   0.037   4.765 -0.5035 -0.1351  0.6086
   61MOL   C40625726   3.584   0.045   4.627 -0.0145 -0.1362  0.1717
   61MOL   C40725727   3.701   0.108   4.549  0.5560  0.1471 -0.1284
   61MOL   C40825728   3.682   0.105   4.393 -0.4377  0.4619  0.4929
   61MOL   C40925729   3.790   0.173   4.306 -0.0483 -0.4180  0.7063
   61MOL   H41025730   3.454   7.694   5.074 -0.1290  1.1004 -1.3845
   61MOL   H41125731   3.586   7.738   5.172  2.4194  0.0167 -1.4744
   61MOL   H41225732   3.687   7.756   4.984 -1.4849 -0.3161 -1.0732
   61MOL   H41325733   3.491   0.101   4.616  2.0124  3.3321  0.1226
   61MOL   H41425734   3.561   7.799   4.588  1.6606 -0.0497 -1.0815
   61MOL   H41525735   3.721   0.206   4.591  1.1865 -0.6013  1.3725
   61MOL   H41625736   3.790   0.048   4.571 -0.0347 -0.5343  0.4365
   61MOL   H41725737   3.580   0.138   4.374 -0.8471 -0.5091  0.9656
   61MOL   H41825738   3.679   7.850   4.385 -0.6920  0.3613  1.7865
   61MOL   H41925739   3.775   0.142   4.202  2.1030 -2.8738  1.0781
   61MOL   H42025740   3.892   0.141   4.326 -0.1479  0.1209  2.1275
   61MOL   H42125741   3.796   0.281   4.306  1.3722 -0.4847 -0.7148
   61MOL   H42225742   3.665   0.067   4.991  0.4991 -0.9867 -0.3144
   62MOL     C125743   6.829   2.919   5.707  0.3919  0.2302  0.2142
   62MOL     C225744   6.826   2.799   5.807 -1.0677  0.2331  0.4123
   62MOL     C325745   6.760   2.826   5.940  0.2539  0.1536 -0.2287
   62MOL     O425746   6.661   2.896   5.943 -0.0452  0.3734  0.4106
   62MOL     O525747   6.825   2.780   6.040 -0.3732  0.7924  0.2648
   62MOL     C625748   6.785   2.821   6.172 -0.4405 -0.1706  0.0185
   62MOL     C725749   6.822   2.721   6.277 -0.2030  0.3512 -0.0383
   62MOL     C825750   6.971   2.710   6.298  1.0416 -0.4547 -0.2613
   62MOL     C925751   7.018   2.616   6.411  0.0707 -0.3006 -0.0746
   62MOL    H1025752   6.806   3.007   5.766 -1.4647 -0.0452 -0.0613
   62MOL    H1125753   6.925   2.935   5.657  0.5575  0.5732  0.6442
   62MOL    H1225754   6.930   2.776   5.830 -0.2299  2.7796 -0.5995
   62MOL    H1325755   6.678   2.838   6.180 -0.3550  0.6536 -0.4740
   62MOL    H1425756   6.833   2.916   6.196 -0.1383 -0.2245 -0.3718
   62MOL    H1525757   6.782   2.760   6.371 -0.1042 -0.5509  0.3893
   62MOL    H1625758   6.778   2.623   6.256  0.3067  0.4097 -1.4352
   62MOL    H1725759   7.018   2.808   6.310  1.9881 -0.8175 -0.9944
   62MOL    H1825760   7.017   2.685   6.202  0.8484 -0.2547 -0.4058
   62MOL    H1925761   6.947   2.539   6.441 -1.6121  1.3518  0.3088
   62MOL    H2025762   7.042   2.667   6.505 -1.2076 -0.7329  0.4942
   62MOL    H2125763   7.111   2.569   6.379  1.6743  2.3300  0.5386
   62MOL    H2225764   6.753   2.910   5.629 -0.1691 -0.2578  0.8156
   62MOL    C2325765   6.787   2.671   5.735  0.0643 -0.1013 -0.1208
   62MOL    C2425766   6.803   2.535   5.810 -0.8046 -0.0913 -0.3860
   62MOL    C2525767   6.689   2.493   5.908 -0.3114  0.4257  0.6373
   62MOL    O2625768   6.712   2.453   6.020 -0.0471  1.0565  0.4165
   62MOL    O2725769   6.571   2.490   5.845 -0.0239  0.0749  0.0434
   62MOL    C2825770   6.456   2.447   5.922  0.4376  0.1347  0.4267
   62MOL    C2925771   6.329   2.511   5.861  0.2423  0.0621  0.4571
   62MOL    C3025772   6.206   2.482   5.935  0.3384  0.4935  0.1442
   62MOL    C3125773   6.072   2.523   5.861 -0.3777  0.3348  0.1526
   62MOL    H3225774   6.837   2.673   5.638  0.0761 -0.3148 -0.1194
   62MOL    H3325775   6.682   2.682   5.708  0.0015  4.3116  1.5222
   62MOL    H3425776   6.886   2.550   5.879 -1.5804 -1.3487  0.8385
   62MOL    H3525777   6.476   2.491   6.020  0.7342 -0.6049  0.6985
   62MOL    H3625778   6.448   2.341   5.945  1.9414  0.0570  0.6483
   62MOL    H3725779   6.342   2.620   5.859  2.2321 -0.1621  0.5169
   62MOL    H3825780   6.317   2.486   5.756 -1.5363  0.8499  0.4494
   62MOL    H3925781   6.213   2.524   6.035 -2.1468  0.8850  0.1907
   62MOL    H4025782   6.208   2.376   5.963 -1.1577  0.8280  1.5889
   62MOL    H4125783   6.092   2.630   5.849 -3.3588  1.0236  0.6922
   62MOL    H4225784   5.987   2.519   5.930 -2.1381 -0.9539 -2.0475
   62MOL    H4325785   6.048   2.471   5.769 -0.2547  0.0956  0.2557
   62MOL    C4425786   6.835   2.428   5.703  0.4122 -0.3550 -0.6996
   62MOL    C4525787   6.884   2.299   5.773 -0.6124 -0.0139 -0.1410
   62MOL    C4625788   6.838   2.181   5.694 -0.0292 -0.2036  0.5052
   62MOL    O4725789   6.916   2.107   5.635 -0.6394 -0.4742 -0.2738
   62MOL    O4825790   6.697   2.160   5.703 -0.3390 -0.0967 -0.2388
   62MOL    C4925791   6.632   2.061   5.622  1.0248  0.7778 -0.2575
   62MOL    C5025792   6.498   2.114   5.564 -0.0905  0.2293 -0.9812
   62MOL    C5125793   6.385   2.113   5.668 -0.4872  0.1842  0.3559
   62MOL    C5225794   6.248   2.145   5.605  0.1171 -0.0514  0.3029
   62MOL    H5325795   6.913   2.461   5.635  1.2603 -2.5113 -0.8002
   62MOL    H5425796   6.744   2.424   5.643 -0.2605  1.9331  0.0851
   62MOL    H5525797   6.833   2.302   5.869  0.6425  0.1706  0.5379
   62MOL    H5625798   6.621   1.989   5.704 -1.7372 -0.7691 -1.9004
   62MOL    H5725799   6.703   2.011   5.556  2.3814 -0.3190  1.9644
   62MOL    H5825800   6.523   2.204   5.507  0.3066  0.9240  0.2775
   62MOL    H5925801   6.457   2.044   5.491  2.0194 -1.5538 -0.4911
   62MOL    H6025802   6.412   2.175   5.753 -1.1133 -2.5393  2.6002
   62MOL    H6125803   6.376   2.018   5.720  0.3895  0.7997  1.6332
   62MOL    H6225804   6.158   2.124   5.663 -0.2089  0.3902 -0.0410
   62MOL    H6325805   6.240   2.095   5.508 -1.0415 -0.1617  0.4470
   62MOL    H6425806   6.238   2.250   5.576 -2.6197 -0.5722 -0.7473
   62MOL    C6525807   7.037   2.285   5.794 -0.9450 -0.0164 -0.0251
   62MOL    C6625808   7.077   2.191   5.908 -0.5425  0.6538  0.5614
   62MOL    C6725809   7.227   2.151   5.890  0.5691  0.2538 -0.3871
   62MOL    O6825810   7.264   2.036   5.874 -0.2137 -0.1340  0.1731
   62MOL    O6925811   7.302   2.259   5.889  0.1147 -0.4883  0.0972
   62MOL    C7025812   7.443   2.248   5.902 -0.3735 -0.5490  0.9210
   62MOL    C7125813   7.496   2.393   5.913 -0.0809  1.1116  0.5250
   62MOL    C7225814   7.637   2.382   5.969 -1.0713  0.0683 -0.2461
   62MOL    C7325815   7.696   2.515   6.016  0.3219  0.5054  0.1134
   62MOL    H7425816   7.077   2.382   5.822  2.0838 -1.3169  0.4344
   62MOL    H7525817   7.095   2.248   5.710  0.2573 -2.4468  1.8051
   62MOL    H7625818   7.025   2.096   5.905 -1.0312  0.9769 -1.9129
   62MOL    H7725819   7.471   2.195   5.811 -0.3664  0.1096  0.5363
   62MOL    H7825820   7.468   2.197   5.995  0.5842  0.4243  1.2140
   62MOL    H7925821   7.484   2.452   5.822 -2.8388  1.1612  0.8755
   62MOL    H8025822   7.442   2.448   5.990 -0.4182 -0.2424  1.2678
   62MOL    H8125823   7.703   2.350   5.889 -0.1748  0.2279  0.4134
   62MOL    H8225824   7.640   2.320   6.059  0.5058  0.1527 -0.2313
   62MOL    H8325825   7.704   2.584   5.931 -0.5864 -0.9164 -1.1637
   62MOL    H8425826   7.800   2.520   6.048  0.2630  1.2738  0.1937
   62MOL    H8525827   7.636   2.558   6.095 -0.4511  0.4936 -0.4538
   62MOL    C8625828   7.052   2.249   6.056  0.4639  0.3658 -0.1152
   62MOL    C8725829   7.103   2.175   6.186  0.3944 -0.0036 -0.1687
   62MOL    C8825830   7.253   2.181   6.215  0.6618 -0.0703 -0.5542
   62MOL    O8925831   7.329   2.082   6.191 -0.2520 -0.2952  0.0552
   62MOL    O9025832   7.297   2.301   6.264 -0.1959  0.0319  0.0283
   62MOL    C9125833   7.438   2.325   6.288 -0.1814  0.2019 -0.2892
   62MOL    C9225834   7.447   2.469   6.346  0.4282 -0.6241  0.2473
   62MOL    C9325835   7.373   2.485   6.479  0.3664  0.3714 -0.0644
   62MOL    C9425836   7.373   2.635   6.529  0.2176 -0.4646 -0.4992
   62MOL    H9525837   6.945   2.265   6.044  0.4190 -0.1477 -0.4022
   62MOL    H9625838   7.101   2.346   6.052 -1.8353  1.5612 -0.2785
   62MOL    H9725839   7.076   2.070   6.176  1.5992 -0.1409 -2.2112
   62MOL    H9825840   7.496   2.326   6.196  0.0135  1.5313 -0.1734
   62MOL    H9925841   7.475   2.250   6.358  0.4140  0.8167  0.0731
   62MOL   H10025842   7.549   2.504   6.360  0.1573  0.5612 -0.6871
   62MOL   H10125843   7.395   2.535   6.277 -2.6487  0.1875  3.1501
   62MOL   H10225844   7.430   2.422   6.547 -1.1591 -0.5110  0.4199
   62MOL   H10325845   7.267   2.460   6.471 -0.3901  2.5841  2.4221
   62MOL   H10425846   7.327   2.696   6.452  0.4432  1.0705  0.5723
   62MOL   H10525847   7.468   2.675   6.564  0.5726 -0.5464 -1.3745
   62MOL   H10625848   7.312   2.659   6.616 -2.6324  0.2842 -2.6332
   62MOL   C10725849   7.014   2.218   6.306  0.5665 -0.4259  0.4297
   62MOL   C10825850   7.015   2.116   6.422 -0.1454  0.2581 -0.6953
   62MOL   C10925851   7.107   2.159   6.537  0.4998 -0.0922 -0.1682
   62MOL   O11025852   7.163   2.268   6.552 -0.0718  0.5663  0.4357
   62MOL   O11125853   7.127   2.058   6.628 -0.1246  0.1982 -0.1954
   62MOL   C11225854   7.215   2.084   6.734 -0.2733 -0.7069  0.5538
   62MOL   C11325855   7.357   2.046   6.687  0.5035  0.2503  0.5131
   62MOL   C11425856   7.483   2.106   6.761  0.5421 -0.5714 -0.5251
   62MOL   C11525857   7.474   2.080   6.912 -0.1213  0.4821  0.0683
   62MOL   H11625858   6.911   2.224   6.274  0.3274 -0.0235  1.2612
   62MOL   H11725859   7.039   2.317   6.344 -1.1109  0.2485 -0.1910
   62MOL   H11825860   7.065   2.028   6.382  0.6788  0.3573  0.1184
   62MOL   H11925861   7.183   2.021   6.817 -0.3506 -0.1534  0.9457
   62MOL   H12025862   7.215   2.187   6.768  2.1659 -1.7946  4.0810
   62MOL   H12125863   7.357   1.938   6.698 -4.5447  0.2507  1.7703
   62MOL   H12225864   7.373   2.067   6.581 -1.3841 -0.6537  0.0254
   62MOL   H12325865   7.500   2.210   6.731 -0.2426 -0.4383 -0.5001
   62MOL   H12425866   7.571   2.053   6.725  0.3375 -2.9081  2.2036
   62MOL   H12525867   7.391   2.140   6.949 -1.9143  0.4351 -3.6839
   62MOL   H12625868   7.564   2.111   6.965 -0.4976  2.0001 -0.1721
   62MOL   H12725869   7.459   1.976   6.943 -1.6529  1.1402  1.6368
   62MOL   C12825870   6.882   2.062   6.464  0.0870 -0.7009 -0.6814
   62MOL   C12925871   6.795   2.153   6.552 -0.0901 -0.4308  0.1481
   62MOL   C13025872   6.692   2.240   6.478 -0.1286 -0.7698 -0.3983
   62MOL   O13125873   6.689   2.365   6.475 -0.0875  0.5745  0.1979
   62MOL   O13225874   6.601   2.155   6.410  0.2313  0.4954 -0.5007
   62MOL   C13325875   6.502   2.214   6.331  0.1962  0.7474 -0.0734
   62MOL   C13425876   6.375   2.253   6.402 -0.4627  0.5167  0.1131
   62MOL   C13525877   6.389   2.381   6.486  0.3919 -0.2095  0.5650
   62MOL   C13625878   6.261   2.454   6.526  0.1837  0.3304 -0.7766
   62MOL   H13725879   6.894   1.960   6.502 -0.8273 -0.9105 -0.9474
   62MOL   H13825880   6.827   2.047   6.371 -1.2762 -2.4574  0.3627
   62MOL   H13925881   6.851   2.234   6.598  2.1971 -0.2060 -2.8852
   62MOL   H14025882   6.487   2.136   6.256  2.1362  0.7394 -0.4897
   62MOL   H14125883   6.520   2.312   6.286 -3.0664  0.8850 -1.1982
   62MOL   H14225884   6.299   2.283   6.330  0.3298  2.7453  0.1561
   62MOL   H14325885   6.334   2.171   6.461  0.4168 -0.1046 -0.1331
   62MOL   H14425886   6.467   2.444   6.444  0.4639 -0.3220  0.5279
   62MOL   H14525887   6.441   2.337   6.572 -0.1046 -3.2886 -0.6401
   62MOL   H14625888   6.206   2.483   6.437 -0.4449  0.4856 -0.3426
   62MOL   H14725889   6.277   2.547   6.580 -1.7695 -0.1408  0.7069
   62MOL   H14825890   6.190   2.400   6.589  1.5685 -1.7508 -0.9550
   62MOL   C14925891   6.729   2.069   6.664  0.2517  0.6124 -0.1630
   62MOL   C15025892   6.811   2.034   6.795 -0.3531 -0.3569  0.0610
   62MOL   C15125893   6.817   2.161   6.882 -0.6296 -0.2035 -0.0768
   62MOL   O15225894   6.919   2.200   6.925  0.1432  0.0126  0.3219
   62MOL   O15325895   6.705   2.229   6.905 -0.2326 -0.0532  0.0938
   62MOL   C15425896   6.713   2.341   6.993 -0.2910  0.0748 -0.0007
   62MOL   C15525897   6.649   2.462   6.934  0.0635  0.2248 -0.0298
   62MOL   C15625898   6.713   2.517   6.806 -0.9469 -0.3022 -0.4063
   62MOL   C15725899   6.623   2.615   6.728  0.9778  0.2099 -0.2952
   62MOL   H15825900   6.707   1.968   6.630 -1.2431  0.8865 -0.0095
   62MOL   H15925901   6.628   2.103   6.687 -0.6796 -2.7697  1.1403
   62MOL   H16025902   6.909   2.004   6.757  0.0764  1.1159 -0.0059
   62MOL   H16125903   6.817   2.362   7.019  0.6491 -2.9953 -1.0775
   62MOL   H16225904   6.656   2.332   7.085  0.1818  2.1590  0.5177
   62MOL   H16325905   6.548   2.428   6.913 -0.0103  0.0818  0.5651
   62MOL   H16425906   6.641   2.547   7.002  1.3726  1.6598 -1.5954
   62MOL   H16525907   6.713   2.433   6.738 -0.7594  1.0661 -2.1179
   62MOL   H16625908   6.815   2.550   6.824 -0.9319 -0.4954 -0.1292
   62MOL   H16725909   6.529   2.578   6.686 -0.6095  3.1159  0.5573
   62MOL   H16825910   6.676   2.663   6.645  0.6102  0.0956 -0.5952
   62MOL   H16925911   6.595   2.700   6.791  0.5672 -0.7851  0.8697
   62MOL   C17025912   6.755   1.908   6.872  0.0287 -0.1231  0.1285
   62MOL   C17125913   6.826   1.882   7.005  0.1752  0.1566 -0.3145
   62MOL   C17225914   6.747   1.783   7.092  0.6486 -0.4288  0.1813
   62MOL   O17325915   6.784   1.669   7.112 -0.0141  0.4474 -0.0625
   62MOL   O17425916   6.627   1.831   7.138 -0.3193 -0.5636  0.0809
   62MOL   C17525917   6.540   1.755   7.224  0.2759  0.2555 -0.4614
   62MOL   C17625918   6.617   1.710   7.351  0.0293  1.1515  1.4559
   62MOL   C17725919   6.677   1.824   7.429 -0.1570 -0.1012 -1.0376
   62MOL   C17825920   6.740   1.790   7.569  1.6110 -0.0252  0.3992
   62MOL   H17925921   6.763   1.815   6.817  1.1245 -0.4641  0.8470
   62MOL   H18025922   6.648   1.913   6.893  0.0130  1.2503 -0.1984
   62MOL   H18125923   6.840   1.980   7.050 -2.2102  0.6868 -0.6626
   62MOL   H18225924   6.505   1.670   7.167  1.6600 -0.1167 -0.7831
   62MOL   H18325925   6.448   1.811   7.240 -1.4499 -2.2074 -1.4960
   62MOL   H18425926   6.543   1.654   7.410 -0.1895  0.0998  0.2105
   62MOL   H18525927   6.689   1.632   7.324 -3.1135 -1.3266 -0.1271
   62MOL   H18625928   6.592   1.892   7.442  0.5980  0.9397 -1.4881
   62MOL   H18725929   6.755   1.884   7.382  0.0930 -0.8458 -1.5653
   62MOL   H18825930   6.812   1.709   7.558  1.3781 -0.3715  1.3845
   62MOL   H18925931   6.656   1.762   7.632  0.9481 -2.4915 -1.4597
   62MOL   H19025932   6.791   1.869   7.623  0.4459 -0.0772  1.6130
   62MOL   C19125933   6.972   1.835   6.999 -0.7936 -0.3285  0.1011
   62MOL   C19225934   7.054   1.867   7.129  0.4154  0.5437 -0.3254
   62MOL   C19325935   7.105   1.747   7.216  0.1943 -0.0179 -0.3156
   62MOL   O19425936   7.086   1.732   7.329  0.2117  0.1488 -0.1582
   62MOL   O19525937   7.186   1.677   7.143 -0.2063  0.8780  0.7192
   62MOL   C19625938   7.281   1.589   7.207 -0.3940  0.4675 -0.0560
   62MOL   C19725939   7.421   1.599   7.134  0.1377 -0.3053  0.0076
   62MOL   C19825940   7.417   1.550   6.988 -0.4603  0.1952  0.3137
   62MOL   C19925941   7.364   1.667   6.898  0.1267 -0.2726  0.2027
   62MOL   H20025942   7.027   1.875   6.915  1.2502  0.2395  1.6677
   62MOL   H20125943   6.980   1.731   6.969  0.6858 -0.3294  0.5019
   62MOL   H20225944   6.983   1.913   7.197  0.8922 -1.5254  1.6149
   62MOL   H20325945   7.251   1.484   7.205  0.0563  0.2903  1.8272
   62MOL   H20425946   7.284   1.625   7.309  1.5372 -2.2164  0.9143
   62MOL   H20525947   7.462   1.700   7.141  3.6527 -1.5892 -1.2924
   62MOL   H20625948   7.497   1.544   7.187  1.4351  3.2953  2.0975
   62MOL   H20725949   7.364   1.457   6.969 -0.7742  0.2599  0.8633
   62MOL   H20825950   7.524   1.532   6.978 -0.6191 -0.1409 -0.7702
   62MOL   H20925951   7.385   1.639   6.794 -0.8431 -1.2873  0.2682
   62MOL   H21025952   7.414   1.764   6.899 -1.4351  0.5755 -1.2752
   62MOL   H21125953   7.260   1.693   6.917 -0.8811 -0.6870 -4.1956
   62MOL   C21225954   7.151   1.987   7.109  0.5320  0.0693 -0.2174
   62MOL   C21325955   7.221   2.063   7.232  0.8715 -0.5394 -0.7499
   62MOL   C21425956   7.123   2.094   7.341 -0.6706  0.7301  0.4688
   62MOL   O21525957   7.059   2.200   7.336 -0.4298 -0.4957  0.6429
   62MOL   O21625958   7.109   1.996   7.433  0.7794  0.0415  0.1772
   62MOL   C21725959   7.020   2.011   7.536  1.1642  0.2733 -0.6475
   62MOL   C21825960   7.068   1.944   7.667  0.3853  0.6002  0.8987
   62MOL   C21925961   7.210   2.000   7.713  0.3999 -0.3370  0.9300
   62MOL   C22025962   7.278   1.915   7.819 -0.0018  0.3072 -0.2199
   62MOL   H22125963   7.086   2.065   7.068 -1.1562 -0.6372  1.0566
   62MOL   H22225964   7.218   1.971   7.024 -0.8045 -0.2160 -1.2367
   62MOL   H22325965   7.254   2.160   7.195 -0.0500 -0.0773 -0.3735
   62MOL   H22425966   6.918   1.992   7.503  1.2904 -1.4059 -0.0794
   62MOL   H22525967   7.018   2.115   7.569  0.2727 -0.6416  2.2527
   62MOL   H22625968   6.994   1.962   7.744 -2.6519  0.0047 -1.7900
   62MOL   H22725969   7.096   1.839   7.659 -2.1687 -0.0624  0.4582
   62MOL   H22825970   7.194   2.104   7.740 -1.4044  0.0083 -1.2671
   62MOL   H22925971   7.270   2.004   7.622 -1.3749  0.6892 -0.2284
   62MOL   H23025972   7.362   1.973   0.004 -0.4016  0.3657  0.5804
   62MOL   H23125973   7.313   1.817   7.788  1.7177  0.3525  1.4632
   62MOL   H23225974   7.207   1.893   0.046 -2.2912 -0.0027 -2.2934
   62MOL   C23325975   7.346   1.973   7.277 -0.3880 -0.2764 -0.1193
   62MOL   C23425976   7.461   2.043   7.364  0.1341  0.8518 -0.2974
   62MOL   C23525977   7.525   1.939   7.453 -0.5969  0.2028 -0.1517
   62MOL   O23625978   7.541   1.966   7.569  0.0377  0.0210  0.1985
   62MOL   O23725979   7.580   1.829   7.390  0.7672 -0.2988 -0.2466
   62MOL   C23825980   7.655   1.734   7.465 -1.2113  0.0130  0.5403
   62MOL   C23925981   7.568   1.611   7.505  0.7598  0.3486 -0.0468
   62MOL   C24025982   7.507   1.619   7.643  0.2333  0.1098 -0.3606
   62MOL   C24125983   7.449   1.486   7.682 -0.0996  0.4850 -0.6982
   62MOL   H24225984   7.396   1.938   7.187  0.8389 -3.7646  1.7947
   62MOL   H24325985   7.305   1.885   7.326  2.6458 -2.2505 -0.9591
   62MOL   H24425986   7.417   2.116   7.432 -1.2959  0.6180 -0.9513
   62MOL   H24525987   7.699   1.777   7.555  3.8154 -0.0794 -1.7279
   62MOL   H24625988   7.746   1.694   7.420 -2.6005 -2.8594  0.1301
   62MOL   H24725989   7.489   1.599   7.431 -0.7445  2.3671  1.1812
   62MOL   H24825990   7.636   1.526   7.505 -1.7258 -1.7013  0.0498
   62MOL   H24925991   7.438   1.703   7.646  1.6236  1.2249  1.2498
   62MOL   H25025992   7.590   1.643   7.709 -0.7225  0.9780  0.5510
   62MOL   H25125993   7.422   1.493   7.787 -0.7960 -1.1622 -0.7588
   62MOL   H25225994   7.521   1.404   7.679 -1.0528 -0.4509  1.3098
   62MOL   H25325995   7.359   1.452   7.631 -0.6088  0.0782  0.4508
   62MOL   C25425996   7.564   2.119   7.279  0.0761 -0.7120  0.8907
   62MOL   C25525997   7.689   2.180   7.356  0.4588  0.5781 -0.8379
   62MOL   C25625998   7.796   2.235   7.262  0.5597 -0.3479 -0.5618
   62MOL   O25725999   7.785   2.232   7.137 -0.0234 -0.3128  0.7609
   62MOL   O25826000   0.046   2.297   7.322 -0.0509  0.1600 -0.0879
   62MOL   C25926001   0.119   2.400   7.264 -0.2309  0.8212  0.5689
   62MOL   C26026002   0.036   2.523   7.246 -0.4461  0.3607 -0.4407
   62MOL   C26126003   0.106   2.632   7.164 -0.6685 -0.0750  0.3640
   62MOL   C26226004   0.043   2.772   7.192  0.2135 -0.7658  0.0898
   62MOL   H26326005   7.508   2.202   7.236 -0.5848 -0.5849  1.9701
   62MOL   H26426006   7.607   2.051   7.206 -0.8505  1.7856 -2.1157
   62MOL   H26526007   7.744   2.094   7.394 -0.6324  0.0383 -0.4579
   62MOL   H26626008   0.161   2.353   7.176  1.7482  0.6288  1.5848
   62MOL   H26726009   0.210   2.418   7.321  0.0297  0.8407  0.1448
   62MOL   H26826010   7.789   2.501   7.209  0.1275 -1.0362 -1.1944
   62MOL   H26926011   0.020   2.572   7.342 -0.2447 -0.7766  0.1782
   62MOL   H27026012   0.099   2.609   7.057 -1.4097 -0.4726  0.4967
   62MOL   H27126013   0.213   2.636   7.185 -0.6871 -0.4758  0.5290
   62MOL   H27226014   7.788   2.761   7.184  0.2642 -0.7622 -0.7178
   62MOL   H27326015   0.079   2.845   7.119  0.5791  1.1694  2.1657
   62MOL   H27426016   0.070   2.796   7.294  2.2998  0.6580 -0.7581
   62MOL   C27526017   7.645   2.276   7.475 -0.2912  0.2871  0.1528
   62MOL   C27626018   7.570   2.412   7.443  0.1901  0.0847  0.1067
   62MOL   C27726019   7.413   2.397   7.442  0.4516  0.4213  0.2791
   62MOL   O27826020   7.355   2.372   7.334 -0.2799  0.6394  0.3477
   62MOL   O27926021   7.355   2.409   7.562 -0.7839  0.0593 -0.2552
   62MOL   C28026022   7.216   2.396   7.568 -0.3647  0.0505 -0.1277
   62MOL   C28126023   7.153   2.461   7.690 -0.2229 -0.1265 -0.7133
   62MOL   C28226024   7.178   2.610   7.715 -0.3327  0.4822  0.0068
   62MOL   C28326025   7.056   2.662   7.788  0.9006  0.7619  0.4778
   62MOL   H28426026   7.742   2.310   7.510 -0.7988  1.6873  0.2511
   62MOL   H28526027   7.604   2.221   7.560 -1.6373  1.4133  0.2613
   62MOL   H28626028   7.593   2.420   7.337  1.3942 -1.3600  0.2433
   62MOL   H28726029   7.201   2.288   7.560 -0.2867  0.0269  0.0601
   62MOL   H28826030   7.156   2.445   7.491  0.9201 -0.8361 -1.7281
   62MOL   H28926031   7.051   2.426   7.678 -0.2686 -0.2687  0.0845
   62MOL   H29026032   7.188   2.398   7.772  0.3350  0.8967 -0.1481
   62MOL   H29126033   7.193   2.663   7.621  2.5043  0.8672  0.6351
   62MOL   H29226034   7.270   2.634   7.769 -2.4774  3.1448  2.6590
   62MOL   H29326035   7.074   2.766   7.817 -3.2782  1.2126  1.7622
   62MOL   H29426036   7.052   2.616   0.034 -0.5561  2.4146  1.2140
   62MOL   H29526037   6.967   2.655   7.726  0.8372  1.9459  0.4181
   62MOL   C29626038   7.626   2.520   7.554 -0.3938 -0.1074 -0.3951
   62MOL   C29726039   7.566   2.664   7.565 -0.1579 -0.3766 -0.2619
   62MOL   C29826040   7.636   2.726   7.685  0.2512 -0.0121  0.4815
   62MOL   O29926041   7.577   2.744   7.796  0.0140 -0.2830 -0.6045
   62MOL   O30026042   7.755   2.757   7.647 -0.4921  0.7980  0.2426
   62MOL   C30126043   7.839   2.842   7.716  0.3788 -0.0024 -0.9436
   62MOL   C30226044   0.060   2.933   7.617  0.8413 -0.1744 -0.5318
   62MOL   C30326045   7.818   3.042   7.562 -0.4217 -0.5525 -0.3894
   62MOL   C30426046   0.020   3.122   7.441 -0.1773 -0.0854 -0.6845
   62MOL   H30526047   7.733   2.528   7.533 -0.2957  1.3536  0.5923
   62MOL   H30626048   7.624   2.474   7.653  1.6203  0.6358  0.0118
   62MOL   H30726049   7.463   2.657   7.600  0.3844 -0.3187  1.3743
   62MOL   H30826050   0.059   2.775   7.761  0.4820  1.9418  1.9380
   62MOL   H30926051   7.795   2.889   7.804 -0.7398 -1.1401 -0.8826
   62MOL   H31026052   0.144   2.982   7.667  0.3321  0.0685  0.0975
   62MOL   H31126053   0.093   2.872   7.533  1.7197 -0.9157  0.3357
   62MOL   H31226054   7.803   3.114   7.642 -0.2082  0.4284 -1.2200
   62MOL   H31326055   7.719   3.005   7.535 -1.5055 -0.9348  3.7783
   62MOL   H31426056   0.091   3.200   7.466 -0.6257  0.5287 -1.3163
   62MOL   H31526057   7.790   3.174   7.394  0.2455  0.1977 -1.1241
   62MOL   H31626058   0.066   3.064   7.361  2.5845 -1.3211  1.7059
   62MOL   C31726059   7.585   2.737   7.431  0.7215 -0.3666 -0.5200
   62MOL   C31826060   7.467   2.831   7.408 -0.5505  0.8882  0.2644
   62MOL   C31926061   7.511   2.941   7.306  0.1776 -0.2373  0.2948
   62MOL   O32026062   7.539   3.057   7.344 -0.4770 -0.2885 -0.2542
   62MOL   O32126063   7.522   2.900   7.171  0.2568  0.6335  0.4088
   62MOL   C32226064   7.577   2.992   7.074 -0.1219  0.2268  0.5156
   62MOL   C32326065   7.533   2.951   6.933  0.5266  0.1009  0.5174
   62MOL   C32426066   7.381   2.935   6.910 -0.1369 -0.2836  0.1779
   62MOL   C32526067   7.336   2.948   6.766 -0.4714  0.0231 -0.2504
   62MOL   H32626068   7.598   2.660   7.355 -1.8258 -0.8892 -0.4666
   62MOL   H32726069   7.681   2.788   7.432  0.7882 -0.4528  2.7271
   62MOL   H32826070   7.452   2.890   7.498  0.1920  3.2222 -1.0997
   62MOL   H32926071   7.686   2.987   7.078 -0.2422 -3.3210  2.4058
   62MOL   H33026072   7.547   3.096   7.084  0.2436  0.4742 -0.9061
   62MOL   H33126073   7.559   3.040   6.875  0.8929 -1.1899 -1.3505
   62MOL   H33226074   7.585   2.862   6.897 -0.4658 -0.2662 -0.0337
   62MOL   H33326075   7.316   2.995   6.974  0.1240  0.8367 -0.5905
   62MOL   H33426076   7.355   2.833   6.939 -0.2547 -0.7093 -1.3609
   62MOL   H33526077   7.385   2.869   6.709  0.0503  1.3843 -1.7247
   62MOL   H33626078   7.358   3.048   6.731  0.6823  0.1643  0.8186
   62MOL   H33726079   7.228   2.938   6.756 -0.5546  1.9197 -1.2459
   62MOL   C33826080   7.337   2.765   7.363 -0.0369  0.5566  0.3535
   62MOL   C33926081   7.221   2.866   7.349 -0.2946  0.3237  1.2778
   62MOL   C34026082   7.104   2.797   7.272  0.5129  0.7789 -0.6799
   62MOL   O34126083   7.002   2.770   7.336 -0.3725  0.5667  0.3143
   62MOL   O34226084   7.108   2.798   7.138  0.4635  0.2608 -0.4382
   62MOL   C34326085   7.002   2.740   7.058 -0.1924 -0.0127 -0.0516
   62MOL   C34426086   6.998   2.582   7.067  0.2514  0.0525 -0.5213
   62MOL   C34526087   7.113   2.502   7.010 -0.1004  0.6843 -0.1372
   62MOL   C34626088   7.146   2.523   6.859  0.7056 -0.1412  0.1144
   62MOL   H34726089   7.325   2.676   7.425  2.9938  0.6549  1.1874
   62MOL   H34826090   7.352   2.723   7.263 -0.2844  0.5574  0.3170
   62MOL   H34926091   7.235   2.943   7.273  2.0990 -1.8479 -0.5725
   62MOL   H35026092   7.015   2.766   6.953  0.1141  1.6693  0.3946
   62MOL   H35126093   6.907   2.785   7.087 -0.5357  0.1602 -1.4109
   62MOL   H35226094   6.984   2.544   7.168 -1.9661  0.1332 -0.7642
   62MOL   H35326095   6.901   2.562   7.019  0.0448 -1.2707  0.4272
   62MOL   H35426096   7.069   2.403   7.026 -0.9413  0.9063 -1.0278
   62MOL   H35526097   7.202   2.519   7.070 -0.4864 -1.4107  1.0713
   62MOL   H35626098   7.223   2.452   6.828 -0.5785 -1.2396 -0.5981
   62MOL   H35726099   7.174   2.627   6.846 -1.2644  0.6629  2.0830
   62MOL   H35826100   7.057   2.513   6.797  0.7350  0.2142  0.0162
   62MOL   C35926101   7.169   2.927   7.485 -0.1699 -0.0761 -0.0887
   62MOL   C36026102   7.075   3.053   7.472  0.9224 -0.3538  0.3537
   62MOL   C36126103   6.966   3.064   7.576  0.0058  0.2196 -0.0586
   62MOL   O36226104   6.978   2.992   7.674  0.5414  0.2202  0.4509
   62MOL   O36326105   6.856   3.133   7.531  0.2907  0.0049  0.3509
   62MOL   C36426106   6.730   3.133   7.599  0.0447 -0.3767  0.2763
   62MOL   C36526107   6.617   3.085   7.503  0.5215  0.5215 -0.2045
   62MOL   C36626108   6.637   2.952   7.434  0.1985  0.6075  0.3683
   62MOL   C36726109   6.518   2.918   7.342  0.0040 -0.1640 -0.0611
   62MOL   H36826110   7.251   2.976   7.538 -1.5969  2.6303 -0.3137
   62MOL   H36926111   7.142   2.844   7.550 -0.4086 -0.6233 -0.8689
   62MOL   H37026112   7.014   3.021   7.387 -1.3888 -2.4798  2.7180
   62MOL   H37126113   6.709   3.232   7.639 -2.5880 -0.8189  0.0292
   62MOL   H37226114   6.734   3.067   7.686 -0.7596 -1.7909 -0.7402
   62MOL   H37326115   6.530   3.089   7.568 -0.4367  2.5078 -1.5847
   62MOL   H37426116   6.599   3.154   7.421  0.4190  0.0153 -0.6075
   62MOL   H37526117   6.645   2.867   7.502  4.6567  0.5461 -0.0665
   62MOL   H37626118   6.735   2.941   7.386  0.0758  0.1798  0.2121
   62MOL   H37726119   6.517   2.812   7.314 -1.9251 -0.0420 -0.5429
   62MOL   H37826120   6.487   2.985   7.262  1.3764 -1.4922 -1.7565
   62MOL   H37926121   6.431   2.913   7.407  1.0837 -1.7577  1.3013
   62MOL   C38026122   7.151   3.192   7.472 -0.0561 -0.1420  0.4757
   62MOL   C38126123   7.225   3.234   7.340 -0.0767  0.5132 -0.0624
   62MOL   C38226124   7.140   3.216   7.219 -0.8636  0.1026  0.1658
   62MOL   O38326125   7.164   3.127   7.138 -0.1670  0.1233  0.2490
   62MOL   O38426126   7.049   3.308   7.192 -0.0802 -0.2165 -0.0273
   62MOL   C38526127   6.954   3.291   7.092 -0.7259 -0.1417 -0.5632
   62MOL   C38626128   6.834   3.388   7.116 -0.8442  0.3736  0.6755
   62MOL   C38726129   6.750   3.366   7.242 -0.0430 -0.0555 -0.2280
   62MOL   C38826130   6.623   3.455   7.258  0.1466 -0.0807  0.0942
   62MOL   H38926131   7.215   3.197   7.561  1.9479  0.1713 -0.9414
   62MOL   H39026132   7.081   3.274   7.485  0.7831  0.5447  0.7207
   62MOL   H39126133   7.296   3.155   7.318 -2.4596 -2.0888  1.2664
   62MOL   H39226134   6.915   3.189   7.083  0.4301 -0.6658  0.2850
   62MOL   H39326135   7.001   3.303   6.994  0.9060 -1.0671  0.0974
   62MOL   H39426136   6.856   3.495   7.112  0.8415  0.0022 -0.6083
   62MOL   H39526137   6.775   3.382   7.024  0.2630  0.5876 -0.0585
   62MOL   H39626138   6.805   3.381   7.335 -2.7201  2.1713  1.0814
   62MOL   H39726139   6.715   3.263   7.241  2.9761 -1.1257  0.2204
   62MOL   H39826140   6.575   3.413   7.347 -0.8486 -0.8477 -0.8041
   62MOL   H39926141   6.551   3.456   7.176  1.2661  0.0723 -0.8887
   62MOL   H40026142   6.626   3.561   7.283 -0.8175  0.5740 -2.4434
   62MOL   C40126143   7.297   3.370   7.366 -0.7041  0.2099  0.1557
   62MOL   C40226144   7.419   3.388   7.277 -0.7527 -0.3892 -1.2584
   62MOL   C40326145   7.399   3.421   7.130  0.3347 -0.0270  0.1207
   62MOL   O40426146   7.477   3.386   7.047  0.0905 -0.4762  0.5195
   62MOL   O40526147   7.287   3.501   7.102 -0.0253  0.0473  0.2953
   62MOL   C40626148   7.235   3.505   6.968 -0.0637 -1.0953 -0.3035
   62MOL   C40726149   7.266   3.653   6.921 -0.0541 -0.4956 -0.8754
   62MOL   C40826150   7.228   3.685   6.776  0.1422  0.1325 -0.7671
   62MOL   C40926151   7.234   3.836   6.739 -0.0473 -0.0844  0.3895
   62MOL   H41026152   7.319   3.382   7.472  0.1087 -1.2530  0.1780
   62MOL   H41126153   7.236   3.456   7.339 -0.3316  0.3540 -0.2435
   62MOL   H41226154   7.486   3.302   7.276  0.7737  0.7759 -1.0309
   62MOL   H41326155   7.131   3.480   6.946 -0.4353  0.3751 -0.2624
   62MOL   H41426156   7.279   3.424   6.909 -0.7787 -1.5680 -0.1895
   62MOL   H41526157   7.207   3.716   6.987  1.0538 -1.0413  0.6461
   62MOL   H41626158   7.368   3.686   6.942  0.0719 -0.1985 -1.9040
   62MOL   H41726159   7.127   3.645   6.768  0.0675 -0.1314  1.2793
   62MOL   H41826160   7.287   3.620   6.712  2.1110  0.9827  0.1233
   62MOL   H41926161   7.332   3.882   6.751  0.6141 -1.1626 -0.7251
   62MOL   H42026162   7.160   3.887   6.801 -1.1042 -0.2711 -0.6973
   62MOL   H42126163   7.211   3.851   6.634  2.2820  0.9884  0.0090
   62MOL   H42226164   7.472   3.473   7.319 -1.2887 -0.1905 -0.9728
   63MOL     C126165   6.167   6.266   5.340  0.2528 -0.6751  0.3811
   63MOL     C226166   6.243   6.219   5.217  0.2462 -0.5258 -0.2178
   63MOL     C326167   6.291   6.079   5.211  0.3374  0.4848 -0.3593
   63MOL     O426168   6.252   5.984   5.276 -0.0471  0.2609  0.4497
   63MOL     O526169   6.379   6.069   5.112 -0.0985  0.6858 -0.1116
   63MOL     C626170   6.423   5.944   5.068 -0.2804  0.2338  0.8290
   63MOL     C726171   6.556   5.964   4.996 -0.3628 -0.5103  0.2668
   63MOL     C826172   6.676   5.861   5.002 -0.1391 -0.0619 -0.7063
   63MOL     C926173   6.790   5.910   4.923  0.6591  0.0388  0.0549
   63MOL    H1026174   6.153   6.374   5.345  0.8472 -0.6264  1.0938
   63MOL    H1126175   6.070   6.219   5.354  0.9750 -2.5132 -0.6772
   63MOL    H1226176   6.334   6.278   5.221  0.9778 -1.7495  1.8974
   63MOL    H1326177   6.347   5.911   4.997 -1.8236 -0.3869  2.7458
   63MOL    H1426178   6.430   5.879   5.155  1.4943 -0.3760  0.2566
   63MOL    H1526179   6.538   5.989   4.891  1.9256  3.0753  0.6131
   63MOL    H1626180   6.599   6.057   5.034  1.2007 -0.8680 -0.5732
   63MOL    H1726181   6.653   5.760   4.970  1.2233  0.1030 -2.2846
   63MOL    H1826182   6.710   5.845   5.104 -1.0024 -0.5968 -0.5012
   63MOL    H1926183   6.761   5.902   4.818 -0.9189  0.9455  0.4168
   63MOL    H2026184   6.881   5.851   4.937  0.1729 -0.3691  1.6091
   63MOL    H2126185   6.828   6.010   4.940  0.1527  0.5014 -1.4748
   63MOL    H2226186   6.225   6.242   5.430 -2.5959  0.8179  2.6945
   63MOL    C2326187   6.160   6.266   5.100 -0.2044 -1.3188  0.1898
   63MOL    C2426188   6.191   6.417   5.064  0.1963  0.3342  0.5307
   63MOL    C2526189   6.336   6.439   5.034 -0.8115  0.4597 -0.2652
   63MOL    O2626190   6.407   6.534   5.078  0.2542 -0.5245  0.2998
   63MOL    O2726191   6.385   6.352   4.950 -0.2781  0.1578  0.5868
   63MOL    C2826192   6.518   6.359   4.912  0.1603  0.0531  0.4296
   63MOL    C2926193   6.529   6.421   4.775 -0.4334  0.3056  0.0650
   63MOL    C3026194   6.669   6.462   4.729 -0.2024  0.2880  0.2066
   63MOL    C3126195   6.680   6.541   4.596  0.4666 -0.0696  0.3794
   63MOL    H3226196   6.053   6.256   5.120 -0.2230 -2.6178 -0.5259
   63MOL    H3326197   6.173   6.205   5.011  0.9101 -0.6276 -0.1261
   63MOL    H3426198   6.157   6.469   5.154 -2.4802  1.2609 -0.9862
   63MOL    H3526199   6.554   6.256   4.907 -0.6264 -0.1826 -0.7277
   63MOL    H3626200   6.589   6.404   4.981  0.4307 -0.0057  0.1927
   63MOL    H3726201   6.485   6.362   4.695 -0.5233  2.2894 -1.3943
   63MOL    H3826202   6.467   6.511   4.786 -0.1764  0.7264 -1.8013
   63MOL    H3926203   6.742   6.383   4.743 -0.4649 -0.0129 -0.1339
   63MOL    H4026204   6.707   6.538   4.797  0.0377  2.0917 -1.8709
   63MOL    H4126205   6.781   6.579   4.590  0.2242  0.4720 -0.3526
   63MOL    H4226206   6.606   6.622   4.593  0.6187  0.0180 -1.8736
   63MOL    H4326207   6.660   6.478   4.509 -0.4004 -0.2479  0.6993
   63MOL    C4426208   6.102   6.467   4.949  0.1616  0.8880  0.3147
   63MOL    C4526209   6.132   6.616   4.908  0.9230 -0.0494 -0.4197
   63MOL    C4626210   6.058   6.650   4.774  0.3488  0.8425 -0.4410
   63MOL    O4726211   5.951   6.598   4.748  0.5088  0.2601 -0.3054
   63MOL    O4826212   6.110   6.756   4.704 -0.5478 -0.2664 -0.5471
   63MOL    C4926213   6.050   6.802   4.587 -0.0437 -0.2921 -0.1212
   63MOL    C5026214   5.953   6.910   4.615  0.1353 -0.4591 -0.2267
   63MOL    C5126215   6.021   7.024   4.694 -0.3859 -0.3015 -0.2140
   63MOL    C5226216   5.925   7.148   4.701  0.3761  0.6252  0.7445
   63MOL    H5326217   5.994   6.460   4.957  0.0545  1.6726 -0.3170
   63MOL    H5426218   6.122   6.415   4.855  0.5180  2.9167 -0.7753
   63MOL    H5526219   6.239   6.617   4.887  0.8840  1.0677 -0.5877
   63MOL    H5626220   5.992   6.731   4.529 -2.5752 -0.3846  2.3793
   63MOL    H5726221   6.133   6.830   4.522 -0.3474  2.7772  0.7323
   63MOL    H5826222   5.911   6.947   4.522 -2.4066  2.9391  2.1569
   63MOL    H5926223   5.868   6.862   4.664 -0.2016  0.2326 -0.1286
   63MOL    H6026224   6.120   7.049   4.657 -0.0087 -1.6496 -0.1375
   63MOL    H6126225   6.026   6.983   4.795 -0.2490 -0.6180 -0.3515
   63MOL    H6226226   5.973   7.231   4.753  0.3621 -0.2070  2.0937
   63MOL    H6326227   5.823   7.133   4.735 -0.0291  1.4474 -0.0968
   63MOL    H6426228   5.917   7.196   4.603 -0.5644 -1.6390 -0.3257
   63MOL    C6526229   6.093   6.720   5.014  0.1914 -0.6088 -0.7233
   63MOL    C6626230   5.942   6.717   5.052 -0.9957 -0.3537  0.1194
   63MOL    C6726231   5.908   6.625   5.160 -0.5673 -0.1580 -0.9218
   63MOL    O6826232   5.975   6.612   5.262  0.1634 -0.6557  0.1272
   63MOL    O6926233   5.810   6.554   5.115 -0.5902  0.2992 -0.1065
   63MOL    C7026234   5.778   6.435   5.184 -0.0767  1.2198  0.2012
   63MOL    C7126235   5.767   6.309   5.082 -0.2985 -0.2756  0.1505
   63MOL    C7226236   5.657   6.208   5.131 -0.2130  0.3167  0.2603
   63MOL    C7326237   5.630   6.085   5.039  0.3275  0.1178  0.8112
   63MOL    H7426238   6.114   6.818   4.970  0.7708 -1.5650 -2.6616
   63MOL    H7526239   6.166   6.701   5.092  0.1912 -2.6760 -1.2030
   63MOL    H7626240   5.889   6.685   4.963  1.8953 -2.2842 -0.9964
   63MOL    H7726241   5.681   6.452   5.230  0.3309  2.6377  0.5500
   63MOL    H7826242   5.849   6.398   5.258 -0.5230  0.4692  0.2607
   63MOL    H7926243   5.750   6.341   4.980  1.3878 -0.2300 -0.1371
   63MOL    H8026244   5.859   6.254   5.065  0.9613  1.3254  1.5634
   63MOL    H8126245   5.562   6.260   5.119  0.9031  2.8073  1.7870
   63MOL    H8226246   5.670   6.169   5.231 -0.1003  2.6452  1.1902
   63MOL    H8326247   5.543   6.032   5.079 -0.1319 -0.5501 -1.0263
   63MOL    H8426248   5.712   6.013   5.046 -1.9177 -2.4799  1.6204
   63MOL    H8526249   5.614   6.113   4.935  0.4785  1.1034  1.0508
   63MOL    C8626250   5.883   6.867   5.080 -0.2175 -0.4062  0.2246
   63MOL    C8726251   5.725   6.868   5.058 -0.0304  0.0176 -0.4490
   63MOL    C8826252   5.664   6.985   5.137 -0.1312 -0.0154 -0.9514
   63MOL    O8926253   5.612   7.081   5.077 -0.2205 -0.1972 -0.7846
   63MOL    O9026254   5.665   6.962   5.264  0.1237  0.2399  0.1528
   63MOL    C9126255   5.596   7.045   5.354 -0.0059 -0.3956 -0.0535
   63MOL    C9226256   5.688   7.071   5.476  0.4864 -0.2831  0.8369
   63MOL    C9326257   5.743   6.953   5.562 -0.1224 -0.0745  0.0072
   63MOL    C9426258   5.823   6.980   5.695 -0.0697 -0.9917  0.1018
   63MOL    H9526259   5.932   6.940   5.015 -0.5875  0.1214  0.5321
   63MOL    H9626260   5.914   6.902   5.178  0.3421 -0.1277 -0.0514
   63MOL    H9726261   5.681   6.777   5.099 -0.1147 -1.5349 -3.8605
   63MOL    H9826262   5.505   6.993   5.382 -1.4364  0.9344 -2.0637
   63MOL    H9926263   5.563   7.135   5.302 -0.5068 -0.3147  0.3999
   63MOL   H10026264   5.771   7.139   5.452 -0.4992  1.3901  2.0266
   63MOL   H10126265   5.636   7.140   5.542 -0.7424 -0.3274 -0.0710
   63MOL   H10226266   5.820   6.909   5.499 -0.0527 -3.2848  2.2191
   63MOL   H10326267   5.676   6.868   5.570  0.3399 -0.4529 -0.1747
   63MOL   H10426268   5.869   6.894   5.744 -0.0386 -0.7098  0.5724
   63MOL   H10526269   5.751   7.037   5.753  0.7828 -1.4763  1.6583
   63MOL   H10626270   5.907   7.043   5.665 -0.8086  0.1472  0.4017
   63MOL   C10726271   5.695   6.878   4.902 -0.2641 -0.0424  0.8094
   63MOL   C10826272   5.542   6.862   4.867 -0.0633  0.0589  0.5238
   63MOL   C10926273   5.525   6.881   4.716 -0.5249  0.3263  0.7459
   63MOL   O11026274   5.605   6.842   4.629 -0.4929 -0.4010 -0.1767
   63MOL   O11126275   5.406   6.922   4.685 -0.2803  0.0100  0.3615
   63MOL   C11226276   5.359   6.922   4.554 -0.1534  0.1051 -0.2258
   63MOL   C11326277   5.267   6.801   4.543  0.0861 -0.1086 -0.2152
   63MOL   C11426278   5.216   6.792   4.401  0.4401 -0.2016  0.0177
   63MOL   C11526279   5.086   6.712   4.390  0.0812 -1.0201 -0.3868
   63MOL   H11626280   5.757   6.822   4.832 -1.4745 -0.1410 -0.1978
   63MOL   H11726281   5.718   6.982   4.880 -1.1841  0.5736  2.6271
   63MOL   H11826282   5.496   6.940   4.927 -1.8193 -1.6695  1.4578
   63MOL   H11926283   5.443   6.931   4.485 -0.0564  1.0559  0.0137
   63MOL   H12026284   5.303   7.012   4.530 -1.1270 -0.6285 -0.7803
   63MOL   H12126285   5.320   6.712   4.576 -0.0099  0.6421  2.0617
   63MOL   H12226286   5.183   6.823   4.608  0.7900  2.1061 -0.0068
   63MOL   H12326287   5.292   6.745   4.339  0.6699 -1.0532  0.9346
   63MOL   H12426288   5.196   6.895   4.371 -0.6179 -0.6917 -0.9869
   63MOL   H12526289   5.108   6.623   4.449  1.7979 -1.5198 -1.7409
   63MOL   H12626290   5.064   6.682   4.288  1.0434  1.7464 -1.4568
   63MOL   H12726291   4.993   6.763   4.416  1.4255  2.2633 -1.7478
   63MOL   C12826292   5.493   6.718   4.901  0.0160  0.1395 -0.4201
   63MOL   C12926293   5.423   6.704   5.036 -0.2248 -0.0557 -0.5788
   63MOL   C13026294   5.320   6.812   5.052 -0.0100 -0.4789  0.2930
   63MOL   O13126295   5.325   6.900   5.143 -0.1440  0.3215 -0.4787
   63MOL   O13226296   5.220   6.799   4.973  0.0411 -0.0635  0.0109
   63MOL   C13326297   5.103   6.876   4.985 -0.1874 -0.8307  0.1864
   63MOL   C13426298   4.995   6.807   5.065 -0.2351 -0.2316  0.2100
   63MOL   C13526299   4.947   6.680   4.998 -0.1570 -0.2999 -1.0156
   63MOL   C13626300   4.807   6.622   5.065  0.3496  1.0777 -0.0868
   63MOL   H13726301   5.576   6.648   4.897 -0.8608 -0.8351 -1.8419
   63MOL   H13826302   5.423   6.687   4.824 -2.0474 -2.2506  2.3078
   63MOL   H13926303   5.496   6.703   5.117 -2.3803  1.1975  1.4588
   63MOL   H14026304   5.071   6.873   4.881  1.8523 -3.0913 -0.4082
   63MOL   H14126305   5.125   6.980   5.009  1.0212 -1.4682  1.9431
   63MOL   H14226306   5.033   6.795   5.167  0.8841 -0.6921 -0.2552
   63MOL   H14326307   4.909   6.874   5.074 -0.0082  0.2769 -1.2948
   63MOL   H14426308   5.027   6.607   5.011  0.0358  0.1295  0.2775
   63MOL   H14526309   4.934   6.700   4.891 -0.8726  1.3141 -0.6338
   63MOL   H14626310   4.782   6.528   5.015  0.4262 -0.6832  3.0776
   63MOL   H14726311   4.729   6.697   5.052  0.6123  0.7517 -4.1352
   63MOL   H14826312   4.814   6.598   5.171  0.4549  0.7565 -0.1632
   63MOL   C14926313   5.365   6.563   5.057  0.5794  0.0105  0.2720
   63MOL   C15026314   5.308   6.542   5.197  0.5684 -0.2793  0.5233
   63MOL   C15126315   5.205   6.429   5.189  0.3158  0.9073 -0.3249
   63MOL   O15226316   5.226   6.329   5.123  0.4304 -0.7078 -0.1634
   63MOL   O15326317   5.096   6.449   5.278 -0.5821  0.2145  0.2570
   63MOL   C15426318   4.993   6.353   5.275 -0.3230 -0.0099  0.9067
   63MOL   C15526319   4.986   6.285   5.411  0.1722  0.0775 -0.1888
   63MOL   C15626320   4.921   6.382   5.517 -0.1307  0.6894  0.4457
   63MOL   C15726321   4.925   6.318   5.662 -0.5623  0.0493  0.0057
   63MOL   H15826322   5.436   6.483   5.040 -0.2739 -1.2594  2.5098
   63MOL   H15926323   5.281   6.557   4.988 -0.4284  1.4708  1.3199
   63MOL   H16026324   5.252   6.628   5.232 -1.6661 -1.8344  0.8678
   63MOL   H16126325   5.010   6.276   5.199 -0.1077  1.6654 -0.7982
   63MOL   H16226326   4.897   6.381   5.231 -0.8924 -2.6344  0.3701
   63MOL   H16326327   4.930   6.192   5.404 -0.2508 -0.0081  3.6661
   63MOL   H16426328   5.087   6.264   5.445  0.5147  0.5126 -0.9173
   63MOL   H16526329   4.815   6.399   5.499 -0.0204  0.7696 -0.1128
   63MOL   H16626330   4.980   6.473   5.523 -2.1364  1.8755  3.6412
   63MOL   H16726331   4.877   6.369   5.745 -1.4551 -0.6785 -0.0608
   63MOL   H16826332   5.030   6.318   5.693 -1.2849  0.0751  2.5391
   63MOL   H16926333   4.887   6.215   5.662  0.8464 -0.4912  0.7025
   63MOL   C17026334   5.426   6.512   5.293 -0.1087  0.6498  0.3881
   63MOL   C17126335   5.385   6.525   5.442  0.8265  0.6221  0.2740
   63MOL   C17226336   5.474   6.439   5.533  0.3442  0.5032  0.4632
   63MOL   O17326337   5.429   6.342   5.600  0.4050  0.1976  0.5055
   63MOL   O17426338   5.607   6.467   5.520  0.6270 -0.0951  0.4646
   63MOL   C17526339   5.701   6.411   5.613  0.7318 -0.0321  0.3342
   63MOL   C17626340   5.790   6.527   5.666  0.7063  0.7022 -0.2532
   63MOL   C17726341   5.919   6.485   5.739 -0.2330  0.5626  0.2696
   63MOL   C17826342   5.986   6.597   5.812 -0.2467 -0.4583 -0.2126
   63MOL   H17926343   5.509   6.581   5.279 -0.0661  0.6321  0.5522
   63MOL   H18026344   5.471   6.414   5.283  0.2074  0.5443  2.5608
   63MOL   H18126345   5.287   6.477   5.447  1.8127 -1.8396 -2.2443
   63MOL   H18226346   5.761   6.336   5.560  0.2778 -1.1649  1.4124
   63MOL   H18326347   5.645   6.362   5.692 -0.6523  1.6798  0.4471
   63MOL   H18426348   5.817   6.582   5.576  2.9469  0.3210  0.1546
   63MOL   H18526349   5.733   6.589   5.735  1.8740  1.1948  0.2950
   63MOL   H18626350   5.981   6.449   5.656 -1.8425 -2.5212  0.3453
   63MOL   H18726351   5.891   6.406   5.808 -2.7648  0.1887 -1.0998
   63MOL   H18826352   5.934   6.626   5.903  1.9240 -0.0133  0.9324
   63MOL   H18926353   6.014   6.682   5.749 -0.2510  0.2898  0.7785
   63MOL   H19026354   6.082   6.570   5.856  0.2202 -0.5634 -1.2917
   63MOL   C19126355   5.384   6.676   5.496 -0.0142  0.6511 -0.8495
   63MOL   C19226356   5.322   6.706   5.635 -0.8901  0.2798  0.1365
   63MOL   C19326357   5.368   6.836   5.704  0.1953 -0.2674  0.6631
   63MOL   O19426358   5.372   6.938   5.640  0.6960  0.2816 -0.1849
   63MOL   O19526359   5.390   6.819   5.840  0.0825 -0.0349 -0.1136
   63MOL   C19626360   5.428   6.931   5.918  0.9068 -1.0799  0.3378
   63MOL   C19726361   5.524   6.886   6.038  0.0622  0.1363 -0.2813
   63MOL   C19826362   5.661   6.839   6.000  0.1783 -0.2132 -0.1774
   63MOL   C19926363   5.757   6.819   6.115 -0.0487  0.1610  0.5259
   63MOL   H20026364   5.359   6.748   5.418 -0.0937 -0.0800 -1.5173
   63MOL   H20126365   5.487   6.708   5.504  0.9879 -2.5786 -0.1470
   63MOL   H20226366   5.361   6.625   5.697  0.0961  0.3681 -0.3472
   63MOL   H20326367   5.335   6.977   5.951  2.1662  1.6236  0.2833
   63MOL   H20426368   5.485   6.995   5.850 -1.4099  0.3515 -0.2994
   63MOL   H20526369   5.541   6.969   6.106  0.9251  0.1924 -0.5556
   63MOL   H20626370   5.466   6.808   6.090 -1.0021  0.0373 -1.5874
   63MOL   H20726371   5.711   6.920   5.946 -0.7790 -0.3374 -1.2729
   63MOL   H20826372   5.653   6.754   5.933  2.3057 -0.1182 -0.5968
   63MOL   H20926373   5.698   6.795   6.204 -0.3617 -0.0371  0.2639
   63MOL   H21026374   5.808   6.908   6.150 -0.6708  1.2108 -1.1862
   63MOL   H21126375   5.824   6.735   6.097 -0.7268  0.3261 -3.0522
   63MOL   C21226376   5.165   6.718   5.607  0.3153  0.1852  0.6421
   63MOL   C21326377   5.077   6.739   5.732  0.6043 -0.2876 -0.1919
   63MOL   C21426378   4.941   6.801   5.689  0.2853 -0.7220  0.1326
   63MOL   O21526379   4.901   6.904   5.745 -0.5715  0.1824 -0.1369
   63MOL   O21626380   4.873   6.726   5.595 -0.2534 -0.4033 -0.0346
   63MOL   C21726381   4.747   6.773   5.546 -0.0170 -0.4618  0.0349
   63MOL   C21826382   4.681   6.665   5.461  0.1374 -0.0009  0.0131
   63MOL   C21926383   4.548   6.713   5.400 -0.5256  0.1226 -0.4521
   63MOL   C22026384   4.462   6.595   5.358 -0.2213 -0.1126  0.6809
   63MOL   H22126385   5.143   6.626   5.553 -0.4288  0.4849  0.4243
   63MOL   H22226386   5.165   6.803   5.539 -1.3582 -0.0751  0.2848
   63MOL   H22326387   5.129   6.817   5.789 -0.1982 -1.2667  1.9497
   63MOL   H22426388   4.758   6.867   5.493 -0.4601  0.7182  1.9683
   63MOL   H22526389   4.678   6.798   5.627  0.4012 -0.0295  0.2596
   63MOL   H22626390   4.743   6.623   5.381  1.4054 -0.8089  1.4048
   63MOL   H22726391   4.666   6.583   5.530 -0.4577  0.4439  0.4155
   63MOL   H22826392   4.574   6.769   5.310  1.4459  1.6344  1.0062
   63MOL   H22926393   4.502   6.779   5.473 -1.5593 -1.4294  0.3449
   63MOL   H23026394   4.507   6.535   5.279  0.2713  1.0469  0.0690
   63MOL   H23126395   4.359   6.623   5.336  0.3458  2.2688  0.8365
   63MOL   H23226396   4.450   6.527   5.442  1.7200 -0.2822  0.8383
   63MOL   C23326397   5.059   6.609   5.822  0.4025  0.3931  0.5088
   63MOL   C23426398   5.146   6.613   5.952  0.6085 -0.2225  0.4744
   63MOL   C23526399   5.082   6.703   6.056  0.2747  0.4824 -0.4461
   63MOL   O23626400   5.139   6.799   6.109  0.1539 -0.1932  0.4713
   63MOL   O23726401   4.960   6.660   6.095 -0.3398 -0.2062 -0.3785
   63MOL   C23826402   4.861   6.742   6.153  0.1931  0.2484  0.6633
   63MOL   C23926403   4.763   6.799   6.049 -0.1158  0.0943  0.6442
   63MOL   C24026404   4.676   6.913   6.094 -0.0795 -0.0164 -0.0805
   63MOL   C24126405   4.591   6.965   5.978 -0.2711 -0.0841 -0.4350
   63MOL   H24226406   5.092   6.521   5.765 -0.7669  0.7172 -0.7061
   63MOL   H24326407   4.957   6.588   5.852  0.7595  1.4536  2.5447
   63MOL   H24426408   5.239   6.663   5.922 -0.1101  1.7080  1.3833
   63MOL   H24526409   4.893   6.830   6.210  1.3395  0.7289 -0.6890
   63MOL   H24626410   4.825   6.670   6.227  0.9622 -1.5598 -0.6889
   63MOL   H24726411   4.814   6.822   5.955 -0.8599  1.6442  0.6039
   63MOL   H24826412   4.689   6.721   6.025  0.5371 -0.0401 -1.0521
   63MOL   H24926413   4.743   6.998   6.108 -1.4041  0.8393  1.2769
   63MOL   H25026414   4.624   6.897   6.189 -0.9982  0.8199 -0.4307
   63MOL   H25126415   4.578   7.074   5.980 -0.6484 -0.1197 -0.7772
   63MOL   H25226416   4.497   6.911   5.969 -0.6518  0.6210 -0.7539
   63MOL   H25326417   4.641   6.951   5.883  0.4606 -5.0818  0.5482
   63MOL   C25426418   5.168   6.471   6.013 -0.1503 -0.9314  0.3091
   63MOL   C25526419   5.278   6.388   5.936  0.2590 -0.6374  0.4311
   63MOL   C25626420   5.421   6.432   5.969  0.9148 -0.4394 -0.6198
   63MOL   O25726421   5.498   6.474   5.882 -0.1642  0.2206 -0.0283
   63MOL   O25826422   5.438   6.438   6.105  0.3008 -0.1741  0.0965
   63MOL   C25926423   5.550   6.508   6.159 -0.1541  0.4186  0.1342
   63MOL   C26026424   5.601   6.429   6.277 -0.4014 -0.2464  0.6341
   63MOL   C26126425   5.697   6.515   6.361  0.2207  0.1106 -0.3784
   63MOL   C26226426   5.788   6.433   6.457  0.4399  1.1763 -0.0655
   63MOL   H26326427   5.080   6.408   6.007 -0.3477 -0.7986  1.5572
   63MOL   H26426428   5.189   6.473   6.121 -0.5856  0.0195  0.3859
   63MOL   H26526429   5.261   6.398   5.828  1.1085  0.7791  0.4129
   63MOL   H26626430   5.516   6.610   6.177 -0.9813 -0.0249  1.1662
   63MOL   H26726431   5.634   6.520   6.092 -0.7771  1.8129 -0.4083
   63MOL   H26826432   5.521   6.401   6.345  0.9706  0.0035  2.3842
   63MOL   H26926433   5.646   6.338   6.238 -1.2402 -0.7685  0.8824
   63MOL   H27026434   5.649   6.594   6.419 -1.8580 -2.0903  0.9917
   63MOL   H27126435   5.761   6.567   6.289 -0.2995 -0.6442 -1.4120
   63MOL   H27226436   5.729   6.407   6.545 -0.0447 -0.3851 -0.8407
   63MOL   H27326437   5.873   6.493   6.488  1.1013  0.6917 -0.9087
   63MOL   H27426438   5.815   6.339   6.409  0.6441  1.2801 -0.1550
   63MOL   C27526439   5.278   6.237   5.937  0.4637  0.4522  0.7863
   63MOL   C27626440   5.296   6.162   6.070 -0.6961  0.2434  0.4487
   63MOL   C27726441   5.176   6.176   6.162 -0.0073 -1.1579  1.0633
   63MOL   O27826442   5.066   6.136   6.126 -0.1000 -0.7645 -0.3888
   63MOL   O27926443   5.202   6.242   6.271 -0.9147  0.1135 -0.3025
   63MOL   C28026444   5.104   6.265   6.371  0.1270 -0.3351 -0.3185
   63MOL   C28126445   5.005   6.370   6.315  0.1229 -0.3419 -0.5554
   63MOL   C28226446   4.871   6.376   6.398 -0.3412 -0.6116 -0.4210
   63MOL   C28326447   4.888   6.471   6.519 -0.2468  0.1013 -0.2712
   63MOL   H28426448   5.349   6.210   5.859 -0.2904 -0.2495  0.3376
   63MOL   H28526449   5.183   6.205   5.894  0.7343 -0.3088  0.7563
   63MOL   H28626450   5.386   6.208   6.111 -0.4462 -0.1414  0.3457
   63MOL   H28726451   5.151   6.305   6.461 -0.5365  0.5519 -0.3608
   63MOL   H28826452   5.062   6.167   6.395 -0.3205 -0.4038 -1.3531
   63MOL   H28926453   5.065   6.461   6.314  2.1009 -1.5778  0.7222
   63MOL   H29026454   4.968   6.338   6.218 -0.6995 -1.5146  0.1275
   63MOL   H29126455   4.844   6.276   6.431  1.4230 -1.1897 -0.6903
   63MOL   H29226456   4.789   6.415   6.336  0.3782  1.0607 -0.3368
   63MOL   H29326457   4.927   6.570   6.497  0.6364 -0.2968 -0.4985
   63MOL   H29426458   4.961   6.428   6.589  0.8649 -0.4745 -1.7620
   63MOL   H29526459   4.798   6.471   6.580 -1.5414  0.7890 -2.1426
   63MOL   C29626460   5.329   6.009   6.054 -0.3377  0.3119 -0.0940
   63MOL   C29726461   5.481   5.964   6.040  0.3494  0.3595  0.2889
   63MOL   C29826462   5.543   6.030   5.914 -0.1296 -0.2101 -0.1461
   63MOL   O29926463   5.639   6.110   5.916  0.1227  0.3050  0.5177
   63MOL   O30026464   5.478   5.981   5.806  0.3941  0.0925 -0.6350
   63MOL   C30126465   5.507   6.039   5.676  0.5322 -0.1482  0.7387
   63MOL   C30226466   5.574   5.931   5.593 -0.5227 -0.0534  0.2829
   63MOL   C30326467   5.640   5.966   5.465 -0.2288  0.5462  0.4618
   63MOL   C30426468   5.770   6.047   5.486 -0.4247  0.3307  0.0499
   63MOL   H30526469   5.275   5.977   5.964  0.1702 -0.6503 -0.0625
   63MOL   H30626470   5.284   5.946   6.130 -1.3669  1.7693  0.5327
   63MOL   H30726471   5.486   5.858   6.019 -2.9578  0.4920 -1.6368
   63MOL   H30826472   5.572   6.125   5.687 -0.6990  0.9247 -0.1260
   63MOL   H30926473   5.411   6.079   5.642  0.6881  0.6530  1.2277
   63MOL   H31026474   5.641   5.876   5.660  0.8381  0.8733 -0.2977
   63MOL   H31126475   5.501   5.856   5.561 -0.2550 -0.1994  0.0207
   63MOL   H31226476   5.573   6.029   5.406 -1.1221 -2.9776 -2.4909
   63MOL   H31326477   5.658   5.877   5.404 -1.9359 -0.5205  1.4841
   63MOL   H31426478   5.858   5.983   5.484 -0.1339  0.7110  0.4141
   63MOL   H31526479   5.767   6.099   5.582  0.0186  0.6075 -0.0840
   63MOL   H31626480   5.792   6.117   5.406  0.9214  0.6772  0.7064
   63MOL   C31726481   5.571   5.992   6.164  0.7696 -0.1540  0.2959
   63MOL   C31826482   5.531   5.918   6.293  0.3925 -0.0458 -0.5190
   63MOL   C31926483   5.541   5.766   6.274 -0.0371  0.2749 -0.1864
   63MOL   O32026484   5.436   5.700   6.284  0.4505  0.1927  0.0236
   63MOL   O32126485   5.659   5.721   6.245 -0.7407 -0.2160  0.4012
   63MOL   C32226486   5.672   5.580   6.225  0.1165  0.1606  1.2010
   63MOL   C32326487   5.818   5.535   6.244 -0.9664  0.4702 -0.2934
   63MOL   C32426488   5.834   5.378   6.233 -0.5450  0.6975 -0.1408
   63MOL   C32526489   5.978   5.332   6.240  0.4244 -0.5265 -0.3162
   63MOL   H32626490   5.587   6.099   6.175  1.9585 -0.0086 -2.6052
   63MOL   H32726491   5.675   5.965   6.148  0.9623  0.7171  0.0782
   63MOL   H32826492   5.426   5.947   6.297 -0.4190 -2.8745  0.0004
   63MOL   H32926493   5.640   5.543   6.127  1.3013  0.7346  0.5897
   63MOL   H33026494   5.633   5.523   6.309 -2.0541  1.1645  0.8989
   63MOL   H33126495   5.881   5.591   6.174  1.0476  0.8732  1.7980
   63MOL   H33226496   5.856   5.557   6.343 -2.5625 -0.0537  0.4560
   63MOL   H33326497   5.788   5.322   6.152  2.4863 -1.8202 -0.2181
   63MOL   H33426498   5.776   5.335   6.314 -1.8178 -0.4834 -1.6559
   63MOL   H33526499   6.015   5.355   6.340  0.5643  0.5682 -0.6150
   63MOL   H33626500   6.031   5.368   6.152  1.2886 -2.5976 -0.6785
   63MOL   H33726501   5.966   5.224   6.236 -0.4855 -0.4977  1.1385
   63MOL   C33826502   5.606   5.964   6.425  0.0708  0.5055  0.7479
   63MOL   C33926503   5.545   5.942   6.564  0.8530 -0.6773 -0.2271
   63MOL   C34026504   5.632   5.996   6.679 -0.8791 -0.0863 -0.0167
   63MOL   O34126505   5.605   6.090   6.751  0.5935 -0.0055 -0.1175
   63MOL   O34226506   5.730   5.908   6.698 -0.1987  0.5517  0.1992
   63MOL   C34326507   5.818   5.932   6.804 -0.5323 -0.3831  0.2026
   63MOL   C34426508   5.956   6.007   6.769  0.1294  0.8346  0.1294
   63MOL   C34526509   5.940   6.152   6.724  0.1336 -0.0549 -0.3410
   63MOL   C34626510   6.069   6.220   6.667 -0.3739  0.2527 -0.5876
   63MOL   H34726511   5.618   6.072   6.416  2.9986  0.1422 -0.3169
   63MOL   H34826512   5.706   5.921   6.422  0.6345  1.7819  0.6336
   63MOL   H34926513   5.552   5.833   6.572  1.9192 -0.6833 -1.1243
   63MOL   H35026514   5.843   5.831   6.838  1.8745 -0.3875 -1.4480
   63MOL   H35126515   5.760   5.972   6.887  0.5529  3.3533 -0.7720
   63MOL   H35226516   6.012   6.001   6.862  0.9074 -1.2751 -0.4416
   63MOL   H35326517   6.001   5.960   6.681 -0.3383  2.4718 -1.0176
   63MOL   H35426518   5.907   6.207   6.812  2.3738 -1.0605  1.1789
   63MOL   H35526519   5.869   6.154   6.642  0.9833  1.8758 -1.0634
   63MOL   H35626520   6.101   6.179   6.571  0.2513 -0.0855 -0.2371
   63MOL   H35726521   6.137   6.203   6.750 -2.4722 -1.0107  0.9184
   63MOL   H35826522   6.072   6.329   6.657 -0.6205  0.2671 -0.5083
   63MOL   C35926523   5.398   5.989   6.572 -0.4309  0.0783 -0.3302
   63MOL   C36026524   5.326   5.941   6.701 -0.2815 -1.3194  0.2749
   63MOL   C36126525   5.195   6.015   6.721  0.3224  0.0766 -0.0754
   63MOL   O36226526   5.111   6.034   6.631  0.1171 -0.2956 -0.7219
   63MOL   O36326527   5.183   6.045   6.850 -0.2767  0.2324 -0.1927
   63MOL   C36426528   5.070   6.121   6.898 -0.5999  0.2002 -0.0539
   63MOL   C36526529   4.959   6.034   6.973 -0.6775 -0.1627  0.0061
   63MOL   C36626530   4.867   5.964   6.876 -0.0308 -0.2973 -0.3593
   63MOL   C36726531   4.765   6.059   6.802 -0.0686 -0.2574  0.2803
   63MOL   H36826532   5.341   5.961   6.483 -1.6446  0.5477  0.2778
   63MOL   H36926533   5.400   6.095   6.548  0.8546 -0.2421 -1.6923
   63MOL   H37026534   5.377   5.959   6.796 -0.3313  0.8352 -0.0947
   63MOL   H37126535   5.031   6.194   6.827 -4.1087 -1.0579  0.4846
   63MOL   H37226536   5.112   6.185   6.975 -1.9719  0.4877  0.4700
   63MOL   H37326537   5.014   5.958   7.029  1.9608  2.4340  1.0567
   63MOL   H37426538   4.891   6.091   7.036  0.6492  1.0897  0.3445
   63MOL   H37526539   4.805   5.887   6.921 -1.5636  1.2177  0.1520
   63MOL   H37626540   4.929   5.907   6.807 -1.4325 -1.6113 -0.5445
   63MOL   H37726541   4.686   6.099   6.865  1.2329 -0.2972  1.9849
   63MOL   H37826542   4.705   5.998   6.735  1.2038 -0.9434 -0.2702
   63MOL   H37926543   4.800   6.139   6.737 -1.6313 -1.2060 -1.7899
   63MOL   C38026544   5.304   5.782   6.702 -1.1054  0.1823 -0.4248
   63MOL   C38126545   5.226   5.717   6.810  0.6597  0.2015 -0.1252
   63MOL   C38226546   5.199   5.570   6.785  0.6362 -0.3006  0.0576
   63MOL   O38326547   5.247   5.476   6.853  0.5200 -0.0780 -0.2593
   63MOL   O38426548   5.120   5.549   6.680  0.1210 -0.3051  0.8837
   63MOL   C38526549   5.095   5.414   6.644 -0.1673  0.1960 -0.0946
   63MOL   C38626550   5.016   5.414   6.509 -0.1437  0.5374  0.1201
   63MOL   C38726551   5.018   5.279   6.434 -0.1987 -0.3088  0.0345
   63MOL   C38826552   4.919   5.174   6.486 -0.3204 -0.1915  0.8344
   63MOL   H38926553   5.402   5.735   6.710 -1.6721 -0.6840  1.6708
   63MOL   H39026554   5.262   5.750   6.606 -0.1550  0.9405 -1.1031
   63MOL   H39126555   5.121   5.747   6.811  0.5304 -0.2614  0.7818
   63MOL   H39226556   5.040   5.368   6.726  0.8780 -1.2997 -0.2131
   63MOL   H39326557   5.190   5.361   6.638 -0.7070 -0.8706  0.5773
   63MOL   H39426558   4.910   5.442   6.511 -1.0748 -2.6976 -0.3755
   63MOL   H39526559   5.059   5.491   6.445  0.5738  0.3023  0.3195
   63MOL   H39626560   5.118   5.234   6.435 -0.6448 -1.2919  0.6880
   63MOL   H39726561   4.988   5.298   6.330 -0.8777  1.0326  0.4602
   63MOL   H39826562   4.817   5.213   6.480  0.1340  0.5324 -4.5365
   63MOL   H39926563   4.941   5.145   6.589  1.2131 -0.0722  0.5506
   63MOL   H40026564   4.921   5.081   6.429 -1.8935  0.4211 -0.2347
   63MOL   C40126565   5.271   5.747   6.959  0.8409  0.5499  0.2867
   63MOL   C40226566   5.412   5.727   6.997 -0.6462  0.3708  0.3174
   63MOL   C40326567   5.456   5.770   7.138  0.9307 -0.9779  0.1527
   63MOL   O40426568   5.557   5.833   7.149  0.1756 -0.0262 -0.3308
   63MOL   O40526569   5.374   5.735   7.243 -0.5297 -0.3011  0.5415
   63MOL   C40626570   5.410   5.785   7.367 -0.2902 -0.2365 -0.9073
   63MOL   C40726571   5.378   5.937   7.390  0.2393  0.3263  0.3813
   63MOL   C40826572   5.228   5.976   7.377 -0.2216 -0.0454 -0.8139
   63MOL   C40926573   5.196   6.121   7.393 -0.0153  0.2224 -0.8131
   63MOL   H41026574   5.217   5.702   7.042  1.2712  1.0807  0.8497
   63MOL   H41126575   5.258   5.855   6.965 -1.4054  0.3278 -0.1641
   63MOL   H41226576   5.479   5.787   6.936 -1.6239  0.5056 -0.6335
   63MOL   H41326577   5.518   5.779   7.382 -0.1674  0.3770 -1.5057
   63MOL   H41426578   5.352   5.733   7.443 -1.3663 -0.4331 -1.8460
   63MOL   H41526579   5.412   5.955   7.492 -0.5684 -1.3537  0.9581
   63MOL   H41626580   5.422   6.001   7.313 -0.8616  0.5683 -0.0541
   63MOL   H41726581   5.188   5.916   7.459 -1.8558  0.4309 -1.2595
   63MOL   H41826582   5.180   5.937   7.288 -0.1983 -1.4422 -0.2212
   63MOL   H41926583   5.244   6.172   7.477 -0.5755  0.6820 -0.7690
   63MOL   H42026584   5.090   6.143   7.399 -0.0710 -0.5777  1.3447
   63MOL   H42126585   5.226   6.182   7.308  0.7299 -0.3484 -0.9689
   63MOL   H42226586   5.431   5.621   6.981 -1.3527  0.3820 -0.6616
   64MOL     C126587   6.060   2.736   6.608  0.5996 -0.1829  0.0048
   64MOL     C226588   6.115   2.828   6.713 -0.3994  0.3185  0.0360
   64MOL     C326589   6.268   2.847   6.703 -0.1194 -0.1604 -0.4524
   64MOL     O426590   6.336   2.838   6.810  0.1727 -0.1653 -0.1248
   64MOL     O526591   6.309   2.870   6.573 -0.2193 -0.5829  0.2459
   64MOL     C626592   6.440   2.846   6.542 -0.4665 -0.0983  0.2148
   64MOL     C726593   6.462   2.853   6.389  0.1545  0.2874  0.1536
   64MOL     C826594   6.360   2.773   6.302  0.1213 -0.0652 -0.3042
   64MOL     C926595   6.365   2.797   6.150  0.3656 -0.6760  0.3504
   64MOL    H1026596   5.952   2.736   6.600  0.5063 -0.8405  1.2543
   64MOL    H1126597   6.100   2.754   6.507 -2.9072  0.6648 -1.2819
   64MOL    H1226598   6.097   2.774   6.806  1.6059 -0.5227 -0.0415
   64MOL    H1326599   6.466   2.746   6.577  2.2249  0.4992  0.0412
   64MOL    H1426600   6.504   2.915   6.596 -2.1071  0.5656  1.3394
   64MOL    H1526601   6.467   2.954   6.349 -1.8797  0.2597 -0.2157
   64MOL    H1626602   6.560   2.804   6.385  0.9055  1.5917  1.8450
   64MOL    H1726603   6.257   2.779   6.338  0.3252 -0.8190  0.4182
   64MOL    H1826604   6.392   2.671   6.318 -1.2780 -0.3778  0.5832
   64MOL    H1926605   6.461   2.803   6.098 -0.5496 -0.9423 -1.3903
   64MOL    H2026606   6.314   2.891   6.128 -0.3166 -0.8606  1.1466
   64MOL    H2126607   6.313   2.716   6.100  0.7387 -0.9802  0.4552
   64MOL    H2226608   6.083   2.632   6.632 -1.1775 -0.1603  1.9093
   64MOL    C2326609   6.046   2.962   6.725 -0.0783  0.0299  0.4644
   64MOL    C2426610   6.042   3.059   6.602  0.0098  0.7397  1.1661
   64MOL    C2526611   5.929   3.038   6.504  0.3448 -0.0426 -0.3717
   64MOL    O2626612   5.945   2.991   6.395 -0.0337  0.0269  0.3775
   64MOL    O2726613   5.808   3.075   6.554 -0.1183 -0.6392  0.4152
   64MOL    C2826614   5.692   3.056   6.484  0.6639  0.8323  0.3135
   64MOL    C2926615   5.625   3.189   6.444 -0.1164 -0.3909 -0.3126
   64MOL    C3026616   5.496   3.179   6.352 -0.0972  0.9819  0.2221
   64MOL    C3126617   5.449   3.306   6.282 -0.2873  0.2624  0.2164
   64MOL    H3226618   6.075   3.019   6.814 -1.2319  2.1199 -0.4554
   64MOL    H3326619   5.945   2.930   6.751 -0.6320  1.7097  0.4169
   64MOL    H3426620   6.134   3.042   6.547 -1.9425 -1.7686 -1.4747
   64MOL    H3526621   5.625   3.000   6.550  0.1508  0.9558 -0.1030
   64MOL    H3626622   5.698   2.999   6.392  1.3122 -0.6631  1.2592
   64MOL    H3726623   5.605   3.263   6.521  0.4011  0.5176 -1.0403
   64MOL    H3826624   5.691   3.247   6.380 -2.1482  1.0452 -1.1677
   64MOL    H3926625   5.416   3.136   6.414  2.4653 -1.5622  1.8965
   64MOL    H4026626   5.513   3.108   6.271  0.0442  1.7488 -0.4245
   64MOL    H4126627   5.351   3.290   6.236 -0.0523  0.0104 -0.2034
   64MOL    H4226628   5.527   3.353   6.223 -0.5503 -2.0227 -2.0836
   64MOL    H4326629   5.427   3.369   6.368  0.9115  0.2748  0.5189
   64MOL    C4426630   6.047   3.209   6.642 -0.1791 -0.7983  0.2300
   64MOL    C4526631   6.182   3.284   6.619 -0.2861  1.0026 -0.2301
   64MOL    C4626632   6.159   3.437   6.627 -0.1358  0.0471  0.0345
   64MOL    O4726633   6.067   3.489   6.692  0.2142 -0.8065 -0.2813
   64MOL    O4826634   6.247   3.508   6.560  0.2244  0.0430  0.5055
   64MOL    C4926635   6.240   3.648   6.551 -0.7142  0.0115  0.4128
   64MOL    C5026636   6.353   3.694   6.466 -0.9192  0.1705 -0.4932
   64MOL    C5126637   6.351   3.665   6.320 -0.1789 -0.1501  0.3747
   64MOL    C5226638   6.498   3.634   6.286  0.1879  0.4549  1.0355
   64MOL    H5326639   6.033   3.219   6.750  1.3866  0.8980  0.3065
   64MOL    H5426640   5.963   3.260   6.596  0.7619  1.7717  1.2167
   64MOL    H5526641   6.220   3.268   6.519  3.7548  2.3789  0.9835
   64MOL    H5626642   6.258   3.698   6.646  1.6804  0.6192 -0.3360
   64MOL    H5726643   6.142   3.681   6.515 -0.3399 -1.6528 -2.3072
   64MOL    H5826644   6.358   3.801   6.482  0.0675  0.3048 -1.6067
   64MOL    H5926645   6.449   3.669   6.512 -1.9264 -0.0870  1.5280
   64MOL    H6026646   6.314   3.746   6.258 -1.3532 -0.6255  0.4512
   64MOL    H6126647   6.273   3.593   6.297 -1.4876  0.9740  1.2378
   64MOL    H6226648   6.568   3.707   6.327 -0.1005  1.4013 -0.1419
   64MOL    H6326649   6.511   3.647   6.178 -1.2171  0.8566  0.9105
   64MOL    H6426650   6.538   3.534   6.304  0.9886  0.1385 -2.1587
   64MOL    C6526651   6.285   3.231   6.719  0.2442 -0.3584 -0.2094
   64MOL    C6626652   6.426   3.281   6.698  0.1546 -0.1952 -0.0092
   64MOL    C6726653   6.515   3.224   6.813  0.2714  0.3365  0.0553
   64MOL    O6826654   6.559   3.297   6.897  0.6162 -0.5495  0.1240
   64MOL    O6926655   6.531   3.092   6.800  0.0309  0.1934  0.2475
   64MOL    C7026656   6.600   3.010   6.897  0.4504 -0.1510  0.3681
   64MOL    C7126657   6.746   3.033   6.884  0.2722  0.4180 -0.6503
   64MOL    C7226658   6.812   2.962   6.756  0.5982 -0.2086 -0.3489
   64MOL    C7326659   6.965   2.978   6.752  0.7966  0.1159 -0.8674
   64MOL    H7426660   6.285   3.123   6.702 -2.1644 -0.4463  0.0804
   64MOL    H7526661   6.255   3.250   6.822 -0.3725  0.0641 -0.4645
   64MOL    H7626662   6.431   3.387   6.719 -0.2213 -0.1627 -0.0835
   64MOL    H7726663   6.564   2.909   6.877 -2.1777  0.9338 -0.6136
   64MOL    H7826664   6.560   3.033   6.996 -1.2315 -1.5946  0.0361
   64MOL    H7926665   6.785   3.134   6.895  2.3484 -0.1374 -2.4347
   64MOL    H8026666   6.794   2.980   6.966 -1.9078 -2.3564 -1.0702
   64MOL    H8126667   6.766   2.984   6.659  1.8734 -0.7748 -1.0965
   64MOL    H8226668   6.797   2.855   6.773 -0.3664 -0.2983 -1.6214
   64MOL    H8326669   7.009   2.956   6.849  0.3322 -0.5953 -0.8086
   64MOL    H8426670   6.996   3.078   6.722  1.4858 -0.0652 -0.7667
   64MOL    H8526671   7.007   2.905   6.683 -1.5467 -2.2793  0.1584
   64MOL    C8626672   6.481   3.247   6.555 -0.9473 -0.6314 -0.2557
   64MOL    C8726673   6.638   3.268   6.533  0.1728  0.0199  0.1448
   64MOL    C8826674   6.680   3.195   6.400 -0.0789  0.0672  0.6902
   64MOL    O8926675   6.743   3.090   6.406  0.7475  0.1861 -0.1141
   64MOL    O9026676   6.625   3.253   6.293 -0.0893 -0.0362  0.3865
   64MOL    C9126677   6.648   3.197   6.162 -0.2053 -0.3877  0.0207
   64MOL    C9226678   6.707   3.308   6.071 -0.3355 -0.2287  0.0263
   64MOL    C9326679   6.700   3.247   5.930 -0.0362  0.8909 -0.1734
   64MOL    C9426680   6.793   3.320   5.832  0.1472 -0.0832 -0.7456
   64MOL    H9526681   6.435   3.307   6.476 -1.9319 -0.2344  0.6247
   64MOL    H9626682   6.445   3.149   6.527 -3.6009  0.7887 -1.9787
   64MOL    H9726683   6.702   3.224   6.609  1.5685  3.1166  0.8423
   64MOL    H9826684   6.551   3.170   6.120 -0.1664  0.1825 -0.4465
   64MOL    H9926685   6.712   3.109   6.163 -1.2626 -1.2265 -1.9873
   64MOL   H10026686   6.658   3.404   6.084  0.6902  0.1371  1.2748
   64MOL   H10126687   6.812   3.314   6.101 -1.3723  1.9248  3.3929
   64MOL   H10226688   6.597   3.232   5.898  0.2070 -1.7580  0.1733
   64MOL   H10326689   6.726   3.141   5.934 -1.7225  0.4853  1.1371
   64MOL   H10426690   6.749   3.420   5.831 -0.4964 -0.3656 -1.0208
   64MOL   H10526691   6.781   3.272   5.735 -0.8512  1.6754 -1.5109
   64MOL   H10626692   6.901   3.330   5.846  0.2940 -1.7565 -0.5841
   64MOL   C10726693   6.687   3.412   6.551 -0.3416  0.1113 -0.3000
   64MOL   C10826694   6.787   3.426   6.671 -0.0038 -0.3532 -0.0235
   64MOL   C10926695   6.923   3.359   6.648  0.2535  0.0008  0.2906
   64MOL   O11026696   6.996   3.336   6.745 -0.0808 -0.7425 -0.7497
   64MOL   O11126697   6.946   3.338   6.522  0.0255 -0.0557  0.4825
   64MOL   C11226698   7.077   3.305   6.479  0.1905 -0.1620  0.5816
   64MOL   C11326699   7.073   3.301   6.327  0.0937 -1.0345  0.3029
   64MOL   C11426700   7.121   3.433   6.264 -0.3091 -0.2402 -0.0995
   64MOL   C11526701   7.143   3.437   6.110  0.4653  0.1521  0.3723
   64MOL   H11626702   6.600   3.470   6.583 -0.6936 -0.6723  0.1780
   64MOL   H11726703   6.728   3.460   6.463  1.0415  0.6214  0.6062
   64MOL   H11826704   6.752   3.377   6.762  1.6462  2.0624  1.9680
   64MOL   H11926705   7.091   3.206   6.523  1.7963  0.2874  1.1222
   64MOL   H12026706   7.158   3.369   6.513  2.7119 -1.3620 -2.8159
   64MOL   H12126707   7.144   3.224   6.296 -0.9438 -1.6839 -0.4703
   64MOL   H12226708   6.977   3.266   6.290 -0.4370  1.9955 -1.3199
   64MOL   H12326709   7.223   3.450   6.295 -0.5259  3.3905 -1.1684
   64MOL   H12426710   7.074   3.524   6.302 -0.5264 -0.5284  0.3266
   64MOL   H12526711   7.231   3.383   6.075 -0.2643 -0.3586 -0.6844
   64MOL   H12626712   7.160   3.535   6.066  0.4495 -0.0426 -0.0678
   64MOL   H12726713   7.056   3.390   6.064 -0.0923  1.3623  0.1849
   64MOL   C12826714   6.817   3.577   6.696 -0.7726  0.3496  0.1510
   64MOL   C12926715   6.711   3.685   6.708  0.1771 -0.8583  0.1057
   64MOL   C13026716   6.636   3.656   6.838  0.0247 -0.2897 -0.1621
   64MOL   O13126717   6.694   3.673   6.948 -0.3057  0.2626  0.1741
   64MOL   O13226718   6.518   3.608   6.823 -0.5266 -0.6497  0.2719
   64MOL   C13326719   6.423   3.587   6.935  0.0463 -0.4974  0.3247
   64MOL   C13426720   6.307   3.690   6.932 -0.2675  0.3688 -0.2105
   64MOL   C13526721   6.231   3.691   7.062 -0.2187  0.4381 -0.0392
   64MOL   C13626722   6.117   3.795   7.075  0.7928 -0.5606  0.3606
   64MOL   H13726723   6.889   3.614   6.624  0.6300  0.1743  1.4459
   64MOL   H13826724   6.886   3.583   6.780 -0.3512 -1.1656 -0.0846
   64MOL   H13926725   6.646   3.689   6.620  0.1215 -1.1453  0.1337
   64MOL   H14026726   6.488   3.581   7.022  0.3715 -1.8111  0.0076
   64MOL   H14126727   6.385   3.485   6.932  1.2227 -0.9449  0.1455
   64MOL   H14226728   6.348   3.789   6.915  1.9471 -0.4424  0.2604
   64MOL   H14326729   6.232   3.666   6.856 -1.1175  1.1190  0.3908
   64MOL   H14426730   6.304   3.702   7.142 -0.6853  0.5787  0.3738
   64MOL   H14526731   6.182   3.597   7.086 -2.0336  0.8056 -2.0965
   64MOL   H14626732   6.156   3.896   7.088  0.7467 -0.2012 -2.1355
   64MOL   H14726733   6.072   3.787   7.174 -2.4467  1.9739 -0.7994
   64MOL   H14826734   6.042   3.787   6.997  1.5264  0.1646 -0.4292
   64MOL   C14926735   6.768   3.830   6.710  0.3516  0.0036 -1.1013
   64MOL   C15026736   6.804   3.882   6.563 -0.1365 -0.7485  0.3776
   64MOL   C15126737   6.675   3.932   6.502  0.1171 -0.5638  0.7597
   64MOL   O15226738   6.572   3.944   6.570  0.0161  0.9513  0.1573
   64MOL   O15326739   6.679   3.960   6.370 -0.3412 -0.3100 -0.3295
   64MOL   C15426740   6.573   4.008   6.300  0.3428 -0.1523 -0.5379
   64MOL   C15526741   6.601   4.023   6.156  0.1415  0.5442  0.2930
   64MOL   C15626742   6.480   4.063   6.073  0.1073 -0.0356  0.1325
   64MOL   C15726743   6.398   3.948   6.021 -0.5702  0.5838 -0.2737
   64MOL   H15826744   6.859   3.829   6.770 -0.7930 -2.9966  0.6779
   64MOL   H15926745   6.701   3.893   6.768  1.4074  0.5893 -0.4945
   64MOL   H16026746   6.834   3.793   6.507 -1.4162 -0.5246 -0.6947
   64MOL   H16126747   6.540   4.102   6.345 -1.8409 -2.1306  2.1939
   64MOL   H16226748   6.495   3.935   6.322  0.0783  1.3539  4.1066
   64MOL   H16326749   6.661   4.113   6.144  1.8181 -0.5167  0.4378
   64MOL   H16426750   6.660   3.940   6.115  1.4690  1.4485  0.3513
   64MOL   H16526751   6.511   4.117   5.984  0.2423  3.0495  1.9721
   64MOL   H16626752   6.427   4.144   6.124  0.3560 -1.4126  2.6734
   64MOL   H16726753   6.353   3.979   5.926 -0.1658  0.7653 -0.4081
   64MOL   H16826754   6.314   3.927   6.087  0.0016  0.7225  0.4997
   64MOL   H16926755   6.462   3.864   5.996  0.4856  1.4035 -0.3520
   64MOL   C17026756   6.914   3.987   6.542  0.2239 -0.2324 -0.2705
   64MOL   C17126757   6.885   4.139   6.570 -0.0050  0.0324  0.1183
   64MOL   C17226758   6.885   4.168   6.722 -0.4840 -0.2888  0.4696
   64MOL   O17326759   6.987   4.203   6.785  0.1952  0.2850 -0.1047
   64MOL   O17426760   6.763   4.166   6.760  0.9633 -0.2900 -0.3442
   64MOL   C17526761   6.730   4.210   6.887 -0.6687 -0.0471  0.3228
   64MOL   C17626762   6.581   4.213   6.910  0.2207 -0.1105 -0.4342
   64MOL   C17726763   6.524   4.171   7.040  0.2054 -0.6832  0.1574
   64MOL   C17826764   6.544   4.280   7.143  0.4188  0.0021 -0.2375
   64MOL   H17926765   6.954   3.979   6.441  1.6077  0.5766  0.2047
   64MOL   H18026766   6.996   3.956   6.607  0.0292 -2.2892 -0.9584
   64MOL   H18126767   6.787   4.164   6.529  0.9243 -0.5010 -2.5168
   64MOL   H18226768   6.777   4.306   6.910 -1.5832  0.3542  0.5295
   64MOL   H18326769   6.770   4.130   6.949  0.2922  0.2732  0.1313
   64MOL   H18426770   6.543   4.309   6.876  0.9001  0.6261  0.8404
   64MOL   H18526771   6.554   4.140   6.833  2.4819 -1.2519 -0.1959
   64MOL   H18626772   6.555   4.073   7.076 -0.1456 -0.7964  0.1474
   64MOL   H18726773   6.417   4.162   7.020  0.1727  1.0067 -0.4682
   64MOL   H18826774   6.542   4.238   7.243 -1.6093  1.5018  0.3926
   64MOL   H18926775   6.471   4.361   7.145  1.8387  1.3481 -1.5969
   64MOL   H19026776   6.638   4.332   7.127  0.6044 -0.3755 -0.3742
   64MOL   C19126777   6.989   4.227   6.497 -0.3477 -0.3522  0.4817
   64MOL   C19226778   6.952   4.263   6.347 -0.2898 -0.4318 -0.0308
   64MOL   C19326779   6.842   4.373   6.339  0.5017  0.1342 -0.0300
   64MOL   O19426780   6.738   4.356   6.275  0.2056 -0.5647 -0.3242
   64MOL   O19526781   6.877   4.488   6.407 -0.0967 -0.2532 -0.1563
   64MOL   C19626782   6.806   4.607   6.376 -0.1499  0.8141 -0.6400
   64MOL   C19726783   6.847   4.676   6.249  0.1922 -0.0559 -0.4164
   64MOL   C19826784   6.767   4.812   6.237 -0.6477  0.5270  0.0454
   64MOL   C19926785   6.779   4.909   6.121  0.2363  0.3427  0.0536
   64MOL   H20026786   7.082   4.170   6.507 -0.1373 -0.6960 -2.8010
   64MOL   H20126787   7.019   4.319   6.546  0.8610 -1.2750  1.5378
   64MOL   H20226788   6.925   4.168   6.302 -1.7037 -0.3137  0.5403
   64MOL   H20326789   6.825   4.665   6.466  0.3099  1.0655 -0.8958
   64MOL   H20426790   6.700   4.585   6.375  0.2050 -0.9960 -0.7146
   64MOL   H20526791   6.956   4.686   6.251  0.3314 -1.2741 -1.3322
   64MOL   H20626792   6.816   4.615   6.164 -2.9032 -1.5125  1.6395
   64MOL   H20726793   6.817   4.865   6.319  0.6817  0.3620 -0.6379
   64MOL   H20826794   6.664   4.790   6.265 -0.1559 -0.6583  0.9854
   64MOL   H20926795   6.887   4.921   6.107  0.5887  1.2819  3.2155
   64MOL   H21026796   6.741   5.010   6.135  0.9379  1.0484 -2.8251
   64MOL   H21126797   6.742   4.864   6.029  1.8703  2.1903 -1.5463
   64MOL   C21226798   7.076   4.302   6.272  0.0432  0.7563  0.5580
   64MOL   C21326799   7.090   4.283   6.117 -0.0370 -0.4043 -0.0884
   64MOL   C21426800   7.121   4.138   6.076  0.0108 -0.1630 -0.4280
   64MOL   O21526801   7.067   4.048   6.136 -0.1382 -0.2647  0.4847
   64MOL   O21626802   7.198   4.118   5.969 -0.0819  0.4080 -0.3548
   64MOL   C21726803   7.229   3.984   5.918  0.0530  0.0011  0.0090
   64MOL   C21826804   7.365   3.947   5.959  0.2297  0.0797  0.0128
   64MOL   C21926805   7.386   3.795   5.936  0.7716  0.5665 -0.1461
   64MOL   C22026806   7.525   3.743   5.975  0.2477  0.3648 -0.1681
   64MOL   H22126807   7.154   4.241   6.317 -0.4636  0.3949  0.9538
   64MOL   H22226808   7.106   4.396   6.319  3.9194 -0.6772  1.0995
   64MOL   H22326809   7.185   4.327   6.086 -0.8767  0.7477 -1.0731
   64MOL   H22426810   7.233   3.982   5.809 -0.8081 -0.6623 -0.0157
   64MOL   H22526811   7.159   3.911   5.959  1.8682 -0.7482  1.8566
   64MOL   H22626812   7.431   4.008   5.897  0.2405  2.4451  2.2873
   64MOL   H22726813   7.391   3.975   6.061  2.3786  0.5298 -0.6312
   64MOL   H22826814   7.371   3.766   5.832  0.6020 -0.2212  0.0882
   64MOL   H22926815   7.316   3.741   5.999  1.3281 -0.2580 -0.2190
   64MOL   H23026816   7.517   3.635   5.970  1.1416  0.2149  1.2374
   64MOL   H23126817   7.546   3.760   6.081  0.7635  0.4187 -0.2770
   64MOL   H23226818   7.614   3.774   5.920  0.8040 -1.7367 -0.4703
   64MOL   C23326819   6.979   4.344   6.039  0.0804  0.2983  0.5321
   64MOL   C23426820   6.996   4.372   5.887  0.4293 -0.6357  0.6709
   64MOL   C23526821   6.868   4.435   5.839  0.2019  0.9521  0.5431
   64MOL   O23626822   6.803   4.369   5.759  0.4179 -0.0600 -0.0444
   64MOL   O23726823   6.824   4.546   5.892  0.1693  0.3630  0.1112
   64MOL   C23826824   6.718   4.625   5.830 -0.3026 -0.2240  0.8930
   64MOL   C23926825   6.578   4.574   5.866 -0.3557  0.3021  0.1677
   64MOL   C24026826   6.540   4.562   6.014  0.0971  0.1987  0.5405
   64MOL   C24126827   6.400   4.520   6.019  0.1031  0.2482  0.1477
   64MOL   H24226828   6.949   4.438   6.084 -1.0036  0.0339  0.3691
   64MOL   H24326829   6.889   4.283   6.051  0.4214 -0.2391  0.3606
   64MOL   H24426830   7.017   4.280   5.833  3.8283  0.2441  0.3546
   64MOL   H24526831   6.739   4.637   5.724  0.7852  0.5702  1.1923
   64MOL   H24626832   6.722   4.726   5.871 -1.0799 -0.3179  1.2078
   64MOL   H24726833   6.526   4.655   5.814  2.0703  1.7723 -0.0750
   64MOL   H24826834   6.559   4.479   5.817  0.6498 -0.0514  0.4373
   64MOL   H24926835   6.555   4.655   6.068 -1.2127 -0.1522  1.5254
   64MOL   H25026836   6.608   4.490   6.061  0.7750  0.2569 -0.3437
   64MOL   H25126837   6.341   4.610   6.008  2.0646  1.7582  1.5718
   64MOL   H25226838   6.385   4.496   6.124 -0.7671  0.0873 -0.0125
   64MOL   H25326839   6.384   4.443   5.943 -1.7403  1.0637 -0.3154
   64MOL   C25426840   7.113   4.470   5.858 -0.6049  0.4932 -0.2264
   64MOL   C25526841   7.164   4.468   5.710 -0.6046  0.5174 -1.0140
   64MOL   C25626842   7.085   4.568   5.625 -0.1643 -0.8116  0.4854
   64MOL   O25726843   7.024   4.663   5.671  0.5438  0.1005 -0.2841
   64MOL   O25826844   7.090   4.531   5.494 -0.5506 -0.1482  0.2699
   64MOL   C25926845   7.013   4.612   5.406 -0.3657  0.2327  0.3395
   64MOL   C26026846   7.107   4.651   5.288 -0.4603 -0.0151 -0.2216
   64MOL   C26126847   7.226   4.727   5.327  0.0959  0.0698  0.2081
   64MOL   C26226848   7.319   4.759   5.213  0.1613 -0.3819  0.4407
   64MOL   H26326849   7.199   4.438   5.917 -0.2779  0.5260 -0.6747
   64MOL   H26426850   7.099   4.568   5.901 -0.3055 -0.4733  2.1298
   64MOL   H26526851   7.137   4.370   5.670 -1.1997 -0.2247  1.1251
   64MOL   H26626852   6.979   4.706   5.451 -2.8906 -1.4321  2.0414
   64MOL   H26726853   6.923   4.557   5.377 -1.8535  2.6896  0.1089
   64MOL   H26826854   7.144   4.558   5.243 -0.2224  0.0979 -0.2608
   64MOL   H26926855   7.051   4.703   5.210 -2.6356  0.0813  1.3504
   64MOL   H27026856   7.271   4.678   5.414 -0.4674  2.1146  1.7026
   64MOL   H27126857   7.186   4.820   5.367 -1.2771 -0.0845 -0.7985
   64MOL   H27226858   7.402   4.823   5.241 -2.1456  3.1397 -0.3642
   64MOL   H27326859   7.258   4.792   5.128 -1.2042 -0.4331  1.3940
   64MOL   H27426860   7.363   4.662   5.192 -0.0814 -0.3982 -0.0031
   64MOL   C27526861   7.319   4.486   5.697  0.6661  0.0748 -0.7673
   64MOL   C27626862   7.404   4.369   5.741 -0.5195  0.3797 -0.1545
   64MOL   C27726863   7.395   4.251   5.643  0.2783  0.1089  0.1727
   64MOL   O27826864   7.336   4.252   5.534  0.2247 -0.3752  0.3453
   64MOL   O27926865   7.466   4.147   5.681 -0.2861 -0.9557  0.1718
   64MOL   C28026866   7.488   4.028   5.602  0.8083  0.1594  0.2656
   64MOL   C28126867   7.594   4.050   5.499 -0.1869 -0.5372 -0.5935
   64MOL   C28226868   7.731   4.047   5.571 -0.0367  0.6481  0.4017
   64MOL   C28326869   7.837   4.036   5.459  0.1739  0.1615  0.6111
   64MOL   H28426870   7.351   4.578   5.746 -0.6055  1.1551 -1.9374
   64MOL   H28526871   7.337   4.502   5.591 -0.1453  0.9007 -0.7850
   64MOL   H28626872   7.364   4.328   5.834 -1.4768 -1.0646 -1.1811
   64MOL   H28726873   7.398   4.009   5.543  0.5691  2.8605 -0.3166
   64MOL   H28826874   7.506   3.934   5.653  4.3541  0.6364  0.0083
   64MOL   H28926875   7.587   3.972   5.423 -2.2833 -1.4366  0.4896
   64MOL   H29026876   7.584   4.148   5.453  0.9618  0.4606  1.2078
   64MOL   H29126877   7.747   3.960   5.635 -0.3148  0.8020  0.6773
   64MOL   H29226878   7.739   4.138   5.632  3.5442  0.5543  0.1875
   64MOL   H29326879   0.078   4.035   5.513  0.1816  0.4453  0.6047
   64MOL   H29426880   7.820   4.128   5.402  0.4963 -1.1916 -1.7186
   64MOL   H29526881   7.825   3.948   5.396 -1.1259 -0.3137  1.4935
   64MOL   C29626882   7.558   4.418   5.761  0.1539 -0.0842 -0.6120
   64MOL   C29726883   7.608   4.417   5.910 -0.2895  0.0414  0.3559
   64MOL   C29826884   7.593   4.280   5.967 -0.6306 -0.2213  0.4313
   64MOL   O29926885   7.490   4.240   6.013  0.5944 -0.2454 -0.3813
   64MOL   O30026886   7.707   4.206   5.965 -0.2401  0.0940  0.5920
   64MOL   C30126887   7.696   4.078   6.020  1.3426 -0.0564  0.0557
   64MOL   C30226888   7.825   4.011   6.021  0.4565  0.7796  0.1081
   64MOL   C30326889   0.031   3.964   5.889 -0.0021  0.5434  0.2207
   64MOL   C30426890   0.164   3.892   5.903  0.5331  0.4096  0.2393
   64MOL   H30526891   7.568   4.514   5.711  0.1307 -0.0805 -0.6073
   64MOL   H30626892   7.618   4.347   5.705  0.4047 -1.7243  1.6366
   64MOL   H30726893   7.546   4.478   5.977  0.1434 -0.4264  1.1841
   64MOL   H30826894   7.619   4.028   5.962  1.6624  0.5178 -0.8913
   64MOL   H30926895   7.651   4.094   6.118  0.6871 -3.0647  0.2846
   64MOL   H31026896   0.057   4.063   6.064  1.4100  0.9326 -1.9116
   64MOL   H31126897   7.804   3.927   6.088  1.0966 -0.7286 -1.5258
   64MOL   H31226898   0.035   4.056   5.832 -0.9814  0.0599 -0.6522
   64MOL   H31326899   7.808   3.899   5.845  0.3384  0.6621 -0.5582
   64MOL   H31426900   0.226   3.950   5.971  1.0696  0.4426 -0.2697
   64MOL   H31526901   0.218   3.876   5.809  2.0996 -0.0228  1.2027
   64MOL   H31626902   0.153   3.798   5.957  2.5749  1.0109  1.7625
   64MOL   C31726903   7.750   4.475   5.915  0.2035 -0.6209 -0.4413
   64MOL   C31826904   7.769   4.623   5.862  0.0634  0.4377  0.5137
   64MOL   C31926905   7.667   4.716   5.924  0.0722 -0.1306 -0.1731
   64MOL   O32026906   7.577   4.760   5.853 -0.0017  0.1275 -0.4574
   64MOL   O32126907   7.682   4.742   6.048 -0.2652 -0.1057 -0.7985
   64MOL   C32226908   7.584   4.813   6.128  0.4287 -0.1837 -0.0113
   64MOL   C32326909   7.653   4.936   6.194 -0.1264 -0.4955 -0.5515
   64MOL   C32426910   7.542   5.006   6.278  0.7834  0.4936  0.4557
   64MOL   C32526911   7.582   5.140   6.346 -0.0510  0.2669 -0.4591
   64MOL   H32626912   7.819   4.412   5.858  0.0524 -0.0382 -1.2810
   64MOL   H32726913   7.779   4.463   6.019  3.6946 -3.2531 -1.6405
   64MOL   H32826914   7.752   4.622   5.754 -0.0405 -1.6749  0.5151
   64MOL   H32926915   7.552   4.737   6.199 -0.8556  0.4331  0.0817
   64MOL   H33026916   7.500   4.845   6.066 -0.2965  1.2361  1.6662
   64MOL   H33126917   7.737   4.908   6.258 -0.0620  0.7438 -0.0883
   64MOL   H33226918   7.683   5.012   6.123  1.1834  1.1940  1.7444
   64MOL   H33326919   7.521   4.936   6.358 -1.2942 -0.5218 -0.9324
   64MOL   H33426920   7.457   5.020   6.211  1.3905 -0.7756 -0.5932
   64MOL   H33526921   7.676   5.136   6.400 -0.3628 -1.1665 -0.0170
   64MOL   H33626922   7.508   5.174   6.418  1.2480  0.3006  0.8975
   64MOL   H33726923   7.593   5.227   6.281  0.0513  0.8387  0.3259
   64MOL   C33826924   0.058   4.679   5.871  0.5219 -0.6070  0.6102
   64MOL   C33926925   0.171   4.603   5.803  0.5337  0.2766 -0.0128
   64MOL   C34026926   0.137   4.596   5.654  0.1384 -0.0851  0.3951
   64MOL   O34126927   0.162   4.693   5.581 -0.1746  0.2680  0.2261
   64MOL   O34226928   0.083   4.471   5.614 -0.4642  0.4254  0.4013
   64MOL   C34326929   0.073   4.438   5.478 -0.4744 -0.4064 -0.3792
   64MOL   C34426930   7.779   4.435   5.433 -0.6627  0.1116  0.0904
   64MOL   C34526931   7.729   4.582   5.401  0.4390 -0.8534  0.1443
   64MOL   C34626932   7.574   4.609   5.406 -0.3637 -0.2521 -0.4048
   64MOL   H34726933   0.080   4.692   5.977  0.7616 -0.6102  0.5606
   64MOL   H34826934   0.051   4.781   5.833 -1.3629 -1.3733 -1.2227
   64MOL   H34926935   0.170   4.501   5.841 -0.0492 -0.1081 -1.0211
   64MOL   H35026936   0.123   4.342   5.462  1.6344  0.7274 -0.8278
   64MOL   H35126937   0.133   4.497   5.408  1.6510 -2.6484 -0.5434
   64MOL   H35226938   7.766   4.381   5.340 -0.3447  2.8327 -1.5897
   64MOL   H35326939   7.710   4.386   5.502  1.2297 -0.0648  1.9184
   64MOL   H35426940   7.771   4.632   5.314 -0.6320 -1.4428 -0.7250
   64MOL   H35526941   7.763   4.647   5.482 -0.4440  0.7896 -0.7782
   64MOL   H35626942   7.562   4.715   5.426  0.7990 -0.1241 -0.3273
   64MOL   H35726943   7.546   4.546   5.490 -2.1508  1.6849  0.5161
   64MOL   H35826944   7.526   4.583   5.311  2.6914 -0.3902 -1.9865
   64MOL   C35926945   0.302   4.665   5.847  0.0148  0.0946  0.0021
   64MOL   C36026946   0.429   4.589   5.801 -0.6607 -0.5527  0.2211
   64MOL   C36126947   0.476   4.661   5.672 -0.2865 -0.0814 -0.3693
   64MOL   O36226948   0.532   4.769   5.669 -0.5108 -0.2778  0.4964
   64MOL   O36326949   0.450   4.583   5.568  0.1888  0.1888  0.4505
   64MOL   C36426950   0.488   4.631   5.441 -0.4567  0.5227  0.0463
   64MOL   C36526951   0.592   4.547   5.370  0.7821 -0.2074  0.3055
   64MOL   C36626952   0.724   4.537   5.443  0.3659  0.1416  0.0950
   64MOL   C36726953   0.834   4.484   5.353 -0.2695  0.5907 -0.1322
   64MOL   H36826954   0.295   4.671   5.956 -1.0118 -2.0604  0.0657
   64MOL   H36926955   0.302   4.769   5.813  0.6868  0.3055  0.6190
   64MOL   H37026956   0.397   4.489   5.770 -2.5509  0.1094 -0.0032
   64MOL   H37126957   0.525   4.733   5.447 -1.0907  0.7592  0.0578
   64MOL   H37226958   0.394   4.632   5.384 -1.0153  0.0899  0.9425
   64MOL   H37326959   0.557   4.444   5.366 -0.4483  0.2533 -1.0569
   64MOL   H37426960   0.617   4.585   5.271  0.4375 -2.5335 -0.7203
   64MOL   H37526961   0.712   4.466   5.524 -0.4648 -1.2390 -1.1972
   64MOL   H37626962   0.756   4.632   5.485 -0.2124  0.6307 -0.5453
   64MOL   H37726963   0.812   4.387   5.310  1.1277 -0.4158  1.3814
   64MOL   H37826964   0.922   4.462   5.412 -0.3433 -0.7302 -0.5122
   64MOL   H37926965   0.877   4.554   5.281  1.4770  0.5351  0.8326
   64MOL   C38026966   0.535   4.580   5.917 -0.1370 -0.3144 -0.1924
   64MOL   C38126967   0.663   4.506   5.901  0.8592 -0.7721 -0.3193
   64MOL   C38226968   0.639   4.364   5.843  0.0373 -1.2792  0.5059
   64MOL   O38326969   0.641   4.342   5.721  0.3548  0.0143 -1.2176
   64MOL   O38426970   0.637   4.269   5.940 -0.3444  0.1817  0.2289
   64MOL   C38526971   0.651   4.132   5.912 -0.3335  0.5307  0.5813
   64MOL   C38626972   0.561   4.071   6.016 -0.7177  0.1995 -0.4055
   64MOL   C38726973   0.602   3.927   6.057  1.0404 -0.2737  0.5336
   64MOL   C38826974   0.492   3.824   6.086 -0.4692 -0.3961  0.0886
   64MOL   H38926975   0.481   4.528   5.997 -1.0635 -0.7940 -1.1162
   64MOL   H39026976   0.549   4.682   5.953  0.3758 -0.1324 -0.8996
   64MOL   H39126977   0.701   4.491   6.002 -0.6047  0.3007  0.4064
   64MOL   H39226978   0.757   4.108   5.915 -0.6116 -0.8177  0.1677
   64MOL   H39326979   0.618   4.110   5.811 -2.0477  4.4426  0.2180
   64MOL   H39426980   0.564   4.143   6.098  1.1223  1.0549 -1.1821
   64MOL   H39526981   0.460   4.063   5.976 -1.9114  3.2658  1.7770
   64MOL   H39626982   0.663   3.942   6.146 -0.7155 -2.0638  2.1092
   64MOL   H39726983   0.663   3.881   5.979  1.1357 -0.1091  0.5121
   64MOL   H39826984   0.460   3.764   6.001  1.7557  0.7062 -1.5555
   64MOL   H39926985   0.411   3.871   6.142 -0.5616 -0.7068  0.2174
   64MOL   H40026986   0.525   3.747   6.155 -2.3847  1.2650  2.9874
   64MOL   C40126987   0.774   4.589   5.832  0.2505  0.4439  0.2017
   64MOL   C40226988   0.912   4.552   5.889  0.3887 -0.1892  0.1858
   64MOL   C40326989   0.962   4.416   5.841  0.0531 -0.1580  0.7845
   64MOL   O40426990   0.988   4.324   5.915 -0.2994  0.0315 -0.0938
   64MOL   O40526991   1.000   4.410   5.712  0.4519 -0.5592  0.0048
   64MOL   C40626992   1.062   4.291   5.670  0.0606  0.3246 -0.1335
   64MOL   C40726993   0.950   4.204   5.615  0.7787 -0.0505  0.6941
   64MOL   C40826994   0.997   4.072   5.553 -0.0833 -0.1052  0.1838
   64MOL   C40926995   0.879   3.972   5.521  0.4445 -0.1443 -0.7077
   64MOL   H41026996   0.749   4.695   5.842 -1.3641  0.1003 -0.1372
   64MOL   H41126997   0.761   4.569   5.726 -0.4684  0.5541  0.2699
   64MOL   H41226998   0.922   4.559   5.998  3.8908 -0.5917 -0.0311
   64MOL   H41326999   1.117   4.240   5.749  0.1319  1.0134  0.2638
   64MOL   H41427000   1.137   4.313   5.594  2.2121 -0.5832  1.6895
   64MOL   H41527001   0.883   4.184   5.699 -1.0334 -0.3745 -0.7965
   64MOL   H41627002   0.900   4.258   5.535  0.5784 -1.1425  0.0872
   64MOL   H41727003   1.067   4.015   5.614  0.5931 -0.0163 -0.5126
   64MOL   H41827004   1.045   4.101   5.460 -0.7428 -0.6945 -0.3542
   64MOL   H41927005   0.917   3.872   5.499 -0.8498 -0.3362 -2.2001
   64MOL   H42027006   0.816   4.001   5.436  0.1652 -2.2954 -1.2668
   64MOL   H42127007   0.823   3.964   5.614  0.0063 -0.2217 -0.9767
   64MOL   H42227008   0.978   4.633   5.856  1.2989 -0.9321  0.1723
   65MOL     C127009   1.790   0.002   7.009  0.0964  0.7391  0.2961
   65MOL     C227010   1.815   0.097   7.117 -0.5579  0.0687 -0.5318
   65MOL     C327011   1.789   0.241   7.068  0.2794 -0.7812  0.1865
   65MOL     O427012   1.865   0.337   7.098  0.1390 -0.3623  0.5605
   65MOL     O527013   1.678   0.260   6.998  0.0805  0.4176  0.2218
   65MOL     C627014   1.637   0.389   6.970 -0.2098  0.0722 -0.2465
   65MOL     C727015   1.529   0.443   7.072 -0.3731  0.7324  0.1606
   65MOL     C827016   1.562   0.436   7.216  0.2257  0.2722  0.5344
   65MOL     C927017   1.471   0.524   7.295 -0.0525  0.0087 -0.6469
   65MOL    H1027018   1.805   0.044   6.910 -0.2028  0.4579  0.1283
   65MOL    H1127019   1.837   7.757   7.003  1.2511  1.1897  1.7205
   65MOL    H1227020   1.919   0.095   7.148 -1.4376 -1.7908  2.5628
   65MOL    H1327021   1.594   0.397   6.870  1.5651 -0.5839 -1.0784
   65MOL    H1427022   1.717   0.463   6.974  1.1067 -1.3932  1.2384
   65MOL    H1527023   1.504   0.548   7.055 -1.4321  0.9082  2.5369
   65MOL    H1627024   1.439   0.388   7.044  0.2361 -1.1842  1.8370
   65MOL    H1727025   1.665   0.468   7.230  0.4603  2.0586 -4.3593
   65MOL    H1827026   1.541   0.332   7.241  0.2237 -0.1120 -1.0126
   65MOL    H1927027   1.498   0.629   7.293 -1.3309  0.3300 -1.3254
   65MOL    H2027028   1.463   0.498   7.401  2.0949 -0.5127 -0.5704
   65MOL    H2127029   1.370   0.518   7.256  0.5951  1.0600 -2.5421
   65MOL    H2227030   1.686   7.824   7.002 -0.1734  2.3774 -5.2336
   65MOL    C2327031   1.728   0.057   7.237  0.3604 -0.1624 -0.3090
   65MOL    C2427032   1.758   0.132   7.371  0.5827  0.1983 -0.6446
   65MOL    C2527033   1.653   0.102   7.473  0.1089 -0.2848  0.0906
   65MOL    O2627034   1.660   0.001   7.536 -0.6572  0.0104  0.1807
   65MOL    O2727035   1.545   0.178   7.476  0.4305 -0.1418  0.2540
   65MOL    C2827036   1.450   0.146   7.568 -0.1025 -0.3924  0.0827
   65MOL    C2927037   1.344   0.259   7.569 -0.3630 -0.0135 -0.1298
   65MOL    C3027038   1.262   0.257   7.436 -0.2932  0.0700 -0.2408
   65MOL    C3127039   1.168   0.381   7.441 -0.1042  0.1827  0.0015
   65MOL    H3227040   1.747   7.804   7.252  0.1906 -0.0223  0.9329
   65MOL    H3327041   1.623   0.053   7.207 -0.2917 -1.9661  2.1174
   65MOL    H3427042   1.749   0.238   7.350  1.5816  0.3765 -0.2229
   65MOL    H3527043   1.491   0.131   7.668  1.6592  2.0473 -0.2399
   65MOL    H3627044   1.399   0.054   7.538 -0.0272  0.6025 -3.2641
   65MOL    H3727045   1.277   0.234   7.651  0.3434 -0.7597  0.2305
   65MOL    H3827046   1.392   0.354   7.594 -3.3812  1.4945  0.1411
   65MOL    H3927047   1.206   0.164   7.426  1.4603 -0.9199 -1.1749
   65MOL    H4027048   1.335   0.263   7.356  0.7474  0.6359  0.7390
   65MOL    H4127049   1.124   0.396   7.343  2.4410  2.1107 -0.8895
   65MOL    H4227050   1.214   0.471   7.481  0.6571  0.2476 -0.9894
   65MOL    H4327051   1.078   0.356   7.498  1.2555 -1.8263  1.3359
   65MOL    C4427052   1.904   0.111   7.436 -0.4324  0.5475  0.4826
   65MOL    C4527053   1.969   0.239   7.506  1.0112  0.5860  0.4002
   65MOL    C4627054   1.878   0.290   7.622  0.7108  0.6481 -1.3320
   65MOL    O4727055   1.836   0.407   7.619  0.3025 -0.6801  0.4485
   65MOL    O4827056   1.848   0.201   7.710 -0.0506  0.3960  0.0032
   65MOL    C4927057   1.765   0.237   7.813  0.3861  0.7526 -0.5263
   65MOL    C5027058   1.694   0.118   0.034 -0.1637 -0.1140 -0.2925
   65MOL    C5127059   1.726   0.115   0.183  0.0335  0.3865 -0.6780
   65MOL    C5227060   1.651   7.848   0.244  0.0082  0.0576 -0.2033
   65MOL    H5327061   1.972   0.083   7.355  0.1754 -0.5032  1.3424
   65MOL    H5427062   1.903   0.029   7.507 -1.4731  0.5014  0.4239
   65MOL    H5527063   1.955   0.318   7.433 -0.5579 -0.6323 -0.6737
   65MOL    H5627064   1.693   0.310   7.775 -0.4584  0.3635  0.2860
   65MOL    H5727065   1.813   0.294   0.039  1.4383 -1.5211  0.5269
   65MOL    H5827066   1.587   0.109   0.021 -0.0854 -1.6807  0.0971
   65MOL    H5927067   1.729   0.027   7.837 -1.6111 -0.9337  0.1590
   65MOL    H6027068   1.682   0.203   0.230 -1.2407  0.5078 -2.0240
   65MOL    H6127069   1.833   0.120   0.198 -0.1511  2.1409  0.1077
   65MOL    H6227070   1.650   7.756   0.184  1.5633  0.2226 -0.5012
   65MOL    H6327071   1.545   0.016   0.258 -0.1701 -1.6770  1.3201
   65MOL    H6427072   1.688   7.823   0.344  1.9712  0.7635 -0.7209
   65MOL    C6527073   2.116   0.229   7.553 -0.3933  0.1770  0.1226
   65MOL    C6627074   2.155   0.086   7.620 -0.6902  0.1316 -1.1403
   65MOL    C6727075   2.210   7.824   7.530 -0.0645 -0.5987  0.1084
   65MOL    O6827076   2.322   7.830   7.477 -0.1326  0.3588  0.4479
   65MOL    O6927077   2.119   7.724   7.510 -0.2273 -0.2502  0.5690
   65MOL    C7027078   2.156   7.614   7.433 -0.5804  0.2485 -0.5143
   65MOL    C7127079   2.149   7.650   7.284  0.8457  0.1436 -0.8808
   65MOL    C7227080   2.187   7.534   7.184 -0.1308  0.0063  0.0819
   65MOL    C7327081   2.232   7.589   7.047  0.4354 -0.0075  0.5256
   65MOL    H7427082   2.146   0.312   7.617 -1.0089 -0.4040  1.1844
   65MOL    H7527083   2.189   0.237   7.472  2.7831 -0.6411  2.7762
   65MOL    H7627084   2.073   0.054   7.684 -1.0014  2.5461 -0.3077
   65MOL    H7727085   2.091   7.530   7.459 -0.2136  0.3739  0.8865
   65MOL    H7827086   2.258   7.583   7.457 -1.7180 -3.8066 -0.4577
   65MOL    H7927087   2.045   7.681   7.271  0.3909 -0.6194  0.8856
   65MOL    H8027088   2.211   7.738   7.266  1.4336 -0.2031 -0.5558
   65MOL    H8127089   2.105   7.466   7.161 -0.4055  0.7163 -1.0932
   65MOL    H8227090   2.270   7.480   7.229  0.9810  1.1030 -0.6318
   65MOL    H8327091   2.163   7.655   6.995 -0.3315 -2.8940 -2.2800
   65MOL    H8427092   2.254   7.507   6.979  1.3887  0.7104 -0.0421
   65MOL    H8527093   2.320   7.651   7.061  2.5330 -2.5996 -0.7931
   65MOL    C8627094   2.273   0.126   7.719  0.0458 -0.5816 -0.0010
   65MOL    C8727095   2.294   0.032   7.835  0.3603  0.5536  0.3458
   65MOL    C8827096   2.438   0.048   0.043 -0.0947  0.5117  0.6033
   65MOL    O8927097   2.533   7.827   0.009 -0.6439  0.3309 -0.0999
   65MOL    O9027098   2.447   0.156   0.122  0.5868 -0.0526 -0.1641
   65MOL    C9127099   2.576   0.193   0.173  0.2558  0.2305 -0.1394
   65MOL    C9227100   2.592   0.129   0.310  0.6426 -0.6384  0.6898
   65MOL    C9327101   2.485   0.167   0.414  0.1068 -0.2847  0.0871
   65MOL    C9427102   2.504   0.305   0.472  0.2212  0.7162  0.0196
   65MOL    H9527103   2.277   0.225   7.766 -0.0374 -1.2023  1.3403
   65MOL    H9627104   2.365   0.125   7.661  0.2693 -0.3666  0.3435
   65MOL    H9727105   2.291   7.788   7.787  0.6274  0.9449 -0.4760
   65MOL    H9827106   2.593   0.300   0.184  2.3891 -0.0088 -1.0774
   65MOL    H9927107   2.661   0.153   0.119 -0.5788 -1.1186 -0.4614
   65MOL   H10027108   2.576   0.021   0.305  2.3005 -0.8163 -1.7396
   65MOL   H10127109   2.693   0.147   0.346  0.5425 -0.4784  0.8936
   65MOL   H10227110   2.484   0.101   0.500  2.6424  1.4406  1.4894
   65MOL   H10327111   2.385   0.169   0.371  0.7947 -1.0569 -1.5887
   65MOL   H10427112   2.476   0.376   0.394 -0.3603 -0.8496 -1.2295
   65MOL   H10527113   2.610   0.314   0.498  1.0821 -2.1720 -2.2506
   65MOL   H10627114   2.440   0.321   0.559 -0.5203  2.2187 -0.7925
   65MOL   C10727115   2.184   0.041   0.090  0.2521 -0.4401 -0.4431
   65MOL   C10827116   2.141   7.767   0.162  0.0355  0.0686  0.0633
   65MOL   C10927117   2.083   7.659   0.062 -0.0956 -0.8880 -0.1516
   65MOL   O11027118   2.163   7.580   0.007 -0.3681 -0.1261  0.6908
   65MOL   O11127119   1.951   7.665   0.052  0.1161 -0.1069 -0.2207
   65MOL   C11227120   1.884   7.554   7.848 -0.2614 -0.2541  0.4591
   65MOL   C11327121   1.817   7.627   7.731 -0.1050 -0.3904  0.4638
   65MOL   C11427122   1.760   7.530   7.623 -0.5794  0.0954 -0.4552
   65MOL   C11527123   1.627   7.455   7.667 -0.3627 -0.1223 -0.1630
   65MOL   H11627124   2.092   0.056   0.033  0.2195  2.0268  0.2164
   65MOL   H11727125   2.199   0.125   0.158  2.0220  0.1918 -1.5639
   65MOL   H11827126   2.056   7.797   0.224  1.6911 -0.9874  2.8848
   65MOL   H11927127   1.811   7.501   0.056 -0.4489 -0.4557  0.0601
   65MOL   H12027128   1.952   7.473   7.823 -1.3252 -1.3616  1.0853
   65MOL   H12127129   1.734   7.688   7.767  1.4455  1.0174  1.7380
   65MOL   H12227130   1.878   7.707   7.688  0.7335 -3.0930 -3.7609
   65MOL   H12327131   1.839   7.463   7.587  1.3598  0.8454  2.2367
   65MOL   H12427132   1.734   7.582   7.531  0.5801  1.8899  0.2144
   65MOL   H12527133   1.592   7.389   7.589  0.4767 -2.7157  1.5986
   65MOL   H12627134   1.561   7.537   7.697  0.4465  1.2005 -1.9174
   65MOL   H12727135   1.651   7.390   7.751  0.2118  0.4984  0.1626
   65MOL   C12827136   2.247   7.712   0.259 -0.2526  0.8329  0.9213
   65MOL   C12927137   2.200   7.603   0.366  0.4152  0.5368  0.5093
   65MOL   C13027138   2.075   7.642   0.447 -0.7531 -0.2764 -0.0138
   65MOL   O13127139   1.966   7.601   0.419  0.5453 -0.2956 -0.3431
   65MOL   O13227140   2.104   7.735   0.538 -0.3282 -0.4153 -0.3419
   65MOL   C13327141   1.999   7.800   0.608 -0.3903  0.7867 -0.6135
   65MOL   C13427142   2.016   0.092   0.619  0.2415 -0.2757 -0.2574
   65MOL   C13527143   1.988   0.161   0.485 -0.6146 -0.3040  0.0472
   65MOL   C13627144   1.994   0.317   0.498  0.2990 -0.8792 -0.1452
   65MOL   H13727145   2.298   7.796   0.306  0.0330  0.5233  1.1695
   65MOL   H13827146   2.321   7.663   0.196 -0.1930  0.6986  1.0953
   65MOL   H13927147   2.275   7.605   0.445  0.0295 -2.4401  1.0252
   65MOL   H14027148   2.000   7.753   0.706 -2.3084  0.2747 -0.8218
   65MOL   H14127149   1.902   7.783   0.561 -0.4108 -1.4595  0.1886
   65MOL   H14227150   1.939   0.130   0.687 -1.9772 -0.6347 -2.4844
   65MOL   H14327151   2.112   0.129   0.655  0.6696 -2.1723  0.5780
   65MOL   H14427152   1.890   0.136   0.444 -0.2062 -1.8529  0.0133
   65MOL   H14527153   2.062   0.118   0.418 -0.9697  1.9033 -1.8441
   65MOL   H14627154   1.918   0.351   0.567  0.6095 -1.9953  0.7692
   65MOL   H14727155   1.986   0.372   0.404 -0.3238 -0.1504  0.3297
   65MOL   H14827156   2.087   0.346   0.547 -0.3985  0.3878  0.4508
   65MOL   C14927157   2.204   7.454   0.324 -0.1131  0.5015  0.4187
   65MOL   C15027158   2.329   7.374   0.340 -0.2339 -0.2610 -0.2826
   65MOL   C15127159   2.440   7.411   0.241 -0.4457 -0.1982 -0.2254
   65MOL   O15227160   2.479   7.338   0.147 -0.2486 -0.3133 -0.4581
   65MOL   O15327161   2.487   7.533   0.269 -0.7282 -0.3846 -0.2834
   65MOL   C15427162   2.607   7.570   0.204  0.2338 -0.4712 -0.2654
   65MOL   C15527163   2.735   7.527   0.278 -0.0282  0.3091  0.0926
   65MOL   C15627164   2.863   7.583   0.224  0.4000 -0.6308 -0.0694
   65MOL   C15727165   2.977   7.560   0.321 -0.2199 -0.1212  0.3207
   65MOL   H15827166   2.161   7.456   0.224 -0.6131  2.5978  0.6584
   65MOL   H15927167   2.130   7.402   0.386 -0.4873  0.5390  0.0068
   65MOL   H16027168   2.295   7.279   0.297  0.6638 -0.5317 -0.4219
   65MOL   H16127169   2.604   7.678   0.190  0.1212 -0.4688 -0.2200
   65MOL   H16227170   2.607   7.524   0.105  1.8474 -2.5616  0.6537
   65MOL   H16327171   2.732   7.559   0.382 -3.5246 -0.1984  0.1948
   65MOL   H16427172   2.730   7.419   0.288  0.3315  0.4212  1.6788
   65MOL   H16527173   2.854   7.692   0.229  0.9007 -0.5058 -1.5788
   65MOL   H16627174   2.887   7.557   0.121 -1.5293  0.2376 -0.7478
   65MOL   H16727175   2.974   7.453   0.344  0.8248 -0.3789 -0.6810
   65MOL   H16827176   2.962   7.605   0.419 -0.3955  1.9314 -0.6166
   65MOL   H16927177   3.073   7.596   0.283  0.6919 -1.3958  1.3647
   65MOL   C17027178   2.382   7.367   0.489  0.0011  0.0834 -0.5846
   65MOL   C17127179   2.499   7.284   0.526 -0.9498  0.0320  0.7867
   65MOL   C17227180   2.585   7.330   0.643  0.1767  0.3470  0.4297
   65MOL   O17327181   2.699   7.367   0.628  0.3567 -0.0510  0.1236
   65MOL   O17427182   2.513   7.349   0.752  0.5691 -0.2933 -0.6527
   65MOL   C17527183   2.585   7.387   0.869 -0.6540 -0.3024  0.2260
   65MOL   C17627184   2.547   7.306   0.993 -0.3674  0.2392  0.0066
   65MOL   C17727185   2.399   7.335   1.035 -0.0422  0.4058 -0.3431
   65MOL   C17827186   2.377   7.258   1.163 -0.4567  0.2001 -0.3232
   65MOL   H17927187   2.300   7.351   0.559  1.3412  0.8520  1.2256
   65MOL   H18027188   2.421   7.468   0.504 -1.3038  0.3082  1.5316
   65MOL   H18127189   2.569   7.299   0.443  2.0059  3.2633  3.6839
   65MOL   H18227190   2.542   7.485   0.891 -0.3233  0.1232 -1.0090
   65MOL   H18327191   2.692   7.400   0.852 -0.3921 -1.6171  0.7831
   65MOL   H18427192   2.561   7.199   0.981  0.1143  0.3655 -0.5821
   65MOL   H18527193   2.618   7.336   1.071  0.2738 -0.1136 -0.4379
   65MOL   H18627194   2.332   7.316   0.951  0.2047  0.7084 -0.6079
   65MOL   H18727195   2.384   7.442   1.046 -1.0338  0.4257 -1.7076
   65MOL   H18827196   2.296   7.292   1.228  0.4603  0.0495  0.9185
   65MOL   H18927197   2.463   7.263   1.230  0.6614  1.0966 -1.7821
   65MOL   H19027198   2.359   7.152   1.146  0.2706  0.1896 -1.0199
   65MOL   C19127199   2.471   7.130   0.533  0.4241  0.0074  0.0649
   65MOL   C19227200   2.587   7.048   0.475 -0.0535  0.7047  0.3645
   65MOL   C19327201   2.562   6.893   0.497  0.5874 -0.0218 -0.2928
   65MOL   O19427202   2.622   6.834   0.583  0.2719 -0.3042 -0.1480
   65MOL   O19527203   2.470   6.836   0.411 -0.0958  0.2072 -0.2897
   65MOL   C19627204   2.425   6.696   0.436  1.0266  0.5941 -0.0202
   65MOL   C19727205   2.271   6.705   0.458 -0.1318  0.5099 -1.0341
   65MOL   C19827206   2.242   6.773   0.596  1.3316  0.0364 -0.5770
   65MOL   C19927207   2.103   6.754   0.649  0.6845 -0.3501  0.0325
   65MOL   H20027208   2.380   7.114   0.475  0.7012  3.5673 -1.4897
   65MOL   H20127209   2.452   7.081   0.629  1.1920  0.1444  0.2922
   65MOL   H20227210   2.682   7.054   0.527  1.9109 -1.3133 -2.8043
   65MOL   H20327211   2.478   6.660   0.524 -2.1800  0.2325  1.8316
   65MOL   H20427212   2.450   6.626   0.356  2.2765 -1.3941  2.0437
   65MOL   H20527213   2.215   6.755   0.379 -0.5607 -0.8677 -1.6293
   65MOL   H20627214   2.237   6.602   0.459 -0.2625  0.5535  0.9761
   65MOL   H20727215   2.267   6.879   0.583 -1.1795  0.4141 -2.6034
   65MOL   H20827216   2.310   6.734   0.672  0.0118  0.6808  0.9671
   65MOL   H20927217   2.080   6.647   0.652  1.2900 -0.4547  1.3383
   65MOL   H21027218   2.021   6.795   0.591 -0.8414 -0.9432  1.7127
   65MOL   H21127219   2.101   6.786   0.753  0.2731  2.0515 -0.7012
   65MOL   C21227220   2.621   7.074   0.324  0.4268 -0.2274  0.3908
   65MOL   C21327221   2.752   7.009   0.273 -0.1462 -0.0173  0.1560
   65MOL   C21427222   2.759   6.973   0.120  0.5570 -0.3121  0.3333
   65MOL   O21527223   2.767   6.856   0.086  0.1049 -0.7078 -0.2681
   65MOL   O21627224   2.761   7.083   0.049 -0.8706 -0.4286  0.4940
   65MOL   C21727225   2.785   7.075   7.769  0.3609  0.3124  1.2870
   65MOL   C21827226   2.925   7.135   7.736  0.1512  0.0602  0.1101
   65MOL   C21927227   2.921   7.293   7.745  0.1829  0.6768 -0.2788
   65MOL   C22027228   3.051   7.359   7.687  0.5831  0.8681  0.0273
   65MOL   H22127229   2.631   7.180   0.300  0.9320 -0.2517  0.4859
   65MOL   H22227230   2.538   7.036   0.264  0.9819 -0.6745 -0.0969
   65MOL   H22327231   2.765   6.915   0.325 -0.6782 -0.5915 -0.7319
   65MOL   H22427232   2.702   7.119   7.714  0.9556  0.0188  0.1344
   65MOL   H22527233   2.774   6.977   7.722 -1.8694  0.9914  0.3381
   65MOL   H22627234   3.011   7.090   7.785  0.8553  2.2927  0.9687
   65MOL   H22727235   2.940   7.119   7.629 -1.2074  1.1483 -0.2469
   65MOL   H22827236   2.921   7.318   7.851 -0.5003  3.2423 -0.8658
   65MOL   H22927237   2.824   7.324   7.709 -0.2827  1.2919  1.4502
   65MOL   H23027238   3.147   7.327   7.729 -0.0596 -0.9637  0.1413
   65MOL   H23127239   3.042   7.464   7.713  0.3568  1.0741 -0.8757
   65MOL   H23227240   3.056   7.349   7.578 -0.0970 -0.0678  0.0723
   65MOL   C23327241   2.877   7.091   0.316  0.8677  0.2171 -0.0771
   65MOL   C23427242   3.001   7.003   0.306  0.1132  0.6789  0.3758
   65MOL   C23527243   3.124   7.068   0.232 -0.5966  0.5484  0.0423
   65MOL   O23627244   3.133   7.187   0.213  0.0100  0.0531 -0.5432
   65MOL   O23727245   3.218   6.981   0.196  0.1659  0.1168  0.5497
   65MOL   C23827246   3.321   7.024   0.110 -0.8029  0.1664  0.5693
   65MOL   C23927247   3.437   6.922   0.123 -0.6073 -0.5546  0.0205
   65MOL   C24027248   3.575   6.982   0.085 -0.5370 -0.6109  0.0587
   65MOL   C24127249   3.697   6.888   0.097  0.1179  0.7156  0.0372
   65MOL   H24227250   2.867   7.117   0.421 -0.7797 -1.7890  0.3040
   65MOL   H24327251   2.886   7.182   0.256  0.2599 -0.1278 -0.7024
   65MOL   H24427252   2.973   6.923   0.238 -2.6195  0.6032  1.5581
   65MOL   H24527253   3.363   7.124   0.119  2.8579 -1.4149  1.9568
   65MOL   H24627254   3.290   7.036   0.007  0.2248  2.2286  0.4755
   65MOL   H24727255   3.452   6.891   0.227  0.7190 -1.8050 -0.5192
   65MOL   H24827256   3.423   6.829   0.067 -1.6744  0.1303 -0.8811
   65MOL   H24927257   3.599   7.077   0.133 -0.0905 -1.8793  2.4077
   65MOL   H25027258   3.569   6.994   7.830  0.4161 -1.2325 -0.0733
   65MOL   H25127259   3.790   6.945   0.091  0.8802 -0.3297  1.7326
   65MOL   H25227260   3.688   6.804   0.028 -2.0751 -0.4474  1.6725
   65MOL   H25327261   3.692   6.846   0.197 -0.7282  0.8067  0.0388
   65MOL   C25427262   3.053   6.945   0.447  0.7064 -0.3433  0.0407
   65MOL   C25527263   3.134   6.821   0.439 -0.9053  0.3213 -0.1332
   65MOL   C25627264   3.199   6.797   0.577 -0.4501  0.3482 -0.4172
   65MOL   O25727265   3.315   6.830   0.596  0.1204 -0.3089 -0.1963
   65MOL   O25827266   3.105   6.757   0.667  0.0684  0.3773  0.2877
   65MOL   C25927267   3.151   6.708   0.790  0.4773 -1.1026 -0.3919
   65MOL   C26027268   3.126   6.559   0.804 -0.6422 -0.3795  0.2589
   65MOL   C26127269   2.981   6.518   0.789  0.1226 -0.0160 -0.0263
   65MOL   C26227270   2.957   6.372   0.834 -0.5219 -0.0989 -0.1018
   65MOL   H26327271   2.965   6.927   0.509  0.7673  0.0791  0.2531
   65MOL   H26427272   3.116   7.018   0.497 -0.9825  0.5506  0.9115
   65MOL   H26527273   3.216   6.834   0.368 -1.7610  0.9815 -1.0095
   65MOL   H26627274   3.099   6.757   0.873  1.3762  0.9485 -1.0045
   65MOL   H26727275   3.257   6.723   0.810  0.3381 -2.8209  1.7530
   65MOL   H26827276   3.198   6.510   0.738 -0.0077  0.5805  0.2327
   65MOL   H26927277   3.146   6.535   0.908  0.5125 -1.6531 -0.2372
   65MOL   H27027278   2.950   6.531   0.686  0.3279 -0.9966 -0.2185
   65MOL   H27127279   2.923   6.590   0.846  0.5361  1.1111 -1.0153
   65MOL   H27227280   2.957   6.360   0.943 -0.3358  0.9994  0.0242
   65MOL   H27327281   3.027   6.304   0.785  0.1701  0.9862 -0.6288
   65MOL   H27427282   2.867   6.324   0.797  0.9898 -1.1034 -2.6470
   65MOL   C27527283   3.055   6.703   0.398 -0.0168  0.5025  0.7204
   65MOL   C27627284   3.125   6.574   0.365 -0.0348 -0.2318  0.1010
   65MOL   C27727285   3.018   6.463   0.341 -0.3997  0.0040 -0.6063
   65MOL   O27827286   2.983   6.430   0.232  0.0657  0.3998  0.1008
   65MOL   O27927287   2.959   6.420   0.459 -0.1845  0.5734  0.3907
   65MOL   C28027288   2.859   6.319   0.462 -0.8848  0.2741  0.0120
   65MOL   C28127289   2.721   6.367   0.442  0.5859 -0.5228  0.5712
   65MOL   C28227290   2.612   6.268   0.468  0.6625  0.4411  0.6675
   65MOL   C28327291   2.472   6.319   0.421 -0.3905 -0.4907 -0.3252
   65MOL   H28427292   2.982   6.724   0.319  1.0273  0.4434 -0.2620
   65MOL   H28527293   2.993   6.679   0.485  0.7397  1.0794  1.4194
   65MOL   H28627294   3.189   6.542   0.447 -0.1124  1.1615  0.7315
   65MOL   H28727295   2.873   6.260   0.553 -0.4210 -0.7535 -0.7286
   65MOL   H28827296   2.879   6.243   0.387  0.7131  1.0141 -0.3216
   65MOL   H28927297   2.711   6.464   0.490  0.9718 -0.6276  0.8628
   65MOL   H29027298   2.714   6.402   0.340  0.4423  0.4534  0.9140
   65MOL   H29127299   2.609   6.242   0.574 -0.0516 -0.0978  0.5210
   65MOL   H29227300   2.635   6.183   0.404 -1.3156 -0.9179  1.7087
   65MOL   H29327301   2.406   6.234   0.403 -3.8476  2.1565 -0.6062
   65MOL   H29427302   2.487   6.374   0.329 -0.3552  1.0484  0.5804
   65MOL   H29527303   2.425   6.395   0.485  1.3813 -0.2205  0.6905
   65MOL   C29627304   3.235   6.589   0.253  0.4319 -0.0566  0.6068
   65MOL   C29727305   3.337   6.471   0.252  0.3689 -0.2139 -0.1024
   65MOL   C29827306   3.284   6.348   0.177  0.1483  0.6917 -0.1367
   65MOL   O29927307   3.246   6.245   0.237 -0.3083 -0.7255 -0.6262
   65MOL   O30027308   3.283   6.360   0.047  0.2128  0.7465  0.5804
   65MOL   C30127309   3.218   6.268   7.812 -0.4883  0.3009 -1.1000
   65MOL   C30227310   3.109   6.342   7.741 -0.0679  0.2958  0.2562
   65MOL   C30327311   3.036   6.272   7.620 -0.7041 -0.1842  0.4382
   65MOL   C30427312   2.896   6.325   7.603 -0.0239 -0.1348 -0.2505
   65MOL   H30527313   3.288   6.683   0.269  0.0728  0.4020 -0.8078
   65MOL   H30627314   3.191   6.604   0.154  1.7027 -0.0478  0.0380
   65MOL   H30727315   3.368   6.451   0.355 -1.2440  0.5157  0.5329
   65MOL   H30827316   3.174   6.184   0.013  1.5422  0.7168  1.2708
   65MOL   H30927317   3.295   6.239   7.741  0.6650  0.1387  0.2025
   65MOL   H31027318   3.032   6.366   7.815 -2.6026 -2.5015 -1.3887
   65MOL   H31127319   3.145   6.435   7.696 -3.1810  1.6005  0.3419
   65MOL   H31227320   3.033   6.164   7.634 -0.3771 -0.2600 -0.0566
   65MOL   H31327321   3.085   6.286   7.524 -0.2028 -0.6698  0.6180
   65MOL   H31427322   2.846   6.266   7.527  0.2775  1.0384 -1.3844
   65MOL   H31527323   2.900   6.428   7.568  0.7238 -0.4585 -1.1540
   65MOL   H31627324   2.844   6.320   7.699 -1.0655 -0.2386 -0.8188
   65MOL   C31727325   3.480   6.518   0.189 -0.4060 -0.4043 -0.2485
   65MOL   C31827326   3.610   6.472   0.265  0.3030  0.5368 -0.1082
   65MOL   C31927327   3.638   6.552   0.391  0.0269 -0.3304 -0.0598
   65MOL   O32027328   3.706   6.652   0.388 -0.1119 -0.0520  0.1946
   65MOL   O32127329   3.568   6.501   0.502  0.4187  0.4024  1.3046
   65MOL   C32227330   3.546   6.585   0.616 -0.1152  0.4346 -0.0127
   65MOL   C32327331   3.635   6.557   0.737 -0.7618  0.2389  0.0907
   65MOL   C32427332   3.592   6.594   0.877 -0.2788 -0.0360 -0.7829
   65MOL   C32527333   3.675   6.543   0.992 -0.7525  0.5293  0.3212
   65MOL   H32627334   3.480   6.626   0.193  0.6975 -0.4264  0.6023
   65MOL   H32727335   3.500   6.489   0.086 -0.5284 -1.5566  0.0340
   65MOL   H32827336   3.693   6.499   0.200  0.3471  1.1835  0.2179
   65MOL   H32927337   3.441   6.569   0.640  0.4051 -1.1119  1.2541
   65MOL   H33027338   3.569   6.687   0.584 -1.9505  0.7171 -0.5268
   65MOL   H33127339   3.670   6.454   0.735 -0.9340  0.1713  0.5217
   65MOL   H33227340   3.730   6.608   0.724 -0.1270 -0.9311  0.0309
   65MOL   H33327341   3.485   6.585   0.896  0.1245 -1.1393  1.1044
   65MOL   H33427342   3.618   6.699   0.875  0.7374 -0.2950 -1.8766
   65MOL   H33527343   3.781   6.558   0.974 -0.4967 -3.5868 -2.0340
   65MOL   H33627344   3.657   6.437   1.008 -2.4803  0.4956 -1.6325
   65MOL   H33727345   3.658   6.608   1.078 -0.5990  0.6140  0.2876
   65MOL   C33827346   3.615   6.319   0.282  0.5583 -0.0910 -0.3165
   65MOL   C33927347   3.761   6.255   0.288 -0.2993 -0.0733  0.2674
   65MOL   C34027348   3.859   6.305   0.183 -0.0438 -0.3747 -0.6826
   65MOL   O34127349   3.961   6.369   0.210  0.0069 -0.0605 -0.6305
   65MOL   O34227350   3.812   6.272   0.061  0.0937  0.0002 -0.5511
   65MOL   C34327351   3.885   6.311   7.801  0.6197 -0.0531 -0.2423
   65MOL   C34427352   3.920   6.188   7.717 -0.0478  0.3837 -0.6127
   65MOL   C34527353   4.030   6.221   7.615  0.0010 -0.2675  0.4648
   65MOL   C34627354   4.106   6.093   7.557  0.3761 -0.3524 -0.4292
   65MOL   H34727355   3.568   6.276   0.194  0.6383 -1.6070  0.3726
   65MOL   H34827356   3.546   6.291   0.362 -1.1344 -0.6697 -1.9406
   65MOL   H34927357   3.740   6.150   0.265 -2.1721  0.3049  0.1482
   65MOL   H35027358   3.971   6.375   7.822 -0.8972  1.5483  1.3777
   65MOL   H35127359   3.821   6.376   7.741  0.3347 -0.5302 -0.4603
   65MOL   H35227360   3.960   6.110   7.782  4.7264  0.6529 -2.9879
   65MOL   H35327361   3.832   6.153   7.665  2.1008 -1.4226 -3.1506
   65MOL   H35427362   4.103   6.288   7.661 -0.5151  0.0219  0.8676
   65MOL   H35527363   4.000   6.280   7.528  1.8571  1.4597  0.9652
   65MOL   H35627364   4.031   6.015   7.566 -0.5654  0.3651 -1.7682
   65MOL   H35727365   4.186   6.071   7.628  0.7003  0.5017 -0.5193
   65MOL   H35827366   4.149   6.105   7.457  1.6991 -3.8063 -0.3240
   65MOL   C35927367   3.819   6.254   0.434 -0.3879  0.4164  0.7093
   65MOL   C36027368   3.948   6.166   0.444  0.1552 -0.2475  0.3106
   65MOL   C36127369   4.045   6.226   0.545 -0.6560 -0.1028  0.7109
   65MOL   O36227370   4.065   6.182   0.665  0.1530 -0.2090  0.3597
   65MOL   O36327371   4.113   6.324   0.486  0.0474  0.2492  0.2307
   65MOL   C36427372   4.220   6.393   0.545  0.3582  0.5960  0.6127
   65MOL   C36527373   4.177   6.540   0.569 -0.3597 -0.0959 -0.0301
   65MOL   C36627374   4.076   6.569   0.674  0.0740 -0.4144  0.0511
   65MOL   C36727375   4.075   6.716   0.717  0.1272 -0.4439 -0.4407
   65MOL   H36827376   3.743   6.219   0.503 -0.7046 -0.6871 -0.1802
   65MOL   H36927377   3.853   6.354   0.464 -0.4103  0.4404  0.6543
   65MOL   H37027378   4.008   6.174   0.353 -2.1588  0.7981 -1.1691
   65MOL   H37127379   4.297   6.396   0.467  0.7080 -0.5009  0.9156
   65MOL   H37227380   4.259   6.352   0.638 -0.4732  3.0208  2.0956
   65MOL   H37327381   4.267   6.598   0.588  0.7037 -1.5763 -0.3937
   65MOL   H37427382   4.140   6.573   0.472 -0.5066  0.9385  0.3767
   65MOL   H37527383   4.104   6.512   0.763 -2.0331 -1.3524  0.1542
   65MOL   H37627384   3.975   6.531   0.655 -0.8714  1.0030  2.0539
   65MOL   H37727385   4.174   6.746   0.751  0.1103 -2.0557  1.0976
   65MOL   H37827386   4.009   6.729   0.803 -0.8443  2.6448 -1.5615
   65MOL   H37927387   4.035   6.779   0.637  1.3761  0.1813 -0.5750
   65MOL   C38027388   3.921   6.017   0.475 -0.1250  0.3035 -0.3467
   65MOL   C38127389   3.889   5.932   0.357 -0.2805  0.5404 -0.3474
   65MOL   C38227390   3.983   5.939   0.234 -0.2991 -0.2474 -0.5036
   65MOL   O38327391   3.933   5.954   0.122 -0.3438 -0.1677 -0.0548
   65MOL   O38427392   4.110   5.928   0.263  0.8770 -0.0850 -0.1840
   65MOL   C38527393   4.208   5.944   0.161  0.2860  0.0559  0.4873
   65MOL   C38627394   4.229   6.092   0.121  0.5004  0.0935 -0.8724
   65MOL   C38727395   4.314   6.168   0.227  0.2898 -0.9772 -0.8396
   65MOL   C38827396   4.352   6.304   0.180  0.1531 -0.1923 -0.9775
   65MOL   H38927397   3.836   6.014   0.543 -0.1776 -2.2533 -0.4794
   65MOL   H39027398   3.999   5.966   0.532  1.0722  1.8655 -0.5554
   65MOL   H39127399   3.792   5.967   0.323 -0.3619 -0.5094 -1.2109
   65MOL   H39227400   4.170   5.888   0.076 -0.5909 -2.0211  2.1825
   65MOL   H39327401   4.297   5.886   0.183  1.2069  1.4340  0.4095
   65MOL   H39427402   4.275   6.087   0.022 -0.5881  0.1744 -1.3930
   65MOL   H39527403   4.145   6.160   0.106  1.7485  1.7943 -0.3589
   65MOL   H39627404   4.408   6.112   0.231  0.2434 -1.0123 -0.1898
   65MOL   H39727405   4.268   6.167   0.326 -0.1414  0.4725 -1.0193
   65MOL   H39827406   4.368   6.311   0.073  1.5170 -1.1011 -0.8424
   65MOL   H39927407   4.444   6.328   0.233 -1.5448 -3.2974  3.7455
   65MOL   H40027408   4.282   6.381   0.213  1.7811  0.2515  1.6106
   65MOL   C40127409   3.856   5.787   0.397 -0.1960 -0.7872  0.4307
   65MOL   C40227410   3.724   5.768   0.464  0.3994  0.4514  0.6558
   65MOL   C40327411   3.605   5.791   0.375 -0.3078  0.7003  0.0967
   65MOL   O40427412   3.541   5.691   0.341  0.1262 -0.6820  0.3697
   65MOL   O40527413   3.562   5.916   0.354 -0.0437 -0.2004  0.2443
   65MOL   C40627414   3.460   5.939   0.252  0.0903 -0.2514  0.0989
   65MOL   C40727415   3.523   5.977   0.119 -0.2218 -0.5191  0.3358
   65MOL   C40827416   3.437   5.946   0.003  0.0953  0.9198 -0.0293
   65MOL   C40927417   3.489   6.002   7.721 -0.3970 -0.4714 -0.2555
   65MOL   H41027418   3.922   5.768   0.482  0.2887 -0.9432  0.0171
   65MOL   H41127419   3.876   5.722   0.312 -0.7187 -1.9856  1.2050
   65MOL   H41227420   3.724   5.835   0.550 -0.5830  1.8376 -0.4115
   65MOL   H41327421   3.405   6.031   0.274  1.1832  1.3079 -3.3082
   65MOL   H41427422   3.386   5.861   0.240 -1.2642  0.7795  1.5574
   65MOL   H41527423   3.559   6.080   0.121  1.2360 -1.0194  1.0672
   65MOL   H41627424   3.610   5.912   0.110  0.9954  0.8914  1.6504
   65MOL   H41727425   3.344   5.998   0.026 -0.0328  0.7750 -0.2156
   65MOL   H41827426   3.406   5.842   7.846 -1.2730  0.9316  3.2566
   65MOL   H41927427   3.591   5.967   7.704 -0.0120  0.0211  0.9918
   65MOL   H42027428   3.493   6.111   7.723 -2.7201 -0.3854  1.3663
   65MOL   H42127429   3.423   5.981   7.637  1.6057  1.2816 -2.3413
   65MOL   H42227430   3.718   5.669   0.509  0.8254 -0.1773 -0.6314
   66MOL     C127431   0.310   3.685   5.116  0.3376  0.3172 -0.7654
   66MOL     C227432   0.228   3.639   5.235  0.0675  0.1114 -0.5473
   66MOL     C327433   0.302   3.642   5.374  0.2266 -0.7019 -0.4956
   66MOL     O427434   0.265   3.706   5.471  0.3898 -0.0070 -0.5842
   66MOL     O527435   0.406   3.559   5.373 -0.9599  0.1641  0.0285
   66MOL     C627436   0.487   3.564   5.489 -1.2430 -0.1368 -0.0738
   66MOL     C727437   0.593   3.670   5.482  0.2945 -0.2161 -0.3252
   66MOL     C827438   0.673   3.672   5.609  0.1689 -0.2435  1.3792
   66MOL     C927439   0.600   3.744   5.726  0.6605 -0.5607 -0.2824
   66MOL    H1027440   0.414   3.653   5.126  0.3760  0.6522 -0.0355
   66MOL    H1127441   0.277   3.640   5.023 -0.7425  0.4606 -0.4586
   66MOL    H1227442   0.211   3.532   5.221 -0.1505  0.1655 -0.6996
   66MOL    H1327443   0.528   3.463   5.488 -1.1831 -0.1152  0.1450
   66MOL    H1427444   0.422   3.577   5.576 -0.1303  1.8210  0.4933
   66MOL    H1527445   0.662   3.646   5.400  0.7817  0.2795 -0.0624
   66MOL    H1627446   0.566   3.773   5.459 -2.2710 -0.7710  0.0613
   66MOL    H1727447   0.771   3.718   5.598  0.8415 -1.6537  1.3735
   66MOL    H1827448   0.709   3.573   5.635  0.7277 -0.1742  0.8761
   66MOL    H1927449   0.495   3.718   5.742  0.1158  2.1435  0.7455
   66MOL    H2027450   0.600   3.853   5.723 -0.2582 -0.5038  1.2775
   66MOL    H2127451   0.655   3.719   5.816 -1.0109 -2.0533  0.3539
   66MOL    H2227452   0.308   3.793   5.100  1.0124  0.5498  0.6810
   66MOL    C2327453   0.092   3.711   5.236 -0.6931 -0.0696  0.4619
   66MOL    C2427454   7.852   3.670   5.122  0.1690  0.1950 -0.1193
   66MOL    C2527455   7.817   3.525   5.145  0.1064 -0.1354 -0.1912
   66MOL    O2627456   0.014   3.437   5.073  0.7034  0.7314  0.1865
   66MOL    O2727457   7.734   3.498   5.247 -1.0774  0.2357 -0.3536
   66MOL    C2827458   7.696   3.366   5.282 -0.2929  0.0025  0.3406
   66MOL    C2927459   7.577   3.362   5.363 -0.0771  0.3774  0.5056
   66MOL    C3027460   7.449   3.415   5.295  0.6017 -0.2002 -0.3741
   66MOL    C3127461   7.394   3.346   5.171 -0.1392 -0.1078  1.0210
   66MOL    H3227462   0.101   3.820   5.245  0.1152  0.1059 -1.9219
   66MOL    H3327463   0.049   3.675   5.329 -1.9216 -0.5530 -0.2821
   66MOL    H3427464   0.039   3.684   5.022 -0.2555 -1.8969 -0.6153
   66MOL    H3527465   7.771   3.320   5.346 -0.2302  2.0257  1.7684
   66MOL    H3627466   7.675   3.302   5.196  1.2032  0.0445 -0.0705
   66MOL    H3727467   7.561   3.259   5.396  0.3983  0.0516 -0.2707
   66MOL    H3827468   7.604   3.428   5.445 -2.0406  1.2860  0.4604
   66MOL    H3927469   7.450   3.523   5.281  1.4664 -0.2378 -0.6167
   66MOL    H4027470   7.368   3.410   5.369 -1.0910 -0.7435 -2.2152
   66MOL    H4127471   7.444   3.358   5.075 -1.5272 -0.9745  0.1648
   66MOL    H4227472   7.296   3.389   5.148  0.5473 -0.3999 -2.7563
   66MOL    H4327473   7.382   3.241   5.198  0.9423 -0.2611  0.9071
   66MOL    C4427474   7.731   3.768   5.115 -0.2134  0.6927 -0.0616
   66MOL    C4527475   7.649   3.780   4.982  0.3147  0.7745 -0.3443
   66MOL    C4627476   7.690   3.894   4.881 -0.0446  0.0663 -0.0236
   66MOL    O4727477   7.643   4.006   4.892 -0.3981  0.0903 -0.3892
   66MOL    O4827478   7.791   3.857   4.795 -0.3385 -0.0155  0.0537
   66MOL    C4927479   7.850   3.958   4.716 -0.0979 -0.4561  0.0360
   66MOL    C5027480   0.129   4.007   4.788  0.4577  0.6111 -0.6601
   66MOL    C5127481   0.230   3.897   4.788 -0.6850 -0.0128  0.0222
   66MOL    C5227482   0.376   3.936   4.835  0.1139 -0.8846 -0.2780
   66MOL    H5327483   7.766   3.861   5.158  0.0074 -0.5065  2.4549
   66MOL    H5427484   7.658   3.735   5.189 -0.6913  1.1627 -0.3224
   66MOL    H5527485   7.554   3.815   5.023 -0.3087  1.0816 -2.0203
   66MOL    H5627486   7.776   4.036   4.695 -0.3621 -0.4403  1.0286
   66MOL    H5727487   0.027   3.923   4.617  1.3509  0.3109  0.1855
   66MOL    H5827488   0.164   4.092   4.728 -1.1071  2.1664  0.6058
   66MOL    H5927489   0.108   4.043   4.888 -0.9360  0.9368 -1.0684
   66MOL    H6027490   0.239   3.856   4.687  2.1846  0.2518  0.1139
   66MOL    H6127491   0.193   3.814   4.849  1.8070 -0.3790  1.1008
   66MOL    H6227492   0.382   3.953   4.943 -1.2148  1.0658 -0.4801
   66MOL    H6327493   0.418   4.024   4.786 -0.8980  0.0043  0.4174
   66MOL    H6427494   0.445   3.855   4.812  1.4888 -0.4035  1.9824
   66MOL    C6527495   7.607   3.644   4.913  0.2983 -0.0823  0.6566
   66MOL    C6627496   7.490   3.647   4.812 -0.6865  0.2438 -0.0642
   66MOL    C6727497   7.494   3.525   4.722 -0.2256 -0.4908 -0.3168
   66MOL    O6827498   7.484   3.404   4.762 -0.0810 -0.3970 -0.2573
   66MOL    O6927499   7.522   3.558   4.594  0.1965  0.3996  0.6476
   66MOL    C7027500   7.495   3.466   4.488  0.4474 -0.3808  0.4199
   66MOL    C7127501   7.617   3.408   4.422  0.0023 -0.6022  0.0771
   66MOL    C7227502   7.681   3.278   4.484  0.6516  1.1599  0.5516
   66MOL    C7327503   7.807   3.238   4.407 -0.2987  0.1747  0.0444
   66MOL    H7427504   7.591   3.566   4.987  1.1891  2.3755  3.5206
   66MOL    H7527505   7.697   3.609   4.863  0.2280 -1.8109  1.7176
   66MOL    H7627506   7.513   3.732   4.748  0.1498 -0.2575 -0.4229
   66MOL    H7727507   7.428   3.510   4.413 -1.0084  0.3453  2.0965
   66MOL    H7827508   7.431   3.382   4.517  0.5672 -0.3332  0.8240
   66MOL    H7927509   7.592   3.376   4.321  1.5122 -0.2120 -0.4356
   66MOL    H8027510   7.692   3.486   4.414  1.5458 -1.8146  2.0137
   66MOL    H8127511   7.605   3.200   4.479  0.7153  1.1257  0.0818
   66MOL    H8227512   7.699   3.295   4.590  0.1835 -3.3185  1.4265
   66MOL    H8327513   0.023   3.321   4.392  0.0536 -0.2155 -0.4788
   66MOL    H8427514   7.779   3.209   4.306  0.8878  1.2943 -0.6044
   66MOL    H8527515   0.008   3.152   4.446  0.3923  0.7022  0.2569
   66MOL    C8627516   7.352   3.666   4.877  1.1010 -0.4303  0.6545
   66MOL    C8727517   7.304   3.815   4.903 -0.0203  0.0043 -0.4033
   66MOL    C8827518   7.274   3.892   4.774  0.3679 -0.0860 -0.3369
   66MOL    O8927519   7.278   3.833   4.669  0.5433  0.3408  0.0472
   66MOL    O9027520   7.269   4.025   4.796  0.3741 -0.3043  0.8179
   66MOL    C9127521   7.287   4.111   4.680  0.4440  0.4148  0.8186
   66MOL    C9227522   7.420   4.186   4.681 -0.4959  0.0144 -0.4680
   66MOL    C9327523   7.446   4.277   4.569 -0.1119  0.5663 -0.2274
   66MOL    C9427524   7.573   4.359   4.595  0.4578  0.6732 -0.5723
   66MOL    H9527525   7.343   3.607   4.969 -4.0631 -1.0806 -0.1112
   66MOL    H9627526   7.271   3.620   4.820  0.6063 -0.0643  1.0522
   66MOL    H9727527   7.374   3.875   4.961 -0.2020  1.5069 -1.7037
   66MOL    H9827528   7.216   4.194   4.678  0.3495  0.4477  3.5975
   66MOL    H9927529   7.264   4.053   4.590 -1.9511 -2.6541  3.2606
   66MOL   H10027530   7.440   4.238   4.774  1.4901  0.7936 -1.3212
   66MOL   H10127531   7.490   4.103   4.676  0.3085  0.7755 -2.3047
   66MOL   H10227532   7.361   4.343   4.551 -0.6068 -0.2505 -0.9059
   66MOL   H10327533   7.455   4.221   4.476 -1.8191 -3.8387  2.1584
   66MOL   H10427534   7.658   4.297   4.623 -1.2754 -1.0543  0.9911
   66MOL   H10527535   7.569   4.430   4.677 -1.3601 -1.6584  1.4198
   66MOL   H10627536   7.585   4.415   4.502 -1.0378  0.4709 -0.9064
   66MOL   C10727537   7.174   3.803   4.994  0.2946 -0.4154  0.2161
   66MOL   C10827538   7.195   3.780   5.145 -0.6449 -0.1375 -0.6636
   66MOL   C10927539   7.284   3.898   5.198 -0.0856 -0.2595 -0.4273
   66MOL   O11027540   7.401   3.884   5.234 -0.2716  0.3039  0.4742
   66MOL   O11127541   7.217   4.011   5.211  0.0125  0.7383 -0.0755
   66MOL   C11227542   7.286   4.133   5.252 -1.0611  0.0379 -0.1461
   66MOL   C11327543   7.370   4.197   5.136  0.0070  0.2098  0.5301
   66MOL   C11427544   7.439   4.323   5.185  0.4819 -1.1459 -0.5572
   66MOL   C11527545   7.527   4.397   5.080  0.5260  0.3888  0.1448
   66MOL   H11627546   7.108   3.722   4.961  0.2988 -1.5647  2.9415
   66MOL   H11727547   7.100   3.881   4.977  0.0825 -0.9738 -1.5638
   66MOL   H11827548   7.249   3.687   5.164 -0.7581  0.0854  0.7561
   66MOL   H11927549   7.353   4.108   5.334  0.0851 -0.4035 -1.1971
   66MOL   H12027550   7.216   4.207   5.290  1.0046  2.5810 -1.1354
   66MOL   H12127551   7.442   4.132   5.086 -1.5080  0.8619 -2.6154
   66MOL   H12227552   7.301   4.214   5.053 -1.3748 -1.1260  1.3743
   66MOL   H12327553   7.501   4.307   5.274  0.3056  3.0533  0.3913
   66MOL   H12427554   7.358   4.386   5.222  0.5083 -2.3228  1.6318
   66MOL   H12527555   7.460   4.415   4.995 -2.7955 -2.3747  2.0574
   66MOL   H12627556   7.608   4.330   5.052  1.3844  0.8198  1.5938
   66MOL   H12727557   7.575   4.488   5.115  1.4446 -0.1814  0.3797
   66MOL   C12827558   7.061   3.766   5.227  0.0925 -0.4873  0.4044
   66MOL   C12927559   7.067   3.736   5.373 -0.1379  0.8503  0.2952
   66MOL   C13027560   7.089   3.857   5.465 -1.2279 -0.0159  0.0712
   66MOL   O13127561   7.164   3.842   5.563 -0.3919  0.0338  0.4844
   66MOL   O13227562   7.010   3.966   5.439  0.2946 -0.2062 -0.2133
   66MOL   C13327563   7.001   4.073   5.525  0.5156 -0.9384 -0.8672
   66MOL   C13427564   6.867   4.058   5.602 -0.0918 -0.3766 -0.1632
   66MOL   C13527565   6.876   3.963   5.717  0.5201 -0.1402 -0.7977
   66MOL   C13627566   6.756   3.967   5.809 -0.8035 -0.0682 -0.0447
   66MOL   H13727567   6.999   3.692   5.177 -0.5915 -0.8770  1.8014
   66MOL   H13827568   7.007   3.856   5.198  0.9155  0.4557  1.7215
   66MOL   H13927569   7.150   3.666   5.390 -0.5842  0.8500  2.6123
   66MOL   H14027570   6.996   4.165   5.467  0.2302 -0.0856  0.4825
   66MOL   H14127571   7.082   4.077   5.597 -0.6390  1.7948  0.3349
   66MOL   H14227572   6.851   4.152   5.655  3.2146  0.8189 -1.1607
   66MOL   H14327573   6.780   4.050   5.537 -0.5801 -1.0571  0.5757
   66MOL   H14427574   6.964   3.992   5.775  0.7836  1.4951 -1.9789
   66MOL   H14527575   6.887   3.860   5.683  1.9907 -0.4003  0.4085
   66MOL   H14627576   6.749   3.891   5.886 -0.7454 -0.7778 -0.7339
   66MOL   H14727577   6.661   3.957   5.756 -0.0906  2.4157 -1.8963
   66MOL   H14827578   6.755   4.068   5.852 -2.2824  0.3342 -0.9645
   66MOL   C14927579   6.947   3.648   5.424  0.3351 -0.0809 -0.2584
   66MOL   C15027580   6.996   3.522   5.507  0.5450  0.1286  0.7119
   66MOL   C15127581   7.064   3.552   5.639 -0.6420  0.5945 -0.0855
   66MOL   O15227582   7.187   3.532   5.652 -0.3062 -0.2084 -0.4480
   66MOL   O15327583   6.978   3.609   5.718  0.0654 -0.7296  0.4980
   66MOL   C15427584   7.021   3.662   5.844  0.3403 -0.1219  0.0502
   66MOL   C15527585   6.913   3.653   5.949 -0.1731 -0.1080 -0.7283
   66MOL   C15627586   6.939   3.742   6.074  0.1050 -0.0944  0.3134
   66MOL   C15727587   6.838   3.724   6.186 -0.2848  0.0351  0.3153
   66MOL   H15827588   6.885   3.612   5.342  0.5270  0.0659 -0.4692
   66MOL   H15927589   6.877   3.703   5.487 -2.2137 -1.5733 -1.6953
   66MOL   H16027590   7.077   3.489   5.441  0.6069  1.2114  0.2247
   66MOL   H16127591   7.069   3.758   5.823  0.1024 -0.1995 -0.8445
   66MOL   H16227592   7.108   3.610   5.885 -1.0711 -1.8084  0.9460
   66MOL   H16327593   6.818   3.675   5.900 -0.7939 -1.1892 -0.0450
   66MOL   H16427594   6.899   3.551   5.985 -1.1013  0.5789  0.9162
   66MOL   H16527595   6.929   3.836   6.020  0.3880 -0.3535 -0.1883
   66MOL   H16627596   7.043   3.731   6.104  0.0993 -0.9621  0.0326
   66MOL   H16727597   6.827   3.618   6.207 -0.3036  0.1043  0.6532
   66MOL   H16827598   6.741   3.768   6.165  0.9913  2.4381 -0.7977
   66MOL   H16927599   6.872   3.770   6.279 -0.5536  1.1616 -0.1348
   66MOL   C17027600   6.901   3.408   5.522 -0.8670 -0.4034 -0.3585
   66MOL   C17127601   6.854   3.328   5.397 -0.8419 -0.4274 -0.6698
   66MOL   C17227602   6.967   3.288   5.301 -0.6216  0.2547 -0.1720
   66MOL   O17327603   6.963   3.341   5.187  0.3214  0.1357  0.3281
   66MOL   O17427604   7.051   3.193   5.349 -0.6001 -0.2571 -0.0147
   66MOL   C17527605   7.113   3.097   5.263  0.2067 -0.0771 -0.3471
   66MOL   C17627606   7.054   2.958   5.282  0.4749  1.1257 -0.4918
   66MOL   C17727607   7.127   2.844   5.210 -0.0723  1.1053 -0.1979
   66MOL   C17827608   7.058   2.706   5.214  0.0805  0.9110 -0.0031
   66MOL   H17927609   6.814   3.437   5.581  0.3369 -0.1527  1.3089
   66MOL   H18027610   6.955   3.337   5.585  1.5666  0.1678 -1.7264
   66MOL   H18127611   6.790   3.398   5.343 -0.1819  0.9215  0.2872
   66MOL   H18227612   7.222   3.089   5.266  0.0798 -2.0758 -0.1041
   66MOL   H18327613   7.079   3.128   5.164  0.8752 -1.5121 -1.0444
   66MOL   H18427614   7.044   2.949   5.390  0.2392  0.7986 -0.5431
   66MOL   H18527615   6.954   2.979   5.244 -0.5445  0.3153  1.6676
   66MOL   H18627616   7.225   2.837   5.258  0.4708 -1.4161 -1.5714
   66MOL   H18727617   7.144   2.874   5.106  2.7343 -2.0162 -0.7211
   66MOL   H18827618   7.125   2.624   5.188 -1.6487  0.2600 -2.6163
   66MOL   H18927619   6.972   2.705   5.146  1.2753  0.5870 -1.5582
   66MOL   H19027620   7.021   2.680   5.312  0.7128  1.4939  0.3950
   66MOL   C19127621   6.776   3.199   5.428 -0.2897 -0.3403 -0.6983
   66MOL   C19227622   6.700   3.128   5.305 -0.7509  0.2925 -0.2052
   66MOL   C19327623   6.630   3.008   5.363  0.6614  0.2709 -0.2356
   66MOL   O19427624   6.630   2.903   5.305 -0.3502 -0.2855  0.3608
   66MOL   O19527625   6.560   3.035   5.477  0.3981  0.9067  0.5078
   66MOL   C19627626   6.485   2.926   5.536 -0.5672 -0.4272 -0.0180
   66MOL   C19727627   6.384   2.987   5.631  1.1104  0.0654  0.1835
   66MOL   C19827628   6.281   2.879   5.671 -0.3577 -0.4424 -0.2491
   66MOL   C19927629   6.186   2.924   5.777 -0.4185 -0.1165 -0.6967
   66MOL   H20027630   6.696   3.236   5.493  0.3658 -0.4288  0.1655
   66MOL   H20127631   6.839   3.125   5.478  1.1753  0.6799 -0.9989
   66MOL   H20227632   6.769   3.096   5.227 -0.7921 -1.5649  0.5083
   66MOL   H20327633   6.551   2.852   5.582 -0.6276 -0.4027  0.1057
   66MOL   H20427634   6.434   2.875   5.454  0.9757 -0.9916 -0.6513
   66MOL   H20527635   6.445   3.032   5.709  0.6013 -2.2237  1.9627
   66MOL   H20627636   6.346   3.077   5.582 -0.9680 -0.1436  1.3455
   66MOL   H20727637   6.337   2.792   5.706  0.4739 -0.5269 -1.7502
   66MOL   H20827638   6.222   2.859   5.582  1.1402 -0.1598 -1.3194
   66MOL   H20927639   6.133   2.834   5.808  1.1895 -0.3051  1.6961
   66MOL   H21027640   6.121   3.002   5.738 -0.3716 -0.5881 -1.7056
   66MOL   H21127641   6.222   2.974   5.868 -0.0263 -0.3541 -0.7200
   66MOL   C21227642   6.587   3.217   5.247 -0.0192  0.2418 -0.8297
   66MOL   C21327643   6.618   3.324   5.145  0.4899 -0.1012  0.6304
   66MOL   C21427644   6.691   3.267   5.021  0.2710 -0.4402  0.0665
   66MOL   O21527645   6.674   3.148   4.984 -0.3381 -0.4153  0.0993
   66MOL   O21627646   6.762   3.366   4.958  0.5016 -0.2316 -0.3255
   66MOL   C21727647   6.836   3.325   4.842  0.7422 -0.0228  0.4208
   66MOL   C21827648   6.975   3.280   4.886  0.7073  0.8995  0.4546
   66MOL   C21927649   7.059   3.225   4.766 -0.5809 -0.4927  0.1292
   66MOL   C22027650   7.193   3.167   4.813 -0.2768  0.1195 -0.8397
   66MOL   H22127651   6.543   3.257   5.338  3.0146 -0.2351  0.9070
   66MOL   H22227652   6.519   3.149   5.196 -0.7796  0.7583 -0.4968
   66MOL   H22327653   6.694   3.388   5.188  0.6470  1.5353 -1.9498
   66MOL   H22427654   6.842   3.412   4.776 -0.1027  0.5021  1.0120
   66MOL   H22527655   6.782   3.254   4.780  4.3907 -1.2140 -1.5039
   66MOL   H22627656   7.026   3.363   4.936 -1.2513  2.3643  0.0898
   66MOL   H22727657   6.974   3.196   4.954  0.2535  0.2067 -0.3984
   66MOL   H22827658   7.071   3.312   4.701  0.1726  1.3698  2.6520
   66MOL   H22927659   7.009   3.145   4.712  0.9181  0.7867 -3.2899
   66MOL   H23027660   7.257   3.135   4.731  0.9259 -2.3908  0.9970
   66MOL   H23127661   7.175   3.076   4.872 -0.9645  0.9511  0.2623
   66MOL   H23227662   7.258   3.234   4.870 -0.5704 -0.8032  0.6169
   66MOL   C23327663   6.497   3.409   5.106  0.2432 -0.4348  0.2383
   66MOL   C23427664   6.526   3.540   5.030  0.3134 -0.5381 -0.5575
   66MOL   C23527665   6.394   3.604   4.990  1.4389  0.2572  0.1722
   66MOL   O23627666   6.298   3.616   5.068  0.8381  0.3252  0.1825
   66MOL   O23727667   6.388   3.623   4.860  0.0883 -0.3883  0.3775
   66MOL   C23827668   6.258   3.645   4.794 -0.3083 -0.2977  0.6076
   66MOL   C23927669   6.176   3.518   4.775  0.8296  0.3662 -0.0789
   66MOL   C24027670   6.047   3.544   4.691  1.0394 -0.1875  0.4170
   66MOL   C24127671   5.938   3.643   4.739  0.2353 -0.6538  0.2229
   66MOL   H24227672   6.439   3.423   5.198  0.6001 -1.6856  0.6656
   66MOL   H24327673   6.433   3.357   5.036 -0.2839  0.4699  0.0404
   66MOL   H24427674   6.584   3.524   4.939  2.1082  0.2169  0.4251
   66MOL   H24527675   6.274   3.690   4.697 -2.3072 -3.2022 -1.1575
   66MOL   H24627676   6.203   3.718   4.853 -1.0597 -1.1452  0.9745
   66MOL   H24727677   6.241   3.448   4.722  0.3683  1.2765 -1.8918
   66MOL   H24827678   6.144   3.476   4.870 -0.4243  1.6697  0.0979
   66MOL   H24927679   6.001   3.445   4.689  1.7789 -0.5159 -2.2054
   66MOL   H25027680   6.078   3.569   4.589  1.3469  0.3758  0.6457
   66MOL   H25127681   5.978   3.742   4.715  1.7463 -1.8356 -2.3530
   66MOL   H25227682   5.903   3.635   4.842 -0.5206  2.0841  0.2320
   66MOL   H25327683   5.847   3.635   4.678 -1.3638 -1.4599  2.6341
   66MOL   C25427684   6.597   3.637   5.134 -0.7211  0.5831 -0.1825
   66MOL   C25527685   6.607   3.786   5.086  0.1214 -0.3010  0.2895
   66MOL   C25627686   6.631   3.886   5.198 -0.1283  0.0566 -0.0429
   66MOL   O25727687   6.665   3.847   5.311 -0.1794 -0.0272  0.2378
   66MOL   O25827688   6.630   4.015   5.153  0.2333 -0.0694  0.1270
   66MOL   C25927689   6.664   4.120   5.251 -0.3297  0.0899  0.2670
   66MOL   C26027690   6.771   4.207   5.179 -0.3082 -0.7948  0.1654
   66MOL   C26127691   6.896   4.125   5.148 -0.2674  0.1330 -0.5983
   66MOL   C26227692   6.992   4.211   5.078 -0.4482 -0.7746 -0.5413
   66MOL   H26327693   6.697   3.607   5.165 -1.5499 -1.3952  0.6279
   66MOL   H26427694   6.547   3.639   5.231  2.6291 -3.4277  1.7636
   66MOL   H26527695   6.510   3.825   5.054 -0.4262  0.2782  2.5535
   66MOL   H26627696   6.701   4.087   5.347  1.0358  0.2547 -0.1939
   66MOL   H26727697   6.568   4.171   5.261 -0.7114 -0.5235 -0.2107
   66MOL   H26827698   6.731   4.238   5.082 -2.8553 -2.4148  0.6511
   66MOL   H26927699   6.787   4.300   5.233 -2.9374  1.6638 -3.0499
   66MOL   H27027700   6.866   4.036   5.093 -2.1563 -0.1861  0.8801
   66MOL   H27127701   6.939   4.095   5.243 -0.8075 -1.4403 -0.8311
   66MOL   H27227702   7.080   4.147   5.079 -0.0753 -0.2690  2.0213
   66MOL   H27327703   7.018   4.303   5.130 -1.2929  1.1703 -3.4018
   66MOL   H27427704   6.959   4.214   4.974 -1.2374 -0.6526 -0.2888
   66MOL   C27527705   6.709   3.801   4.967  0.6882 -0.3548  0.1140
   66MOL   C27627706   6.694   3.915   4.865  0.4508  0.1258 -0.4721
   66MOL   C27727707   6.815   3.937   4.766  0.2077 -0.2161  1.5216
   66MOL   O27827708   6.868   4.046   4.754 -0.0295  0.4544 -0.3089
   66MOL   O27927709   6.851   3.824   4.705  0.1949  0.0840 -0.3417
   66MOL   C28027710   6.955   3.818   4.601  0.4489  0.3977  0.0507
   66MOL   C28127711   7.013   3.673   4.607  0.4082  0.2825 -0.1762
   66MOL   C28227712   7.102   3.642   4.485  0.0644 -0.0385  0.1726
   66MOL   C28327713   7.096   3.485   4.464 -0.5593  0.0126  0.4707
   66MOL   H28427714   6.705   3.711   4.904  0.0072 -1.4652  1.7143
   66MOL   H28527715   6.815   3.795   4.994  0.2607  0.2062  1.9752
   66MOL   H28627716   6.704   4.006   4.924  1.9490  0.5790 -1.3858
   66MOL   H28727717   7.037   3.886   4.625  1.2921 -0.3311 -0.7553
   66MOL   H28827718   6.912   3.843   4.504 -1.5229  1.5564  1.1799
   66MOL   H28927719   7.063   3.659   4.703 -0.3710  0.1211  0.2035
   66MOL   H29027720   6.931   3.602   4.619 -0.5000  1.5299  1.1571
   66MOL   H29127721   7.208   3.660   4.506 -0.0086  1.3208 -0.5917
   66MOL   H29227722   7.074   3.699   4.397 -0.2329 -3.0138 -1.7379
   66MOL   H29327723   7.147   3.466   4.370 -0.5135 -2.4084  0.9479
   66MOL   H29427724   6.996   3.445   4.450 -1.2494  2.0110 -0.4785
   66MOL   H29527725   7.145   3.415   4.531  1.1432  1.7080  1.0459
   66MOL   C29627726   6.565   3.904   4.782 -0.3947  0.0607  0.6290
   66MOL   C29727727   6.534   4.035   4.710  0.9210  0.4285  0.4766
   66MOL   C29827728   6.438   4.010   4.584  0.0580 -0.2202 -0.0293
   66MOL   O29927729   6.373   3.906   4.570 -0.1341  0.0840  0.2355
   66MOL   O30027730   6.433   4.112   4.499  0.5711 -0.2284  0.1434
   66MOL   C30127731   6.362   4.104   4.372 -0.1288 -0.3377 -0.4104
   66MOL   C30227732   6.221   4.162   4.378  0.4027  0.1944  0.2093
   66MOL   C30327733   6.123   4.079   4.464 -0.0027 -0.1510 -0.3525
   66MOL   C30427734   5.978   4.142   4.469 -0.3700  0.1803 -0.1875
   66MOL   H30527735   6.475   3.878   4.839 -1.7043 -1.8115 -2.2128
   66MOL   H30627736   6.579   3.822   4.712  0.4889 -0.1881  1.0828
   66MOL   H30727737   6.622   4.069   4.656 -0.0085 -0.2955 -1.5260
   66MOL   H30827738   6.363   4.003   4.331 -0.9755 -0.3408 -0.4262
   66MOL   H30927739   6.423   4.172   4.313 -0.1230  1.9798  2.1459
   66MOL   H31027740   6.238   4.265   4.410  0.1786 -0.4290  2.4206
   66MOL   H31127741   6.191   4.179   4.274  2.2497  0.2839 -0.3260
   66MOL   H31227742   6.158   4.068   4.567  0.7446  1.7487 -0.3854
   66MOL   H31327743   6.117   3.979   4.422  0.0448  0.5102 -1.9695
   66MOL   H31427744   5.991   4.238   4.518  0.0174 -0.8451  1.7844
   66MOL   H31527745   5.902   4.083   4.522 -0.7793 -2.4475 -3.5191
   66MOL   H31627746   5.934   4.169   4.373 -0.6561 -0.6532 -0.2954
   66MOL   C31727747   6.489   4.158   4.792 -0.5462  0.5736 -0.4254
   66MOL   C31827748   6.380   4.144   4.900 -0.2359  0.9829  0.3511
   66MOL   C31927749   6.381   4.265   4.988 -0.3784  0.3560  0.5719
   66MOL   O32027750   6.471   4.286   5.071 -0.3826 -0.1637  0.0510
   66MOL   O32127751   6.277   4.342   4.968  0.5361 -0.2738  0.0754
   66MOL   C32227752   6.261   4.459   5.043  0.4800  0.4591 -0.2547
   66MOL   C32327753   6.197   4.563   4.950 -0.2528  0.5544 -0.1723
   66MOL   C32427754   6.278   4.599   4.823  0.5408 -0.5798  0.3308
   66MOL   C32527755   6.242   4.508   4.706  0.0547 -0.6692 -0.9628
   66MOL   H32627756   6.468   4.233   4.715  2.1586  0.5539 -1.2592
   66MOL   H32727757   6.583   4.205   4.824 -2.3425  2.3726  2.3604
   66MOL   H32827758   6.410   4.063   4.966 -1.9830  0.8407  1.0041
   66MOL   H32927759   6.355   4.505   5.074  0.0766  1.2133 -0.1517
   66MOL   H33027760   6.200   4.426   5.127  2.5746 -2.0800  0.3538
   66MOL   H33127761   6.092   4.546   4.927 -0.8350  3.6673 -0.0947
   66MOL   H33227762   6.187   4.653   5.010 -1.0383  0.5973 -0.3655
   66MOL   H33327763   6.384   4.599   4.847  0.6792  0.1507 -0.2462
   66MOL   H33427764   6.256   4.701   4.793 -1.3386 -1.0657 -0.0694
   66MOL   H33527765   6.135   4.515   4.691 -0.3108 -0.8616  1.4820
   66MOL   H33627766   6.272   4.406   4.729 -2.3976 -1.3725 -0.8320
   66MOL   H33727767   6.289   4.555   4.619  1.4928  1.7752  1.0486
   66MOL   C33827768   6.239   4.099   4.848  0.3168  0.5942 -0.3276
   66MOL   C33927769   6.128   4.085   4.956  0.7053  0.1779  0.4350
   66MOL   C34027770   5.980   4.104   4.895  0.1269  0.9759 -0.1569
   66MOL   O34127771   5.903   4.002   4.889 -0.8933 -0.5015  0.1275
   66MOL   O34227772   5.945   4.230   4.871 -0.5667  0.4851  0.4382
   66MOL   C34327773   5.831   4.260   4.792 -0.4224 -0.9680 -0.7078
   66MOL   C34427774   5.809   4.411   4.810 -0.0515 -0.9105 -0.1110
   66MOL   C34527775   5.665   4.479   4.778  0.3447  0.0361 -0.1436
   66MOL   C34627776   5.674   4.626   4.775 -0.7574 -0.2848 -0.5999
   66MOL   H34727777   6.249   4.002   4.798  1.7840 -0.2826  1.5791
   66MOL   H34827778   6.208   4.173   4.775  2.3196  1.4877 -0.3028
   66MOL   H34927779   6.123   4.174   5.018  0.3242  0.1400  0.4557
   66MOL   H35027780   5.758   4.192   4.836 -1.8227 -0.0321 -1.5567
   66MOL   H35127781   5.853   4.242   4.687 -0.9252  0.2733 -1.0297
   66MOL   H35227782   5.830   4.427   4.915  0.8035 -0.3121 -0.3638
   66MOL   H35327783   5.885   4.466   4.755 -0.5119 -1.9371 -1.8552
   66MOL   H35427784   5.592   4.441   4.850  0.8057 -0.0274  0.2915
   66MOL   H35527785   5.623   4.433   4.689 -0.9569  1.8478 -0.4932
   66MOL   H35627786   5.714   4.658   4.872  1.9832 -0.9627 -1.4558
   66MOL   H35727787   5.572   4.665   4.773 -1.8696 -2.9842  0.7972
   66MOL   H35827788   5.724   4.671   4.690 -0.5895  2.1797  0.7624
   66MOL   C35927789   6.146   3.962   5.047  0.4847 -1.1244  0.4253
   66MOL   C36027790   6.211   3.987   5.185 -0.0516 -0.1119  0.5604
   66MOL   C36127791   6.154   4.108   5.260  0.0289 -0.6774 -0.0119
   66MOL   O36227792   6.215   4.210   5.282  0.3878  0.5657  0.0228
   66MOL   O36327793   6.026   4.096   5.291 -0.6214  0.7954  0.1012
   66MOL   C36427794   5.951   4.183   5.370  0.5085  0.3571  0.0754
   66MOL   C36527795   5.806   4.172   5.322  0.1032 -0.7597 -0.1654
   66MOL   C36627796   5.766   4.236   5.191 -0.5798  0.1483  0.0914
   66MOL   C36727797   5.620   4.226   5.145  0.6850  0.4557  0.2044
   66MOL   H36827798   6.211   3.888   5.001 -0.7314 -1.6092 -0.5516
   66MOL   H36927799   6.046   3.919   5.051  0.9256 -2.2424 -0.3662
   66MOL   H37027800   6.315   4.018   5.173  0.2565 -1.0937  0.6429
   66MOL   H37127801   5.982   4.287   5.379  1.3962  0.0560  0.5489
   66MOL   H37227802   5.956   4.140   5.470  1.9572 -0.0629 -0.1685
   66MOL   H37327803   5.768   4.069   5.326  0.5317 -0.8690  2.0886
   66MOL   H37427804   5.752   4.215   5.407  1.6895  0.7477  0.0951
   66MOL   H37527805   5.825   4.187   5.113 -1.5368 -0.3156 -0.3540
   66MOL   H37627806   5.796   4.340   5.197  0.8933 -0.3040  0.8962
   66MOL   H37727807   5.552   4.300   5.187 -0.8022 -1.1702  0.7918
   66MOL   H37827808   5.575   4.127   5.154  0.8329  0.2928 -0.7699
   66MOL   H37927809   5.628   4.246   5.038  0.3889  2.7258  0.5979
   66MOL   C38027810   6.243   3.860   5.273 -0.1305 -0.1711 -0.4569
   66MOL   C38127811   6.250   3.880   5.432 -0.0179 -0.2558 -0.6906
   66MOL   C38227812   6.233   3.752   5.505 -0.3050 -0.3990  0.2650
   66MOL   O38327813   6.153   3.746   5.592 -0.1938 -0.1396  0.6689
   66MOL   O38427814   6.318   3.653   5.466  0.1138  0.8183  0.1741
   66MOL   C38527815   6.316   3.526   5.538  0.5552  0.1773  0.4554
   66MOL   C38627816   6.448   3.487   5.598 -0.9505  0.2225  0.8105
   66MOL   C38727817   6.537   3.594   5.658 -0.2089  0.3775  0.5808
   66MOL   C38827818   6.480   3.665   5.779  0.2907  0.7543  0.2476
   66MOL   H38927819   6.323   3.805   5.223  0.6968 -0.0705  0.7235
   66MOL   H39027820   6.166   3.784   5.256 -1.2126  0.8802 -0.3176
   66MOL   H39127821   6.165   3.943   5.457 -0.4635 -0.8590 -0.6925
   66MOL   H39227822   6.293   3.452   5.462 -2.7782  2.2579 -0.6419
   66MOL   H39327823   6.236   3.520   5.611  0.8685 -2.7543  0.5991
   66MOL   H39427824   6.425   3.417   5.678 -0.1189 -0.3505  0.5559
   66MOL   H39527825   6.513   3.447   5.520 -0.8108  1.0530  0.4933
   66MOL   H39627826   6.565   3.669   5.584 -0.1623  0.2531  0.4732
   66MOL   H39727827   6.632   3.548   5.687  0.1025 -0.2256 -1.3576
   66MOL   H39827828   6.557   3.721   5.833 -0.8084  2.1352  0.4051
   66MOL   H39927829   6.435   3.593   5.847  1.1070  1.4225  1.5099
   66MOL   H40027830   6.400   3.734   5.752 -0.6933 -0.8778 -1.1058
   66MOL   C40127831   6.377   3.960   5.476 -0.0391 -0.5196  0.6150
   66MOL   C40227832   6.366   4.029   5.612  0.3739  1.1230 -0.6840
   66MOL   C40327833   6.286   4.160   5.608  0.5988  0.0512 -0.7251
   66MOL   O40427834   6.183   4.163   5.676 -0.2913  0.7082 -0.6593
   66MOL   O40527835   6.351   4.256   5.541 -0.2489  0.1088  0.3388
   66MOL   C40627836   6.298   4.390   5.547 -0.4811  0.2754  0.5602
   66MOL   C40727837   6.394   4.502   5.512  0.3080 -0.5160  0.5149
   66MOL   C40827838   6.485   4.488   5.391 -0.4701 -0.1096  0.8860
   66MOL   C40927839   6.602   4.589   5.400  0.3598 -0.2294  0.3787
   66MOL   H41027840   6.416   4.022   5.395  0.6447  1.2102  2.2181
   66MOL   H41127841   6.460   3.891   5.490  0.6786  0.0846 -0.5550
   66MOL   H41227842   6.467   4.050   5.648  0.7822  2.5055 -2.5576
   66MOL   H41327843   6.247   4.411   5.641 -1.1994 -2.3930  0.8265
   66MOL   H41427844   6.222   4.376   5.470  0.5465 -1.2714 -0.2144
   66MOL   H41527845   6.332   4.592   5.504 -0.5300 -0.8834  2.8110
   66MOL   H41627846   6.455   4.503   5.602 -0.3469  0.3547  0.9523
   66MOL   H41727847   6.429   4.483   5.298  2.5730 -0.3859 -0.9937
   66MOL   H41827848   6.516   4.384   5.403 -0.8207  0.0842  3.9029
   66MOL   H41927849   6.637   4.587   5.503 -1.2888 -0.8134  0.9370
   66MOL   H42027850   6.588   4.694   5.375  3.2576  0.2897  0.7266
   66MOL   H42127851   6.672   4.564   5.320 -0.5695 -1.9671  0.0661
   66MOL   H42227852   6.316   3.952   5.671  0.9954  0.2947 -1.2304
   67MOL     C127853   5.915   0.098   0.428 -0.1664  0.3632 -0.4865
   67MOL     C227854   6.013   0.075   0.314 -1.0946  0.4067 -0.1022
   67MOL     C327855   6.001   0.187   0.213 -0.4605 -0.4279  0.6285
   67MOL     O427856   5.994   0.150   0.094  0.5066  0.6175  0.2845
   67MOL     O527857   6.003   0.305   0.260 -0.0010  0.0407 -0.2533
   67MOL     C627858   5.979   0.409   0.166 -0.2437  0.3041  0.0792
   67MOL     C727859   5.842   0.467   0.203 -0.4766 -0.8561  0.4930
   67MOL     C827860   5.819   0.614   0.171 -1.2048  0.0460  0.4433
   67MOL     C927861   5.865   0.643   0.032  0.7109 -0.2963 -0.3012
   67MOL    H1027862   5.939   0.193   0.475 -0.2086 -0.1519  0.5694
   67MOL    H1127863   5.819   0.127   0.384 -1.1495  0.2497  1.5361
   67MOL    H1227864   5.979   7.838   0.262 -1.7745  1.9473 -2.4065
   67MOL    H1327865   5.979   0.370   0.064  0.6345 -0.4874  0.3708
   67MOL    H1427866   6.062   0.479   0.158  0.9298 -1.0567  0.1176
   67MOL    H1527867   5.768   0.411   0.145  0.5032  0.1201 -1.7766
   67MOL    H1627868   5.800   0.454   0.302 -1.4921  1.0439  0.3346
   67MOL    H1727869   5.876   0.675   0.242  2.1575  1.2512 -3.0662
   67MOL    H1827870   5.712   0.633   0.178 -1.2107 -0.5422  2.2567
   67MOL    H1927871   5.827   0.570   7.813  0.4442 -0.3620 -0.0962
   67MOL    H2027872   5.973   0.643   0.021  0.5447  2.6189 -2.4722
   67MOL    H2127873   5.830   0.741   7.853 -0.9835 -0.3332  1.3643
   67MOL    H2227874   5.908   0.022   0.505  3.1202  0.2283 -0.2525
   67MOL    C2327875   6.155   0.076   0.358 -0.6027  0.7761  0.1549
   67MOL    C2427876   6.261   0.038   0.256  0.9815 -1.1983 -0.4438
   67MOL    C2527877   6.396   0.075   0.316  0.3430  0.9624  0.2493
   67MOL    O2627878   6.474   0.153   0.265 -0.3082 -0.5407 -0.7926
   67MOL    O2727879   6.431   7.853   0.427  0.3055 -0.4912  0.0750
   67MOL    C2827880   6.558   0.017   0.492  1.4309 -0.3945 -0.2440
   67MOL    C2927881   6.596   7.750   0.582  0.5899  0.9593 -0.2069
   67MOL    C3027882   6.619   7.610   0.513  0.5707 -0.1813  0.0385
   67MOL    C3127883   6.631   7.486   0.603  0.2154  0.2115 -0.5929
   67MOL    H3227884   6.156   7.850   0.432 -2.5195  0.5369 -0.0523
   67MOL    H3327885   6.177   0.171   0.407 -0.9314  1.2773 -0.6545
   67MOL    H3427886   6.249   0.107   0.173 -1.4599 -1.8917 -0.7116
   67MOL    H3527887   6.537   0.114   0.538 -1.6089 -0.4559 -1.4093
   67MOL    H3627888   6.631   0.050   0.417  2.0344  1.2238  1.0179
   67MOL    H3727889   6.672   7.763   0.659 -0.4510  0.0619  0.9791
   67MOL    H3827890   6.505   7.728   0.638  0.7025 -2.3375 -1.1965
   67MOL    H3927891   6.715   7.623   0.463  0.6961  0.7654  0.5082
   67MOL    H4027892   6.534   7.607   0.444  0.0717  1.2779  0.5491
   67MOL    H4127893   6.683   7.411   0.542  0.9380  0.4362 -0.2627
   67MOL    H4227894   6.530   7.461   0.635 -0.0521  1.0976 -0.7266
   67MOL    H4327895   6.691   7.496   0.693 -1.5971  1.2688  0.5237
   67MOL    C4427896   6.244   7.738   0.209 -0.2527 -0.2423  0.0019
   67MOL    C4527897   6.241   7.701   0.055 -0.2246 -0.6247 -0.7363
   67MOL    C4627898   6.378   7.732   7.846 -0.4432  0.1644 -0.0565
   67MOL    O4727899   6.476   7.656   7.844 -0.5840  0.3954  0.0022
   67MOL    O4827900   6.382   0.010   7.811  0.0145 -0.0413 -0.7349
   67MOL    C4927901   6.512   0.058   7.763 -0.1997 -0.0162  0.6972
   67MOL    C5027902   6.504   0.130   7.632 -0.8741  0.8369  0.2919
   67MOL    C5127903   6.647   0.156   7.580  0.2716  0.1082 -0.1528
   67MOL    C5227904   6.653   0.229   7.448  0.4641  0.3115 -0.1710
   67MOL    H5327905   6.154   7.690   0.245  0.5722 -2.0698 -0.3274
   67MOL    H5427906   6.313   7.676   0.267 -2.4270  0.4195  3.4711
   67MOL    H5527907   6.168   7.769   0.009 -0.9176 -0.3854  0.6992
   67MOL    H5627908   6.587   7.833   7.750  0.9409  1.4250 -1.6986
   67MOL    H5727909   6.553   0.129   7.836 -0.4251  2.6796 -1.7270
   67MOL    H5827910   6.447   0.062   7.569 -1.4131  0.8691  0.7327
   67MOL    H5927911   6.442   0.218   7.649 -0.8100  1.0126 -0.3736
   67MOL    H6027912   6.703   0.063   7.572 -1.4817 -0.8631 -1.3335
   67MOL    H6127913   6.692   0.223   7.654  0.5072 -0.7358  0.4779
   67MOL    H6227914   6.760   0.242   7.439  1.1403 -1.7129  3.7585
   67MOL    H6327915   6.602   0.325   7.457 -1.0517 -0.2687 -2.2010
   67MOL    H6427916   6.625   0.165   7.365 -2.1491  1.6746 -0.4154
   67MOL    C6527917   6.193   7.552   0.042 -0.5735  0.0829  0.3747
   67MOL    C6627918   6.039   7.535   0.035  0.5086  0.2573 -0.5529
   67MOL    C6727919   5.988   7.529   7.744 -0.1179 -0.5535  0.3037
   67MOL    O6827920   6.062   7.531   7.646 -0.3113  0.3058 -0.6216
   67MOL    O6927921   5.855   7.528   7.749 -0.3672 -0.5540  0.3202
   67MOL    C7027922   5.782   7.514   7.633  0.6721 -0.1671 -0.2455
   67MOL    C7127923   5.729   7.374   7.602 -0.6491 -0.3452  0.3900
   67MOL    C7227924   5.835   7.269   7.587 -0.7116 -0.6103  0.1621
   67MOL    C7327925   5.777   7.122   7.575 -0.4203 -0.7817 -0.2651
   67MOL    H7427926   6.241   7.502   0.126 -0.0659  1.7501  1.0963
   67MOL    H7527927   6.237   7.506   7.806  0.5977  0.7800  0.5802
   67MOL    H7627928   5.992   7.625   0.074 -0.1192  0.0597 -0.8403
   67MOL    H7727929   5.838   7.545   7.544 -1.6299  1.5607 -1.1458
   67MOL    H7827930   5.695   7.579   7.638  0.5812 -0.1730 -1.5137
   67MOL    H7927931   5.648   7.354   7.672  0.1374  1.4616  1.8452
   67MOL    H8027932   5.683   7.383   7.504  0.9980 -1.8485 -0.5524
   67MOL    H8127933   5.902   7.278   7.673 -0.1301  0.1853 -0.3591
   67MOL    H8227934   5.890   7.297   7.497 -0.8689  0.3533  0.3582
   67MOL    H8327935   5.711   7.113   7.490  0.4094  0.9376 -1.1177
   67MOL    H8427936   5.717   7.105   7.664 -2.0442 -1.5892 -1.4968
   67MOL    H8527937   5.857   7.048   7.571  0.0626 -0.1682 -2.2818
   67MOL    C8627938   5.980   7.416   0.117  0.0516  0.0894 -0.1448
   67MOL    C8727939   5.990   7.438   0.270  0.9790 -0.1110  0.8255
   67MOL    C8827940   5.913   7.559   0.320 -0.4339  0.1659 -0.1566
   67MOL    O8927941   5.942   7.614   0.426  0.1810  0.1096 -0.0082
   67MOL    O9027942   5.809   7.585   0.247 -0.1095 -0.8129 -0.0930
   67MOL    C9127943   5.719   7.679   0.296  0.1609  0.3963  0.1273
   67MOL    C9227944   5.606   7.680   0.184  0.6411 -0.5569  0.3195
   67MOL    C9327945   5.550   7.544   0.186  0.0835 -0.1446 -0.5470
   67MOL    C9427946   5.418   7.535   0.112  0.0147  0.5562 -0.7319
   67MOL    H9527947   6.039   7.328   0.091 -2.4379 -1.3714 -1.0664
   67MOL    H9627948   5.882   7.381   0.086  0.5836 -1.7921  0.2545
   67MOL    H9727949   6.091   7.445   0.310  1.4946 -1.6750 -0.1626
   67MOL    H9827950   5.774   7.773   0.299 -1.0071  1.0476  1.1333
   67MOL    H9927951   5.693   7.649   0.397 -0.7971 -2.0257 -0.7955
   67MOL   H10027952   5.533   7.748   0.227  0.5081  0.0102 -0.7712
   67MOL   H10127953   5.648   7.706   0.086 -2.3493  0.2735 -0.7940
   67MOL   H10227954   5.527   7.532   0.292  1.2292  1.4492 -0.0852
   67MOL   H10327955   5.617   7.463   0.159 -0.1962 -1.4653  2.5423
   67MOL   H10427956   5.439   7.561   0.009  0.3078 -1.5289 -1.2299
   67MOL   H10527957   5.339   7.588   0.165 -0.8198 -2.6362  1.3696
   67MOL   H10627958   5.397   7.428   0.122 -0.0225  0.6144 -0.1602
   67MOL   C10727959   5.919   7.319   0.334  0.0477 -0.0610  0.0192
   67MOL   C10827960   5.911   7.299   0.488 -1.0155 -0.2586  0.0819
   67MOL   C10927961   5.782   7.236   0.530  0.4313  0.1083  0.1184
   67MOL   O11027962   5.698   7.297   0.594  0.6564  0.3759 -0.1878
   67MOL   O11127963   5.775   7.104   0.489 -0.3936  0.2982  0.0269
   67MOL   C11227964   5.663   7.024   0.530  0.0469  0.2273  0.3612
   67MOL   C11327965   5.708   6.881   0.558  0.3205 -0.0665  0.0109
   67MOL   C11427966   5.715   6.801   0.427 -0.3848  0.5314 -0.7583
   67MOL   C11527967   5.708   6.647   0.459 -0.0204 -0.9955  0.2619
   67MOL   H11627968   5.953   7.225   0.291  1.1296  0.6730 -0.7421
   67MOL   H11727969   5.816   7.335   0.301  0.4413 -0.7534 -1.5386
   67MOL   H11827970   5.915   7.403   0.520  0.0781 -0.0176 -0.7968
   67MOL   H11927971   5.582   7.028   0.457  0.1402 -0.1174  0.2381
   67MOL   H12027972   5.628   7.071   0.622 -0.5412  0.3820  0.0570
   67MOL   H12127973   5.799   6.881   0.619 -0.9854  0.6407  1.9977
   67MOL   H12227974   5.640   6.828   0.625  2.2154 -0.9942  1.2615
   67MOL   H12327975   5.814   6.824   0.388  0.0046  0.4732  0.1933
   67MOL   H12427976   5.638   6.832   0.357 -0.7976  1.2647  0.0251
   67MOL   H12527977   5.719   6.595   0.364  1.7068 -0.0721 -0.0767
   67MOL   H12627978   5.611   6.625   0.502 -0.8191  0.9529 -0.4899
   67MOL   H12727979   5.790   6.625   0.528  0.6055  0.6987  0.0957
   67MOL   C12827980   6.028   7.219   0.553 -1.2255  0.0902  0.0641
   67MOL   C12927981   6.163   7.295   0.550  0.1509 -0.1668 -0.3157
   67MOL   C13027982   6.176   7.399   0.661 -0.5445 -0.6737 -0.2250
   67MOL   O13127983   6.262   7.391   0.748 -0.1467  0.1345 -0.4200
   67MOL   O13227984   6.085   7.496   0.656 -0.8271  0.4409  0.5071
   67MOL   C13327985   6.097   7.606   0.744 -0.0835  0.0938 -0.4706
   67MOL   C13427986   6.234   7.690   0.732 -0.2183  0.2690 -0.4403
   67MOL   C13527987   6.238   7.813   0.819  0.2438  0.7341 -0.5582
   67MOL   C13627988   6.355   0.051   0.782  0.2766  0.0465  0.1309
   67MOL   H13727989   6.037   7.130   0.490 -1.6775  0.7468 -0.9219
   67MOL   H13827990   6.003   7.179   0.652 -1.7574  0.2818  0.0077
   67MOL   H13927991   6.167   7.361   0.464  2.6433 -0.4193 -0.4361
   67MOL   H14027992   6.082   7.576   0.848 -1.7906  1.5307 -0.2706
   67MOL   H14127993   6.020   7.679   0.719 -1.2177 -0.9947 -0.2087
   67MOL   H14227994   6.321   7.626   0.747  0.1975  1.0671  0.6222
   67MOL   H14327995   6.239   7.732   0.631  2.8989  5.9186  1.8045
   67MOL   H14427996   6.231   7.793   0.926 -0.7850 -2.5951 -1.2070
   67MOL   H14527997   6.148   0.020   0.804  0.2430  0.6980 -0.6908
   67MOL   H14627998   6.362   0.057   0.674  0.0583 -0.6613  0.0723
   67MOL   H14727999   6.449   0.020   0.828 -0.7912 -0.0580  2.3050
   67MOL   H14828000   6.338   0.152   0.820 -2.0822  0.3485 -1.6272
   67MOL   C14928001   6.288   7.193   0.552 -0.2203  0.3042  0.3643
   67MOL   C15028002   6.318   7.122   0.417 -0.3689  0.2746  0.3159
   67MOL   C15128003   6.345   7.218   0.300  0.1519 -0.6512 -0.5507
   67MOL   O15228004   6.262   7.230   0.210  0.8656 -0.3934 -0.0081
   67MOL   O15328005   6.460   7.275   0.309 -0.3192  0.2112 -0.2435
   67MOL   C15428006   6.504   7.358   0.197 -0.0604  0.2699  0.5132
   67MOL   C15528007   6.654   7.345   0.181 -0.0455 -0.0598 -0.0212
   67MOL   C15628008   6.696   7.204   0.125  0.6062 -0.2791  0.5111
   67MOL   C15728009   6.843   7.203   0.097  0.1702  0.2464 -0.1955
   67MOL   H15828010   6.280   7.127   0.638  2.7129 -0.0076  0.4734
   67MOL   H15928011   6.384   7.240   0.573  0.1082 -0.3437  0.3176
   67MOL   H16028012   6.230   7.066   0.386  0.1369 -0.6859  0.5840
   67MOL   H16128013   6.478   7.461   0.219 -1.1059 -0.2944  1.9787
   67MOL   H16228014   6.460   7.341   0.098  0.9939 -0.7943  0.2214
   67MOL   H16328015   6.688   7.428   0.119  2.2010  0.4894  1.8885
   67MOL   H16428016   6.697   7.360   0.280 -0.5721  3.0289 -0.2015
   67MOL   H16528017   6.634   7.178   0.039  0.4169  1.6411  0.0494
   67MOL   H16628018   6.670   7.122   0.192 -0.7115  0.5535  1.0371
   67MOL   H16728019   6.860   7.098   0.071 -1.0202  0.1019 -0.4139
   67MOL   H16828020   6.907   7.234   0.180 -0.2189  0.9495 -0.1560
   67MOL   H16928021   6.877   7.258   0.009  1.9105  0.4908  0.5984
   67MOL   C17028022   6.423   7.018   0.436  0.0819 -0.6731 -0.9118
   67MOL   C17128023   6.419   6.896   0.344 -0.8040  0.5041 -0.0006
   67MOL   C17228024   6.561   6.850   0.298 -0.4428 -0.1708  0.0816
   67MOL   O17328025   6.580   6.816   0.184  0.3500 -0.0149  0.0322
   67MOL   O17428026   6.649   6.859   0.389 -0.4194  0.2366 -0.0799
   67MOL   C17528027   6.783   6.844   0.347 -0.0187  0.3294 -0.8329
   67MOL   C17628028   6.873   6.918   0.447  0.0270 -0.7662 -0.2179
   67MOL   C17728029   7.023   6.923   0.412 -0.7077  0.1249  0.3484
   67MOL   C17828030   7.095   7.024   0.505  0.3544  0.0217 -0.3465
   67MOL   H17928031   6.413   6.982   0.539  2.1008 -1.2462 -0.8772
   67MOL   H18028032   6.521   7.065   0.442 -1.0485  1.8099 -1.5314
   67MOL   H18128033   6.375   6.929   0.250 -3.5123 -0.1761  0.9869
   67MOL   H18228034   6.802   6.891   0.250  1.3853 -1.1489 -1.3142
   67MOL   H18328035   6.792   6.735   0.353 -1.1019  0.2809  0.0440
   67MOL   H18428036   6.829   7.018   0.455  0.5559 -0.3564 -2.1564
   67MOL   H18528037   6.861   6.868   0.543 -1.3916 -1.9224 -0.9709
   67MOL   H18628038   7.045   6.963   0.313  1.5075 -1.2988  0.2342
   67MOL   H18728039   7.061   6.821   0.420 -0.0993  0.3613  0.5447
   67MOL   H18828040   7.201   7.030   0.479  1.0015  1.0482  2.4164
   67MOL   H18928041   7.089   6.986   0.607  2.7084 -0.8392 -0.4892
   67MOL   H19028042   7.040   7.117   0.490 -2.0812 -1.2729  0.4066
   67MOL   C19128043   6.345   6.785   0.422 -0.1005  0.4475 -0.6658
   67MOL   C19228044   6.188   6.801   0.425  0.4111  0.3313  0.4779
   67MOL   C19328045   6.124   6.794   0.287  0.3956 -0.2092 -0.0747
   67MOL   O19428046   6.046   6.704   0.249  0.1030 -0.0527 -0.0852
   67MOL   O19528047   6.135   6.913   0.225 -0.2632  0.1760 -0.3113
   67MOL   C19628048   6.084   6.939   0.096  0.0724  0.1937  0.4759
   67MOL   C19728049   6.199   6.939   7.847 -0.5344  1.1390 -0.6026
   67MOL   C19828050   6.157   6.958   7.700  0.2570  0.4340 -0.1281
   67MOL   C19928051   6.127   7.103   7.670 -0.1303 -0.0318  0.2011
   67MOL   H20028052   6.398   6.760   0.514 -0.9086  3.1507  0.5727
   67MOL   H20128053   6.365   6.701   0.355 -2.0803 -1.6219  1.2568
   67MOL   H20228054   6.166   6.895   0.476 -1.3990 -0.4154  1.1062
   67MOL   H20328055   6.030   7.033   0.107  0.0267  0.4489 -1.6634
   67MOL   H20428056   6.003   6.870   0.074 -1.3736  0.9432  3.2939
   67MOL   H20528057   6.278   7.011   0.016  0.2375 -0.3097  1.6656
   67MOL   H20628058   6.246   6.841   7.850 -1.9994  0.4295 -0.1518
   67MOL   H20728059   6.065   6.902   7.683  1.8226 -1.8115 -1.4380
   67MOL   H20828060   6.232   6.920   7.631  0.8624  0.1709  0.6708
   67MOL   H20928061   6.032   7.122   7.719  0.6632 -0.2079  1.8496
   67MOL   H21028062   6.113   7.127   7.565  0.4669  2.5025  0.6718
   67MOL   H21128063   6.202   7.174   7.704  0.2907 -0.9056  1.1312
   67MOL   C21228064   6.118   6.696   0.518  0.0378  0.5164 -0.2466
   67MOL   C21328065   6.163   6.691   0.668 -0.9210 -0.7942 -0.1593
   67MOL   C21428066   6.147   6.824   0.744  0.1797  0.9393 -0.3250
   67MOL   O21528067   6.084   6.919   0.697  0.4682  0.4180  0.2099
   67MOL   O21628068   6.183   6.807   0.876  0.0301  0.2032 -0.1456
   67MOL   C21728069   6.184   6.920   0.968 -0.4810  0.1817 -0.0590
   67MOL   C21828070   6.320   7.008   0.964  0.4055  0.1331  0.4592
   67MOL   C21928071   6.454   6.933   0.963 -0.2701 -0.4969 -0.6873
   67MOL   C22028072   6.496   6.871   0.824 -0.5055  0.5023 -0.7830
   67MOL   H22128073   6.131   6.593   0.486 -0.1805  0.6325 -0.6995
   67MOL   H22228074   6.010   6.712   0.519 -0.2534 -1.2278 -2.2833
   67MOL   H22328075   6.271   6.681   0.659 -1.0731 -1.9843 -0.8322
   67MOL   H22428076   6.179   6.882   1.070  1.1914 -2.5214 -0.9315
   67MOL   H22528077   6.096   6.976   0.937  1.6641  2.7773 -1.6535
   67MOL   H22628078   6.319   7.079   0.882 -2.5071  0.0037  0.3574
   67MOL   H22728079   6.324   7.070   1.053 -2.1415 -2.4101  2.4511
   67MOL   H22828080   6.464   6.842   1.022  0.2471 -1.8012 -2.7441
   67MOL   H22928081   6.523   7.013   0.990  1.4991 -2.7112  1.6784
   67MOL   H23028082   6.588   6.814   0.839 -0.5239  0.6790  0.0235
   67MOL   H23128083   6.495   6.951   0.749  0.0438  1.4949  0.2403
   67MOL   H23228084   6.420   6.796   0.801 -1.8202  1.0005  1.7757
   67MOL   C23328085   6.108   6.566   0.741  0.0864 -0.0689 -0.0326
   67MOL   C23428086   6.194   6.437   0.743 -0.0902  0.7034  0.0614
   67MOL   C23528087   6.322   6.466   0.815 -0.5562 -0.8304 -0.9440
   67MOL   O23628088   6.430   6.429   0.762 -0.2655 -0.1929  0.2095
   67MOL   O23728089   6.312   6.517   0.940 -0.3059 -0.5968 -0.0561
   67MOL   C23828090   6.427   6.533   1.022  0.7616 -0.1248 -0.6011
   67MOL   C23928091   6.396   6.473   1.163 -0.1937 -0.2987  0.1903
   67MOL   C24028092   6.360   6.324   1.173  0.4122  0.1868  0.0410
   67MOL   C24128093   6.350   6.262   1.315  0.4052 -0.7061  0.3346
   67MOL   H24228094   6.010   6.551   0.694  0.8780  0.6237 -1.9398
   67MOL   H24328095   6.078   6.594   0.842  1.4272 -1.4628  0.7761
   67MOL   H24428096   6.214   6.405   0.641 -4.4392 -1.4086 -0.2522
   67MOL   H24528097   6.467   6.634   1.031 -3.4229  1.6304 -0.7787
   67MOL   H24628098   6.510   6.470   0.989 -1.0394 -2.7091 -0.3024
   67MOL   H24728099   6.484   6.492   1.225 -0.4676 -0.5138  0.6448
   67MOL   H24828100   6.320   6.532   1.214 -2.3860 -2.2101 -0.7895
   67MOL   H24928101   6.441   6.267   1.127  2.2418  2.1436  0.7404
   67MOL   H25028102   6.266   6.305   1.121  0.4866 -2.3312  0.7842
   67MOL   H25128103   6.315   6.159   1.305  0.8217 -0.7183 -1.2187
   67MOL   H25228104   6.280   6.317   1.377  0.4085 -2.3321  1.8102
   67MOL   H25328105   6.446   6.257   1.367  1.1119  0.9721 -0.7681
   67MOL   C25428106   6.121   6.315   0.817  0.0309 -0.6115 -0.1296
   67MOL   C25528107   6.195   6.175   0.816  0.2840 -0.3378 -0.6752
   67MOL   C25628108   6.124   6.080   0.921  0.0637 -0.1598 -0.0844
   67MOL   O25728109   6.179   6.019   1.016  0.0638 -0.5938  0.4976
   67MOL   O25828110   5.985   6.065   0.892 -0.2542  0.0761 -0.1911
   67MOL   C25928111   5.921   5.977   0.981 -0.4091 -0.0614 -0.0775
   67MOL   C26028112   5.773   5.955   0.950  0.9041  0.3620  0.1981
   67MOL   C26128113   5.680   6.068   0.971 -0.2735  0.2078 -0.7588
   67MOL   C26228114   5.536   6.037   0.944 -0.0185  0.1772  0.9173
   67MOL   H26328115   6.026   6.312   0.763 -0.1845  1.1988  0.1191
   67MOL   H26428116   6.095   6.337   0.920 -0.4825 -1.3234 -0.0966
   67MOL   H26528117   6.295   6.189   0.858  0.9043 -2.8097 -1.2610
   67MOL   H26628118   5.936   6.009   1.084 -0.8897  2.1959 -0.6946
   67MOL   H26728119   5.973   5.881   0.975  0.5158  0.1732  3.1463
   67MOL   H26828120   5.753   5.914   0.850 -1.6011  1.9450  0.0192
   67MOL   H26928121   5.740   5.873   1.014 -0.1829 -0.1833 -1.0330
   67MOL   H27028122   5.712   6.145   0.901 -1.6896  1.4225 -0.1063
   67MOL   H27128123   5.708   6.113   1.067  0.6617 -0.7525 -0.5725
   67MOL   H27228124   5.489   6.135   0.961  0.2474  0.8108 -1.7577
   67MOL   H27328125   5.501   5.958   1.010  1.5204 -2.2289 -1.0827
   67MOL   H27428126   5.513   6.014   0.840  0.3045  2.5392  0.2742
   67MOL   C27528127   6.208   6.114   0.678  0.4391  0.0673  0.1729
   67MOL   C27628128   6.284   5.979   0.665 -0.4253 -0.4196 -0.0576
   67MOL   C27728129   6.207   5.850   0.691  0.2846  0.0282 -0.6073
   67MOL   O27828130   6.125   5.805   0.610  0.0429  0.2032  0.1101
   67MOL   O27928131   6.237   5.791   0.810  0.3531 -0.3515  0.3663
   67MOL   C28028132   6.189   5.659   0.842 -0.5182 -0.3851  0.4312
   67MOL   C28128133   6.231   5.622   0.983  0.0747  0.1707  0.5412
   67MOL   C28228134   6.382   5.639   1.024 -0.6444 -0.1485 -0.9772
   67MOL   C28328135   6.391   5.606   1.176  0.2964 -0.0201  0.8716
   67MOL   H28428136   6.253   6.185   0.609 -0.8873 -1.8394 -2.7612
   67MOL   H28528137   6.105   6.105   0.642  0.1224  0.7380  0.9062
   67MOL   H28628138   6.352   5.968   0.750  0.3444 -0.8015 -0.7169
   67MOL   H28728139   6.219   5.585   0.768 -0.5006 -1.7084  1.7555
   67MOL   H28828140   6.080   5.656   0.839 -0.4616 -1.3603 -1.0581
   67MOL   H28928141   6.170   5.688   1.044 -0.4654 -0.6416  0.8783
   67MOL   H29028142   6.200   5.523   1.015  3.4479 -0.0133  3.6464
   67MOL   H29128143   6.422   5.739   1.012  1.6068 -0.6325  1.8467
   67MOL   H29228144   6.445   5.569   0.970  2.5680  0.8545  1.2955
   67MOL   H29328145   6.366   5.501   1.190 -1.2616  0.0939 -0.8453
   67MOL   H29428146   6.323   5.669   1.233 -0.7031  0.7412 -1.1137
   67MOL   H29528147   6.490   5.623   1.219 -0.5948  1.9956  2.2101
   67MOL   C29628148   6.376   5.976   0.535  0.3903 -0.5352  0.1626
   67MOL   C29728149   6.467   5.854   0.504  0.0393  0.4268  0.0730
   67MOL   C29828150   6.551   5.858   0.372 -0.5058  0.1959  0.1547
   67MOL   O29928151   6.597   5.968   0.326  0.1091  0.6606 -0.2219
   67MOL   O30028152   6.562   5.737   0.315 -0.7540  0.4338 -0.1460
   67MOL   C30128153   6.642   5.714   0.196 -0.4638  0.0568  0.2851
   67MOL   C30228154   6.791   5.675   0.230 -0.5407 -0.3438 -0.2984
   67MOL   C30328155   6.888   5.780   0.276  0.1133  0.3485  0.3588
   67MOL   C30428156   7.021   5.735   0.328  0.8376 -0.0823 -0.3716
   67MOL   H30528157   6.449   6.057   0.532  0.8358 -0.9520 -0.1479
   67MOL   H30628158   6.320   5.994   0.443  2.0352  0.2796 -0.7072
   67MOL   H30728159   6.393   5.779   0.474  1.0247 -0.7131  0.4705
   67MOL   H30828160   6.633   5.799   0.129 -1.3445  0.5128  0.9649
   67MOL   H30928161   6.591   5.632   0.145 -3.3724  1.7660  0.3624
   67MOL   H31028162   6.789   5.593   0.301 -0.2408 -1.9948 -2.1524
   67MOL   H31128163   6.823   5.631   0.135  0.8840 -2.8378  1.3164
   67MOL   H31228164   6.843   5.828   0.363  2.4600  3.9149 -0.3326
   67MOL   H31328165   6.891   5.867   0.211  2.7617  1.9794  2.5812
   67MOL   H31428166   7.082   5.816   0.369  0.3098 -1.3538  3.1281
   67MOL   H31528167   7.074   5.684   0.247  1.5861  1.0837 -0.6384
   67MOL   H31628168   7.009   5.675   0.418 -2.6307  1.1606  0.0682
   67MOL   C31728169   6.561   5.803   0.612 -0.1390 -0.1195 -0.3365
   67MOL   C31828170   6.670   5.892   0.668 -0.2331  0.0567 -0.0192
   67MOL   C31928171   6.613   5.995   0.765  0.1966  0.1807  0.6687
   67MOL   O32028172   6.608   6.115   0.736  0.0148  0.0263 -0.3253
   67MOL   O32128173   6.571   5.945   0.889  0.2162  0.0201 -0.6588
   67MOL   C32228174   6.552   6.025   1.005 -0.0804 -0.3860  0.3265
   67MOL   C32328175   6.668   5.988   1.100 -0.4507 -0.2145  0.0102
   67MOL   C32428176   6.657   6.062   1.234  0.2174  0.5240  0.1840
   67MOL   C32528177   6.761   6.006   1.326 -0.1221  0.6239 -0.2930
   67MOL   H32628178   6.610   5.709   0.588  0.7611  0.2340  0.1085
   67MOL   H32728179   6.484   5.783   0.686  0.6778 -3.4078 -0.3174
   67MOL   H32828180   6.719   5.960   0.599 -1.2759  1.4604  0.6038
   67MOL   H32928181   6.457   6.002   1.053 -0.6817 -0.5289 -0.9021
   67MOL   H33028182   6.548   6.133   0.986 -1.4608 -0.6131 -0.7584
   67MOL   H33128183   6.665   5.879   1.110 -0.0232 -0.0939  1.5962
   67MOL   H33228184   6.767   6.017   1.065 -0.5810 -0.0740 -0.2453
   67MOL   H33328185   6.556   6.037   1.268 -0.2284  2.2871  0.1923
   67MOL   H33428186   6.667   6.169   1.219 -0.0649  0.7993  1.8501
   67MOL   H33528187   6.752   5.899   1.344  0.0155  0.3865 -1.5424
   67MOL   H33628188   6.752   6.052   1.424  1.8680 -0.1661  0.2676
   67MOL   H33728189   6.863   6.027   1.295  0.0719  3.0627  1.8260
   67MOL   C33828190   6.786   5.813   0.737  0.7242 -0.0749  0.4758
   67MOL   C33928191   6.898   5.903   0.804 -0.5425 -0.0075 -0.5881
   67MOL   C34028192   6.984   5.823   0.902 -0.1728  0.1272 -0.6809
   67MOL   O34128193   7.088   5.767   0.867 -0.6883 -0.8418  0.2444
   67MOL   O34228194   6.931   5.822   1.027  0.3158 -0.3610  0.1870
   67MOL   C34328195   7.008   5.761   1.126  0.4593  0.5060 -0.6809
   67MOL   C34428196   6.974   5.614   1.151  0.0148 -0.0641  0.1688
   67MOL   C34528197   6.830   5.582   1.161  0.0576  0.2258  0.1582
   67MOL   C34628198   6.797   5.439   1.173 -0.1165 -0.5111 -0.9991
   67MOL   H34728199   6.835   5.749   0.663 -2.5895 -1.0656 -0.9804
   67MOL   H34828200   6.740   5.749   0.813 -2.1088 -1.1349 -2.0072
   67MOL   H34928201   6.847   5.981   0.860  0.2954  0.2113 -0.1102
   67MOL   H35028202   6.979   5.827   1.208 -0.5857 -0.6657 -0.0960
   67MOL   H35128203   7.116   5.773   1.120  0.5630  0.8416  1.4472
   67MOL   H35228204   7.033   5.560   1.077  1.4985  1.0905  0.4941
   67MOL   H35328205   7.027   5.582   1.241  3.7565  1.6550 -1.3655
   67MOL   H35428206   6.780   5.612   1.069  1.6705  0.9527 -0.4838
   67MOL   H35528207   6.772   5.643   1.230  1.0550  0.9791  0.3294
   67MOL   H35628208   6.693   5.434   1.205  0.1245 -0.3888 -0.1925
   67MOL   H35728209   6.850   5.388   1.253 -0.2524  0.6178 -0.1765
   67MOL   H35828210   6.823   5.383   1.083 -0.3582 -1.1570 -0.6675
   67MOL   C35928211   6.993   5.975   0.698  0.5618 -0.6554  0.1765
   67MOL   C36028212   6.946   6.113   0.651  0.7160  0.3291 -0.6088
   67MOL   C36128213   6.919   6.204   0.773  0.1517  0.5873  0.0736
   67MOL   O36228214   6.966   6.182   0.887  0.3964 -0.6744 -0.2004
   67MOL   O36328215   6.832   6.302   0.736  0.1357  0.1143  0.4737
   67MOL   C36428216   6.796   6.409   0.825 -0.3710  0.5433  0.4942
   67MOL   C36528217   6.786   6.544   0.755 -0.4828 -0.1778 -0.0441
   67MOL   C36628218   6.914   6.627   0.754  0.1123  0.3294  1.0069
   67MOL   C36728219   7.013   6.565   0.655  0.3998  0.5588  0.5640
   67MOL   H36828220   7.015   5.912   0.611  1.7830  0.6128 -0.4568
   67MOL   H36928221   7.089   5.997   0.745  0.4461 -1.4244  0.7818
   67MOL   H37028222   6.851   6.107   0.598 -0.0015 -0.5206  0.7564
   67MOL   H37128223   6.878   6.416   0.895  0.5724 -2.0349 -0.3013
   67MOL   H37228224   6.701   6.388   0.875 -0.7407  1.4592  0.1896
   67MOL   H37328225   6.739   6.546   0.656 -1.5081  0.7084  0.4463
   67MOL   H37428226   6.709   6.603   0.805  0.5230 -1.6011  3.3014
   67MOL   H37528227   6.961   6.632   0.852 -2.0156  0.7984  2.0231
   67MOL   H37628228   6.898   6.730   0.720  0.0657  0.4337  1.3446
   67MOL   H37728229   6.963   6.558   0.559 -1.6171  1.0023  1.5385
   67MOL   H37828230   7.048   6.464   0.679  2.0289  0.6727 -1.2598
   67MOL   H37928231   7.098   6.630   0.637  0.9923 -0.4373 -0.3016
   67MOL   C38028232   7.041   6.181   0.549 -0.1452 -0.3118 -0.2417
   67MOL   C38128233   7.019   6.145   0.400  0.0437  0.0311  0.3678
   67MOL   C38228234   6.926   6.238   0.317 -1.0010 -0.0315  0.4943
   67MOL   O38328235   6.967   6.290   0.214  0.1520  0.1569  0.7364
   67MOL   O38428236   6.812   6.266   0.385  0.6078  0.1405 -0.4099
   67MOL   C38528237   6.713   6.328   0.316 -0.1915 -0.5155  0.4055
   67MOL   C38628238   6.595   6.359   0.413  0.2466  0.0885 -0.2543
   67MOL   C38728239   6.477   6.410   0.327  0.3098  0.0536 -0.1733
   67MOL   C38828240   6.342   6.423   0.403  0.2868  0.2736  0.7789
   67MOL   H38928241   7.138   6.149   0.587 -0.5254  0.5279  1.4927
   67MOL   H39028242   7.050   6.290   0.559  2.4744 -0.3004 -2.3025
   67MOL   H39128243   6.961   6.053   0.406 -0.2649  0.2583  0.8745
   67MOL   H39228244   6.664   6.264   0.243  0.9121 -0.5399 -0.3226
   67MOL   H39328245   6.741   6.407   0.246 -2.0203 -1.1973 -1.1201
   67MOL   H39428246   6.576   6.270   0.472  0.7299  0.1004 -0.0825
   67MOL   H39528247   6.618   6.431   0.492  0.3648  0.7447 -0.8734
   67MOL   H39628248   6.477   6.360   0.230 -0.5992  4.1489 -2.4088
   67MOL   H39728249   6.506   6.511   0.298 -0.4315  0.3321  0.0315
   67MOL   H39828250   6.316   6.333   0.458  4.5601 -0.0376  2.4878
   67MOL   H39928251   6.260   6.429   0.331 -0.8504 -1.4252  1.8833
   67MOL   H40028252   6.336   6.514   0.462  1.0756 -0.1872  1.5825
   67MOL   C40128253   7.153   6.116   0.329  1.0157  0.4139 -0.5217
   67MOL   C40228254   7.267   6.217   0.326  0.5051 -0.5157  0.5996
   67MOL   C40328255   7.400   6.177   0.264  0.0256  0.8796 -0.9535
   67MOL   O40428256   7.483   6.114   0.328  0.2064  0.4286 -0.4592
   67MOL   O40528257   7.396   6.203   0.132  0.3250 -0.5004 -0.1367
   67MOL   C40628258   7.489   6.131   0.049  0.6672  0.0342  0.1610
   67MOL   C40728259   7.633   6.186   0.072  0.2521 -0.0014 -0.3859
   67MOL   C40828260   7.659   6.328   0.025 -0.5628  0.1127 -0.6173
   67MOL   C40928261   7.786   6.384   0.074  0.2189 -0.2461 -0.0096
   67MOL   H41028262   7.122   6.114   0.225  3.0016 -1.3887 -1.1076
   67MOL   H41128263   7.191   6.016   0.349 -0.5622 -0.3517 -1.2904
   67MOL   H41228264   7.287   6.261   0.424  1.3538  1.5579 -0.4458
   67MOL   H41328265   7.453   6.151   7.801 -0.7407  0.0466  0.6498
   67MOL   H41428266   7.482   6.023   0.062 -2.9594  0.3414  1.2169
   67MOL   H41528267   7.667   6.171   0.174 -0.6508 -1.0318 -0.2393
   67MOL   H41628268   7.699   6.124   0.011 -1.1852 -2.3656  0.4068
   67MOL   H41728269   7.577   6.393   0.056 -1.9012 -2.1512  0.7460
   67MOL   H41828270   7.663   6.314   7.770 -2.9967 -0.2393 -0.6954
   67MOL   H41928271   0.023   6.322   0.074  0.3343 -0.0797  0.8067
   67MOL   H42028272   7.773   6.413   0.178  1.2228 -2.8964  0.9083
   67MOL   H42128273   7.802   6.464   0.002 -0.6672  0.4449  0.5636
   67MOL   H42228274   7.236   6.306   0.270  0.9692 -0.9490 -0.3715
   68MOL     C128275   2.067   2.828   7.850 -0.4037  0.4220 -0.0728
   68MOL     C228276   2.206   2.760   7.820  0.1294  0.1773  0.5483
   68MOL     C328277   2.281   2.835   7.707  0.1222 -0.2676 -0.1656
   68MOL     O428278   2.297   2.792   7.598  0.3352 -0.0084 -0.0385
   68MOL     O528279   2.340   2.947   7.752 -0.2710 -0.7248 -0.9694
   68MOL     C628280   2.418   3.026   7.662 -0.6615 -0.0553  1.1567
   68MOL     C728281   2.538   3.088   7.733  0.6131 -0.0511 -0.2836
   68MOL     C828282   2.593   3.201   7.646  0.4112 -0.7528  0.2675
   68MOL     C928283   2.677   3.154   7.521  0.9206  0.3722 -0.7361
   68MOL    H1028284   2.004   2.759   0.053  0.5934  0.9242  1.6905
   68MOL    H1128285   2.076   2.915   0.062 -0.5717 -0.5046  1.2015
   68MOL    H1228286   2.185   2.659   7.785 -1.0478  0.2311  1.0825
   68MOL    H1328287   2.360   3.104   7.612  1.7544  0.4395 -0.9766
   68MOL    H1428288   2.463   2.961   7.587  0.2040  2.5026 -0.6056
   68MOL    H1528289   2.492   3.129   7.823 -1.2290  0.6830 -1.5128
   68MOL    H1628290   2.615   3.016   7.759 -1.8024 -2.7509 -0.2846
   68MOL    H1728291   2.648   3.274   7.706  1.0175  0.9446 -2.2876
   68MOL    H1828292   2.519   3.269   7.604 -0.2581 -0.9698  1.0787
   68MOL    H1928293   2.684   3.226   7.439  1.1445  0.0250 -1.0210
   68MOL    H2028294   2.659   3.054   7.482  0.0787 -0.0776  0.7622
   68MOL    H2128295   2.778   3.136   7.559 -0.2020  0.8136  2.6285
   68MOL    H2228296   2.011   2.849   7.759  0.3259 -1.0108 -0.8797
   68MOL    C2328297   2.315   2.735   0.084 -0.4348  0.2364  0.4970
   68MOL    C2428298   2.275   2.633   0.195  0.1758 -0.3538 -0.7329
   68MOL    C2528299   2.228   2.493   0.140 -0.0819 -0.4837 -0.4928
   68MOL    O2628300   2.111   2.454   0.159 -0.2941  0.3239 -0.0268
   68MOL    O2728301   2.322   2.438   0.069 -0.1487 -0.1959  0.1267
   68MOL    C2828302   2.301   2.311   0.001 -0.6261  0.1592  0.5695
   68MOL    C2928303   2.437   2.252   7.813 -0.1894 -0.3915  0.0514
   68MOL    C3028304   2.504   2.173   0.070 -0.1791 -0.7402 -0.2751
   68MOL    C3128305   2.642   2.127   0.016  0.5902  0.7069  0.2832
   68MOL    H3228306   2.337   2.825   0.141  0.8146 -0.5166  1.2204
   68MOL    H3328307   2.411   2.705   0.042  0.6499  3.1634  0.7215
   68MOL    H3428308   2.192   2.683   0.246  2.0525  0.9723  1.0942
   68MOL    H3528309   2.245   2.322   7.761  1.4415  1.4947 -0.5556
   68MOL    H3628310   2.249   2.244   0.070  0.7258 -0.9638  0.5421
   68MOL    H3728311   2.415   2.190   7.727  0.3474 -1.0870  0.4084
   68MOL    H3828312   2.501   2.330   7.772  0.9623 -1.1821  0.3223
   68MOL    H3928313   2.450   2.079   0.081 -1.8368  0.1720 -0.3886
   68MOL    H4028314   2.514   2.228   0.164  0.1810 -2.1664  0.5325
   68MOL    H4128315   2.704   2.212   7.840  0.5429  0.1992 -1.3531
   68MOL    H4228316   2.629   2.060   7.784 -0.2333  0.4669  0.5934
   68MOL    H4328317   2.698   2.064   0.086  1.4285  1.5535  0.3815
   68MOL    C4428318   2.388   2.615   0.301  0.7575  0.3810  0.1612
   68MOL    C4528319   2.359   2.511   0.419  0.7060  0.2380 -0.3710
   68MOL    C4628320   2.489   2.440   0.468 -0.1129 -0.4735 -0.1737
   68MOL    O4728321   2.523   2.345   0.398  0.4135  0.5259  0.9257
   68MOL    O4828322   2.557   2.490   0.573  0.0501  0.2617  0.0477
   68MOL    C4928323   2.668   2.428   0.632  1.0985  0.0594 -0.0857
   68MOL    C5028324   2.629   2.359   0.764  0.7338  0.2601 -0.4152
   68MOL    C5128325   2.745   2.270   0.812  0.4333 -0.3354 -0.2331
   68MOL    C5228326   2.730   2.222   0.956 -0.8132 -0.6575  0.2244
   68MOL    H5328327   2.410   2.711   0.346  0.3307 -0.2676  1.8122
   68MOL    H5428328   2.486   2.591   0.261 -0.2385 -0.4176 -1.9009
   68MOL    H5528329   2.292   2.434   0.382 -0.5557  1.2382 -0.2168
   68MOL    H5628330   2.751   2.497   0.647  1.5723 -0.1573 -1.6910
   68MOL    H5728331   2.716   2.350   0.574  3.1809 -0.5892  2.4335
   68MOL    H5828332   2.588   2.420   0.844 -1.7869  1.2694 -2.4156
   68MOL    H5928333   2.547   2.300   0.723  1.0462 -1.3009  1.1366
   68MOL    H6028334   2.839   2.323   0.816  1.3707 -2.0126  0.6051
   68MOL    H6128335   2.750   2.191   0.738 -2.3765  0.0344 -0.9016
   68MOL    H6228336   2.812   2.155   0.983 -0.7155 -0.1971  1.0776
   68MOL    H6328337   2.631   2.184   0.980 -0.3947 -1.2153  1.1066
   68MOL    H6428338   2.730   2.298   1.034 -1.1390 -0.2003 -0.2204
   68MOL    C6528339   2.279   2.578   0.537  0.0367  0.4337  0.2336
   68MOL    C6628340   2.137   2.619   0.506 -0.7264  0.1575 -0.1553
   68MOL    C6728341   2.046   2.497   0.483  0.2163 -0.5151 -0.1009
   68MOL    O6828342   2.058   2.390   0.551 -0.1965  0.6101 -0.1200
   68MOL    O6928343   1.936   2.527   0.408 -0.6754 -0.1337 -0.4907
   68MOL    C7028344   1.844   2.429   0.379 -0.4653  0.1425 -0.3209
   68MOL    C7128345   1.741   2.465   0.268 -0.6639 -0.4586  0.0471
   68MOL    C7228346   1.636   2.357   0.226 -0.2690  0.0023 -0.9335
   68MOL    C7328347   1.515   2.408   0.149  0.1688  0.2398 -0.4155
   68MOL    H7428348   2.340   2.665   0.562  1.0511 -0.1046 -0.3338
   68MOL    H7528349   2.289   2.513   0.624 -5.1846 -1.7319 -0.6051
   68MOL    H7628350   2.135   2.666   0.408 -2.9026 -0.6872 -0.5436
   68MOL    H7728351   1.792   2.412   0.474 -0.5912 -1.3997 -0.6476
   68MOL    H7828352   1.894   2.336   0.353  1.1540  0.3900  1.7531
   68MOL    H7928353   1.702   2.563   0.296  1.7819  0.6844 -0.4168
   68MOL    H8028354   1.797   2.487   0.178  0.0631  2.9905  1.2688
   68MOL    H8128355   1.602   2.315   0.321  2.9714 -2.2692 -0.6979
   68MOL    H8228356   1.682   2.270   0.180  1.5673 -0.8861  2.3731
   68MOL    H8328357   1.427   2.347   0.164 -3.1321  4.5168 -1.3561
   68MOL    H8428358   1.535   2.399   0.042 -2.1600 -0.4823 -0.8087
   68MOL    H8528359   1.492   2.509   0.185  0.9883  0.1175  0.4827
   68MOL    C8628360   2.083   2.720   0.611  0.1437  0.2065  0.2368
   68MOL    C8728361   2.140   2.868   0.596  0.3222  0.3019  0.8706
   68MOL    C8828362   2.057   2.938   0.488  0.0813 -0.3758 -0.0409
   68MOL    O8928363   2.108   2.973   0.383 -0.0897 -0.1283 -0.0972
   68MOL    O9028364   1.934   2.961   0.532 -0.2875 -0.1583 -0.0479
   68MOL    C9128365   1.849   3.044   0.452 -0.0855  0.7302 -0.0114
   68MOL    C9228366   1.769   2.958   0.350  0.7191 -0.0405 -0.5871
   68MOL    C9328367   1.665   3.041   0.265 -0.1968 -0.1211  0.5982
   68MOL    C9428368   1.740   3.141   0.177 -1.1556  0.0834 -0.3844
   68MOL    H9528369   2.099   2.682   0.712 -0.1048  1.3246  0.7112
   68MOL    H9628370   1.974   2.725   0.607 -0.0315 -1.6842  2.2206
   68MOL    H9728371   2.242   2.870   0.557  0.2202 -0.8277  0.5136
   68MOL    H9828372   1.906   3.124   0.403 -0.7166  1.7731  0.9355
   68MOL    H9928373   1.772   3.094   0.512 -1.2244 -0.7920 -0.1997
   68MOL   H10028374   1.842   2.905   0.290  2.2724 -0.2892  1.4787
   68MOL   H10128375   1.707   2.885   0.401  1.9588  0.2396  1.3885
   68MOL   H10228376   1.586   3.085   0.326 -0.6087  1.3432 -0.9365
   68MOL   H10328377   1.617   2.981   0.187 -1.6844  1.6338  0.1062
   68MOL   H10428378   1.830   3.097   0.135 -1.7660 -2.0802  0.4771
   68MOL   H10528379   1.773   3.231   0.229 -0.9190 -0.0978 -0.2230
   68MOL   H10628380   1.683   3.178   0.091  0.7180  1.4248 -1.0681
   68MOL   C10728381   2.129   2.950   0.728 -0.9709  0.4350 -0.0352
   68MOL   C10828382   2.237   2.913   0.835 -0.4556 -0.3141  0.5561
   68MOL   C10928383   2.385   2.937   0.790  0.0224  1.1603  0.1901
   68MOL   O11028384   2.464   2.842   0.784 -0.2711  1.3099 -0.4677
   68MOL   O11128385   2.419   3.061   0.774  0.3342  0.2889 -0.0461
   68MOL   C11228386   2.552   3.097   0.763  0.0525  0.2910  0.2318
   68MOL   C11328387   2.607   3.154   0.894 -0.0708  0.2929 -0.1055
   68MOL   C11428388   2.760   3.149   0.904  0.0769 -0.1465  0.0990
   68MOL   C11528389   2.811   3.214   1.026  0.1082  0.3106 -0.6197
   68MOL   H11628390   2.037   2.921   0.779 -0.9747  0.3480 -0.0918
   68MOL   H11728391   2.124   3.056   0.707  1.2131  0.9598  1.8745
   68MOL   H11828392   2.232   2.805   0.841  1.6081 -0.4040  1.3668
   68MOL   H11928393   2.556   3.170   0.682  3.5664 -0.2095 -0.1023
   68MOL   H12028394   2.613   3.019   0.716 -1.9041 -1.3800  0.3528
   68MOL   H12128395   2.577   3.257   0.910  1.8329  1.0326 -1.0811
   68MOL   H12228396   2.579   3.086   0.975 -0.6783 -0.4487 -0.9303
   68MOL   H12328397   2.801   3.178   0.807  1.0591 -0.4377  0.4331
   68MOL   H12428398   2.784   3.043   0.906  2.1155  0.2621 -1.6974
   68MOL   H12528399   2.909   3.257   1.008 -1.0684  3.2842 -0.3201
   68MOL   H12628400   2.817   3.136   1.102  0.0453 -0.9813 -1.9087
   68MOL   H12728401   2.750   3.293   1.071 -0.0572  0.5695 -1.2867
   68MOL   C12828402   2.212   2.973   0.979 -0.6330  0.0542 -0.1214
   68MOL   C12928403   2.129   2.881   1.079 -0.3974  0.1099 -0.4488
   68MOL   C13028404   2.173   2.735   1.082 -0.9922  0.3586 -0.1453
   68MOL   O13128405   2.092   2.644   1.075 -0.3088  0.0499  0.0383
   68MOL   O13228406   2.304   2.711   1.096  0.3609 -0.4631  0.3833
   68MOL   C13328407   2.347   2.582   1.063  0.2735  0.5482 -0.5155
   68MOL   C13428408   2.492   2.556   1.097  0.7629  0.4819 -0.2711
   68MOL   C13528409   2.573   2.641   1.004 -0.5567  0.3430 -0.3276
   68MOL   C13628410   2.723   2.634   1.018  0.0735 -0.0338 -0.2660
   68MOL   H13728411   2.167   3.072   0.968 -1.5503 -0.0427  2.6019
   68MOL   H13828412   2.308   2.989   1.027 -1.8665 -0.3195  2.5686
   68MOL   H13928413   2.026   2.895   1.045  0.1192  1.2816 -1.6001
   68MOL   H14028414   2.338   2.561   0.957  1.1864 -0.8193 -0.3289
   68MOL   H14128415   2.285   2.516   1.123 -0.9174  2.0413 -0.0570
   68MOL   H14228416   2.520   2.566   1.202  1.7828  0.3143 -0.5290
   68MOL   H14328417   2.500   2.449   1.077 -0.9164  0.0870  1.0561
   68MOL   H14428418   2.548   2.744   1.028 -1.5083 -0.1640  0.8844
   68MOL   H14528419   2.551   2.643   0.897  1.8627  0.8434 -0.8416
   68MOL   H14628420   2.756   2.706   1.093 -0.2426 -1.3706  1.1861
   68MOL   H14728421   2.762   2.667   0.922 -1.2003 -0.4082 -0.9172
   68MOL   H14828422   2.760   2.532   1.032 -2.4404 -0.8627  0.6348
   68MOL   C14928423   2.138   2.942   1.222 -0.5647 -0.7916  0.5714
   68MOL   C15028424   2.055   2.868   1.324  0.5795  0.5477  0.1533
   68MOL   C15128425   2.108   2.742   1.402 -0.0655  0.0131 -0.0060
   68MOL   O15228426   2.222   2.694   1.388 -0.1391  0.2382 -0.2282
   68MOL   O15328427   2.006   2.684   1.472  0.0802 -0.4088  0.2289
   68MOL   C15428428   2.036   2.588   1.564 -0.6275 -0.0751 -0.0006
   68MOL   C15528429   1.907   2.533   1.622  0.2221  0.1169 -0.1694
   68MOL   C15628430   1.815   2.631   1.710 -0.0859  0.5879 -0.1825
   68MOL   C15728431   1.683   2.555   1.752 -0.4469  0.1865 -0.3614
   68MOL   H15828432   2.117   3.048   1.217  2.5945 -0.1234  0.0280
   68MOL   H15928433   2.243   2.948   1.252 -0.0781  0.2699 -1.2389
   68MOL   H16028434   1.979   2.811   1.272  0.9207  0.2080  0.0274
   68MOL   H16128435   2.093   2.638   1.642 -1.0794 -3.4882  2.6294
   68MOL   H16228436   2.094   2.511   1.512  1.7922  2.3887 -1.1000
   68MOL   H16328437   1.849   2.504   1.535 -1.6944 -0.8635  1.4055
   68MOL   H16428438   1.927   2.449   1.689 -1.5237 -0.8283 -0.8232
   68MOL   H16528439   1.792   2.716   1.646 -1.1217 -0.5676 -1.3592
   68MOL   H16628440   1.858   2.649   1.809  2.3986  0.6209 -1.2490
   68MOL   H16728441   1.716   2.477   1.822 -0.6491  1.4095  1.1356
   68MOL   H16828442   1.633   2.506   1.669 -1.7166 -0.4027  0.7163
   68MOL   H16928443   1.624   2.624   1.812  1.2387  0.3749  1.1402
   68MOL   C17028444   1.994   2.968   1.429  0.4602  0.2612  0.5533
   68MOL   C17128445   2.087   3.028   1.525 -0.0360 -0.4695 -0.3331
   68MOL   C17228446   2.084   3.181   1.534  0.4761 -0.8162 -0.2975
   68MOL   O17328447   2.003   3.251   1.600  0.0013  0.2005  0.0858
   68MOL   O17428448   2.191   3.233   1.470 -0.4245  0.1539 -0.4009
   68MOL   C17528449   2.213   3.374   1.470 -0.8713 -0.4857  0.4420
   68MOL   C17628450   2.288   3.418   1.341 -0.1448 -0.0267 -0.3411
   68MOL   C17728451   2.434   3.375   1.358  0.2935 -0.3169 -0.1394
   68MOL   C17828452   2.500   3.335   1.221  0.6166  0.6500 -0.0922
   68MOL   H17928453   1.908   2.933   1.485 -0.0506 -0.8449 -0.9077
   68MOL   H18028454   1.956   3.053   1.372 -0.3988 -0.3066  0.2641
   68MOL   H18128455   2.186   2.998   1.491  0.0271  2.0166 -2.4695
   68MOL   H18228456   2.272   3.406   1.556 -0.3621 -2.6617  0.9467
   68MOL   H18328457   2.118   3.427   1.475 -1.0130 -0.6352 -0.4817
   68MOL   H18428458   2.241   3.365   1.258 -0.9237  0.9118 -0.5144
   68MOL   H18528459   2.277   3.526   1.335  0.4657  0.2224  2.2674
   68MOL   H18628460   2.441   3.293   1.429  0.0743 -1.9610 -1.9619
   68MOL   H18728461   2.485   3.457   1.407  0.3889 -1.1507  1.1535
   68MOL   H18828462   2.504   3.396   1.131  0.5913  0.4765 -0.2122
   68MOL   H18928463   2.458   3.242   1.182 -0.9263  1.7818 -1.1242
   68MOL   H19028464   2.604   3.304   1.233  0.5549  1.4446  3.1633
   68MOL   C19128465   2.076   2.977   1.673  0.1024 -0.0726 -0.6574
   68MOL   C19228466   2.217   2.960   1.736 -0.1393 -0.5228  0.3172
   68MOL   C19328467   2.288   3.089   1.768  0.7755  0.0371  0.3785
   68MOL   O19428468   2.411   3.091   1.740  0.0136 -0.3930  0.2945
   68MOL   O19528469   2.212   3.183   1.824 -0.4498  0.3187 -0.6170
   68MOL   C19628470   2.265   3.315   1.833  0.4580  0.1389  0.2583
   68MOL   C19728471   2.319   3.348   1.967  0.7671  0.0446 -0.1887
   68MOL   C19828472   2.463   3.298   1.994  0.1966 -0.1143 -0.5934
   68MOL   C19928473   2.527   3.384   2.102 -0.1639 -0.3527  0.0863
   68MOL   H20028474   2.014   2.887   1.673 -0.2784  0.1783 -1.6959
   68MOL   H20128475   2.011   3.039   1.735  2.4393  0.9971  0.7446
   68MOL   H20228476   2.286   2.914   1.665 -0.5576 -0.4597 -0.1342
   68MOL   H20328477   2.187   3.383   1.799 -0.4319 -0.2318  1.5293
   68MOL   H20428478   2.340   3.326   1.754 -0.2218  1.2216 -0.2493
   68MOL   H20528479   2.311   3.452   1.999  2.3865 -0.0903  0.6957
   68MOL   H20628480   2.250   3.303   2.039  1.2012 -0.2477  0.0455
   68MOL   H20728481   2.533   3.300   1.910  0.3287 -0.3047 -0.4903
   68MOL   H20828482   2.459   3.193   2.023 -0.8785 -0.0146 -0.3780
   68MOL   H20928483   2.629   3.356   2.130  0.3639  2.1137  0.8050
   68MOL   H21028484   2.475   3.343   2.188 -0.1490  0.4511  0.4854
   68MOL   H21128485   2.518   3.493   2.101 -0.3288 -0.3594  0.6496
   68MOL   C21228486   2.201   2.871   1.868  0.6156  0.3625  0.3608
   68MOL   C21328487   2.333   2.823   1.933 -0.1529 -0.3336 -0.3831
   68MOL   C21428488   2.392   2.923   2.036  0.5126  0.1502 -0.9123
   68MOL   O21528489   2.312   2.997   2.097 -0.0864  0.0046 -0.0997
   68MOL   O21628490   2.524   2.915   2.062  0.3572 -0.3462 -0.0233
   68MOL   C21728491   2.593   3.003   2.152  0.0064 -0.1919 -0.9048
   68MOL   C21828492   2.652   2.910   2.260 -0.2852 -0.0278 -0.1785
   68MOL   C21928493   2.733   2.977   2.376  0.3404  0.0842 -0.4673
   68MOL   C22028494   2.628   3.056   2.469  0.3404 -0.4026 -0.4725
   68MOL   H22128495   2.151   2.782   1.828  1.3393  0.2707 -0.3467
   68MOL   H22228496   2.134   2.913   1.943  1.8043 -0.6577  2.0309
   68MOL   H22328497   2.418   2.815   1.865 -0.9221  0.5534 -1.4703
   68MOL   H22428498   2.516   3.062   2.202 -0.2134  0.5293 -2.0761
   68MOL   H22528499   2.656   3.071   2.096  1.4677  1.0039  2.0974
   68MOL   H22628500   2.578   2.838   2.295  2.1648 -2.2585  0.5556
   68MOL   H22728501   2.720   2.835   2.221  0.7549  0.5137  0.5481
   68MOL   H22828502   2.806   3.046   2.332 -1.1641  2.1123  0.1273
   68MOL   H22928503   2.782   2.908   2.444 -0.8662 -1.1741 -0.8443
   68MOL   H23028504   2.558   2.991   2.521 -0.3065 -0.5189 -1.4663
   68MOL   H23128505   2.568   3.122   2.406  2.1746  3.8211  2.0561
   68MOL   H23228506   2.687   3.113   2.540 -1.0364 -0.2936  0.5895
   68MOL   C23328507   2.317   2.687   2.003 -0.0086  0.3453 -0.2797
   68MOL   C23428508   2.237   2.663   2.133 -0.3993  0.3957 -0.8999
   68MOL   C23528509   2.088   2.652   2.104  0.3061  0.0058 -0.3900
   68MOL   O23628510   2.050   2.621   1.998 -0.0577 -0.1690 -0.4265
   68MOL   O23728511   2.008   2.671   2.214  0.1636 -0.0180  0.6279
   68MOL   C23828512   1.865   2.661   2.206  0.2383  0.4234 -0.0286
   68MOL   C23928513   1.814   2.805   2.204 -0.2874 -0.2947 -0.0004
   68MOL   C24028514   1.861   2.884   2.332  0.8303 -0.5204 -0.7021
   68MOL   C24128515   1.760   2.866   2.445 -0.6464 -0.1033  0.4430
   68MOL   H24228516   2.423   2.663   2.013 -0.4134 -0.9366  1.0994
   68MOL   H24328517   2.278   2.618   1.928  1.0343 -0.2221 -0.3107
   68MOL   H24428518   2.258   2.740   2.207 -0.3501  1.2910 -1.8303
   68MOL   H24528519   1.821   2.608   2.290 -1.3273 -1.9693 -2.2775
   68MOL   H24628520   1.823   2.603   2.124 -1.3350  0.5035  0.7057
   68MOL   H24728521   1.831   2.859   2.111 -0.7204 -0.4557 -0.1746
   68MOL   H24828522   1.706   2.796   2.214  0.0230 -2.0008  2.3488
   68MOL   H24928523   1.856   2.990   2.309 -3.2729 -0.6011 -0.5353
   68MOL   H25028524   1.965   2.869   2.361  0.3789 -1.4146  0.5415
   68MOL   H25128525   1.735   2.762   2.467 -0.6052  0.0212  1.1015
   68MOL   H25228526   1.661   2.905   2.420 -0.6140 -1.0399 -1.2239
   68MOL   H25328527   1.791   2.903   2.543 -0.5564  1.5083 -0.1794
   68MOL   C25428528   2.281   2.529   2.199 -0.1860 -0.2855  0.8187
   68MOL   C25528529   2.402   2.524   2.291 -0.0497  0.3401  0.0954
   68MOL   C25628530   2.367   2.587   2.426  0.2162  0.3510 -0.1210
   68MOL   O25728531   2.251   2.595   2.470 -0.4879 -0.6087 -0.4060
   68MOL   O25828532   2.470   2.638   2.489  0.3460  0.1235  0.1977
   68MOL   C25928533   2.454   2.707   2.609  1.1801 -0.0682  0.2680
   68MOL   C26028534   2.585   2.719   2.685 -0.0892 -0.4325 -0.4627
   68MOL   C26128535   2.562   2.819   2.802  0.1230  0.0893 -0.0153
   68MOL   C26228536   2.696   2.829   2.878 -0.2419 -0.8896  0.2513
   68MOL   H26328537   2.292   2.455   2.120 -0.2582  0.0294  0.5068
   68MOL   H26428538   2.195   2.486   2.250 -0.9663 -0.2192 -0.4281
   68MOL   H26528539   2.473   2.592   2.244 -1.6007  2.3121  0.5569
   68MOL   H26628540   2.380   2.665   2.677  1.4130 -1.3075 -0.2328
   68MOL   H26728541   2.405   2.801   2.585  1.2058  0.1112  0.9120
   68MOL   H26828542   2.619   2.619   2.712 -1.3165 -0.4018  1.3243
   68MOL   H26928543   2.656   2.759   2.613  0.3885 -1.3730 -0.5234
   68MOL   H27028544   2.489   2.777   2.871  0.0299  0.9964  0.4527
   68MOL   H27128545   2.532   2.920   2.774 -1.1996 -0.5891 -1.1383
   68MOL   H27228546   2.734   2.727   2.889  0.6947 -0.5878 -0.1664
   68MOL   H27328547   2.674   2.873   2.975 -2.6706  0.2687 -0.7904
   68MOL   H27428548   2.767   2.888   2.820  0.0567  0.3039  1.8049
   68MOL   C27528549   2.467   2.384   2.290  0.0863 -0.0528 -0.5581
   68MOL   C27628550   2.410   2.266   2.372 -0.0408 -0.1672  0.1872
   68MOL   C27728551   2.263   2.262   2.408 -0.6713 -0.2110 -0.0883
   68MOL   O27828552   2.223   2.293   2.519 -0.1308  0.1879 -0.3667
   68MOL   O27928553   2.188   2.231   2.302  0.0668 -0.1767 -0.1967
   68MOL   C28028554   2.055   2.224   2.319  0.1342  0.3989 -0.0080
   68MOL   C28128555   1.987   2.177   2.190  0.5118  0.2092  0.3739
   68MOL   C28228556   1.990   2.294   2.088 -0.6351 -0.5857  0.5764
   68MOL   C28328557   1.891   2.273   1.977 -0.2891  0.2636  0.8882
   68MOL   H28428558   2.571   2.390   2.323 -0.3733  1.5898  0.6251
   68MOL   H28528559   2.474   2.349   2.187  0.8234 -2.3497  0.2417
   68MOL   H28628560   2.444   2.292   2.473 -1.0198  0.7362  0.2949
   68MOL   H28728561   2.012   2.318   2.354 -3.0940 -1.0775  0.2175
   68MOL   H28828562   2.049   2.142   2.390  0.5562  1.2435  1.0159
   68MOL   H28928563   2.028   2.083   2.153 -0.9460  0.3406 -1.7034
   68MOL   H29028564   1.883   2.149   2.211  1.0658 -2.2979 -0.0015
   68MOL   H29128565   2.083   2.306   2.032 -2.0986  1.7089 -1.4530
   68MOL   H29228566   1.960   2.385   2.140 -0.6875 -1.1158  1.4776
   68MOL   H29328567   1.790   2.281   2.016 -1.4454 -0.6564 -1.7653
   68MOL   H29428568   1.890   2.174   1.932 -1.6280  0.5239  0.3079
   68MOL   H29528569   1.897   2.349   1.898  0.1429 -1.5014 -0.8049
   68MOL   C29628570   2.477   2.129   2.348  0.6914  0.3374 -0.3008
   68MOL   C29728571   2.425   2.045   2.230  0.8189  0.2295  0.4356
   68MOL   C29828572   2.437   2.102   2.087 -0.4172 -1.2400 -0.1869
   68MOL   O29928573   2.344   2.112   2.014 -0.1697  0.9606 -0.1439
   68MOL   O30028574   2.563   2.116   2.056 -0.0402 -0.4780 -0.2790
   68MOL   C30128575   2.607   2.150   1.927 -0.0752 -0.7344  0.6534
   68MOL   C30228576   2.753   2.108   1.914  0.2355 -0.0707 -0.4323
   68MOL   C30328577   2.811   2.121   1.771 -0.4343 -0.9027  0.0017
   68MOL   C30428578   2.962   2.107   1.748  0.6676  0.1951  0.5242
   68MOL   H30528579   2.458   2.064   2.433 -0.7679 -0.9265 -1.5594
   68MOL   H30628580   2.586   2.135   2.339  0.7767 -0.4546  0.1624
   68MOL   H30728581   2.316   2.040   2.235  0.6199  1.3648 -1.9312
   68MOL   H30828582   2.595   2.258   1.917  3.3982 -0.1755  1.7913
   68MOL   H30928583   2.563   2.095   1.844  0.3235  0.1508 -0.1546
   68MOL   H31028584   2.824   2.167   1.972 -0.2071 -0.4460  0.5096
   68MOL   H31128585   2.773   2.009   1.955 -1.0547 -0.6779 -1.2621
   68MOL   H31228586   2.793   2.224   1.739 -1.0109 -1.2733 -0.8868
   68MOL   H31328587   2.759   2.063   1.695  0.9323 -1.9307 -0.1748
   68MOL   H31428588   3.022   2.172   1.811 -0.7654  1.8552  0.2146
   68MOL   H31528589   2.985   2.135   1.645  1.0852  1.0271  0.8447
   68MOL   H31628590   2.995   2.003   1.761  0.7573 -0.0441 -1.4489
   68MOL   C31728591   2.477   1.898   2.230  0.1750  0.3213 -0.2337
   68MOL   C31828592   2.362   1.798   2.190 -0.2607  0.0197 -0.0600
   68MOL   C31928593   2.377   1.766   2.041 -0.4803 -0.1221 -0.3392
   68MOL   O32028594   2.485   1.761   1.981 -0.5452 -0.2576 -0.1963
   68MOL   O32128595   2.258   1.748   1.982  0.2623 -0.1818 -0.3625
   68MOL   C32228596   2.242   1.733   1.839 -0.2543 -0.8950  0.2993
   68MOL   C32328597   2.245   1.872   1.771 -0.2587  0.2977 -0.1857
   68MOL   C32428598   2.189   1.864   1.630 -0.2062  0.3474 -0.8052
   68MOL   C32528599   2.143   1.993   1.564  0.1293 -0.4841  0.5575
   68MOL   H32628600   2.508   1.861   2.328  0.3854  0.0556 -0.3975
   68MOL   H32728601   2.566   1.889   2.167  0.9963 -0.1087  0.9719
   68MOL   H32828602   2.261   1.839   2.195  0.1496  0.8855  1.2462
   68MOL   H32928603   2.147   1.685   1.820 -0.8725 -0.0664  1.2272
   68MOL   H33028604   2.313   1.672   1.784 -2.3294 -0.9165 -2.4838
   68MOL   H33128605   2.198   1.960   1.814  1.6575  0.5598  1.4512
   68MOL   H33228606   2.350   1.898   1.764 -0.2378 -0.3440 -3.1401
   68MOL   H33328607   2.097   1.805   1.636 -0.2394  0.5061  0.3043
   68MOL   H33428608   2.255   1.811   1.561  1.2320  1.6856 -0.4681
   68MOL   H33528609   2.085   1.975   1.473  0.3032  0.1169  0.3228
   68MOL   H33628610   2.231   2.053   1.538 -0.4486 -0.2387 -0.9029
   68MOL   H33728611   2.081   2.053   1.630  1.3306  2.9801 -1.2870
   68MOL   C33828612   2.362   1.669   2.276  0.4136 -0.4464 -0.2263
   68MOL   C33928613   2.317   1.697   2.425 -0.5318 -0.0062  0.2050
   68MOL   C34028614   2.182   1.769   2.425  0.0993  0.1369 -1.3034
   68MOL   O34128615   2.186   1.881   2.472  0.0847 -0.1911 -0.6743
   68MOL   O34228616   2.082   1.698   2.373  0.5547 -0.5509  0.2803
   68MOL   C34328617   1.951   1.757   2.356 -0.2115 -0.1676  0.4711
   68MOL   C34428618   1.954   1.822   2.215 -0.3498 -0.5037 -0.2810
   68MOL   C34528619   1.936   1.715   2.104  0.4480  0.3560  0.3099
   68MOL   C34628620   1.923   1.774   1.967  0.0113 -0.6093  0.9031
   68MOL   H34728621   2.456   1.614   2.272  0.1213 -1.0393  0.9696
   68MOL   H34828622   2.289   1.610   2.220 -0.1142  2.1597 -2.3439
   68MOL   H34928623   2.384   1.764   2.478  0.1330 -0.5180  0.0201
   68MOL   H35028624   1.928   1.826   2.437 -2.8441 -2.0026  1.3677
   68MOL   H35128625   1.890   1.667   2.363 -1.3852  0.6083  0.5050
   68MOL   H35228626   1.880   1.902   2.206 -0.6381 -0.7464 -0.0988
   68MOL   H35328627   2.052   1.867   2.202 -0.2485 -0.9905 -1.2417
   68MOL   H35428628   1.858   1.642   2.126  0.4945 -0.2032 -1.2977
   68MOL   H35528629   2.020   1.646   2.113  0.6457  0.9662  4.0260
   68MOL   H35628630   1.938   1.702   1.886  0.0743  0.1137  0.2735
   68MOL   H35728631   2.002   1.847   1.952 -1.6653  0.9733 -0.3611
   68MOL   H35828632   1.832   1.832   1.950 -0.4118 -1.2373  1.0092
   68MOL   C35928633   2.305   1.555   2.496  0.3585  0.1547  0.3831
   68MOL   C36028634   2.269   1.552   2.645 -0.5933  0.7289  0.2248
   68MOL   C36128635   2.222   1.429   2.715  0.5803 -0.0362 -0.4388
   68MOL   O36228636   2.213   1.324   2.653  0.2947  0.1646  0.4323
   68MOL   O36328637   2.193   1.447   2.840 -0.1093 -0.2458 -0.0191
   68MOL   C36428638   2.130   1.337   2.911 -0.5914  0.1173  0.4153
   68MOL   C36528639   2.129   1.346   3.069 -0.1916  0.0702  0.4243
   68MOL   C36628640   2.097   1.212   3.131  0.4193 -0.2532  0.4711
   68MOL   C36728641   2.090   1.229   3.285  0.4269 -0.1091  0.5012
   68MOL   H36828642   2.388   1.491   2.467  0.7434  0.6352  0.4224
   68MOL   H36928643   2.226   1.500   2.444  0.3592 -1.2156  1.7803
   68MOL   H37028644   2.182   1.616   2.660 -0.4845  0.6691  1.1088
   68MOL   H37128645   2.193   1.250   2.889 -2.0979 -0.7679 -0.4508
   68MOL   H37228646   2.032   1.326   2.866  1.1703 -1.0644 -3.3741
   68MOL   H37328647   2.227   1.380   3.100  0.7476 -2.2685  0.1398
   68MOL   H37428648   2.049   1.416   3.092 -0.8200  0.0824 -1.6431
   68MOL   H37528649   2.171   1.137   3.103  1.7018  0.7410  1.1103
   68MOL   H37628650   2.003   1.177   3.089  0.7672  1.1578 -1.5370
   68MOL   H37728651   2.065   1.138   3.338 -2.1762  0.6757  0.7006
   68MOL   H37828652   2.010   1.297   3.315  0.9326 -0.4806  2.7202
   68MOL   H37928653   2.182   1.276   3.320  0.8905 -0.3714 -0.3322
   68MOL   C38028654   2.378   1.619   2.733  0.1970  0.1567  0.1240
   68MOL   C38128655   2.495   1.526   2.775 -0.1361 -0.2146  0.1332
   68MOL   C38228656   2.621   1.549   2.687 -0.0756  1.2050  0.2388
   68MOL   O38328657   2.642   1.650   2.618  0.0406 -0.3841  0.0721
   68MOL   O38428658   2.694   1.436   2.684  0.0902 -0.1262  0.3265
   68MOL   C38528659   2.817   1.435   2.613 -0.4339 -0.0728  0.1391
   68MOL   C38628660   2.899   1.326   2.674  0.4925 -0.4889 -0.0213
   68MOL   C38728661   3.045   1.333   2.639  0.0579  0.0168  0.5451
   68MOL   C38828662   3.116   1.467   2.627 -0.4219 -0.2922  0.2674
   68MOL   H38928663   2.345   1.666   2.826  0.8626 -0.3503  0.6248
   68MOL   H39028664   2.409   1.705   2.674  1.1554 -0.4739 -0.3040
   68MOL   H39128665   2.467   1.430   2.732 -0.3730  0.1682 -0.5841
   68MOL   H39228666   2.866   1.532   2.625  0.7258 -0.6811  0.3498
   68MOL   H39328667   2.795   1.415   2.509 -0.9193  0.8005  0.0673
   68MOL   H39428668   2.883   1.319   2.781 -0.3861  0.2602 -0.0975
   68MOL   H39528669   2.851   1.234   2.639  1.2594 -0.3790 -1.4092
   68MOL   H39628670   3.063   1.280   2.545 -0.3796  1.7791 -0.5574
   68MOL   H39728671   3.102   1.269   2.706 -1.5519 -0.7816  1.1815
   68MOL   H39828672   3.073   1.539   2.557  0.6863 -0.9188 -1.0698
   68MOL   H39928673   3.214   1.450   2.583 -0.7365 -1.5246  0.0132
   68MOL   H40028674   3.129   1.519   2.722 -0.4703  0.8902 -0.3556
   68MOL   C40128675   2.527   1.508   2.919 -0.0229  0.6533 -0.5756
   68MOL   C40228676   2.592   1.377   2.971 -0.3432 -0.2993  0.6597
   68MOL   C40328677   2.519   1.249   2.939 -0.6450  0.2567  0.0085
   68MOL   O40428678   2.464   1.185   3.026 -0.7236 -0.2536  0.0999
   68MOL   O40528679   2.513   1.219   2.812  0.2075 -0.6535 -0.4944
   68MOL   C40628680   2.439   1.113   2.763 -0.5328  0.1947 -0.2051
   68MOL   C40728681   2.503   0.973   2.760 -0.3695 -1.1097 -0.2979
   68MOL   C40828682   2.629   0.966   2.671 -0.1635  1.0274 -0.4406
   68MOL   C40928683   2.730   0.869   2.725 -1.0694 -0.0033  0.1901
   68MOL   H41028684   2.437   1.510   2.981  0.0662 -1.3718 -0.3605
   68MOL   H41128685   2.573   1.602   2.949 -0.8967  0.9310 -0.0741
   68MOL   H41228686   2.590   1.387   3.080 -1.7669 -0.1339  0.6257
   68MOL   H41328687   2.438   1.136   2.657  3.6337 -0.7282 -0.5397
   68MOL   H41428688   2.337   1.116   2.803 -1.4160  0.9730 -2.4284
   68MOL   H41528689   2.538   0.946   2.859  1.9182  0.1885 -0.7071
   68MOL   H41628690   2.432   0.897   2.728 -0.8511 -0.6425 -0.3608
   68MOL   H41728691   2.689   1.056   2.664  0.5033  0.8523  2.4689
   68MOL   H41828692   2.610   0.933   2.569 -0.5578 -1.2680  0.3259
   68MOL   H41928693   2.691   0.767   2.724  1.1091 -0.8716 -1.2673
   68MOL   H42028694   2.756   0.905   2.825  1.4400  1.1772 -0.8581
   68MOL   H42128695   2.821   0.870   2.665 -1.1423  2.5502  0.0645
   68MOL   H42228696   2.695   1.360   2.939 -0.7288 -2.3409  0.4941
   69MOL     C128697   3.404   5.742   4.193  0.5633 -0.5372 -0.0621
   69MOL     C228698   3.386   5.732   4.040  0.7224 -0.4052 -0.4277
   69MOL     C328699   3.316   5.855   3.984 -0.2486  0.0679  0.1503
   69MOL     O428700   3.340   5.966   4.035 -0.5486 -0.7249  0.6638
   69MOL     O528701   3.223   5.835   3.897  0.0841  0.2650 -0.0002
   69MOL     C628702   3.161   5.936   3.817  0.5916  0.6409  0.2593
   69MOL     C728703   3.190   5.915   3.669 -0.0492  0.4466 -0.5565
   69MOL     C828704   3.119   6.026   3.590 -0.2509  0.4277 -0.0647
   69MOL     C928705   2.978   5.998   3.544  0.0495 -0.1997  0.3549
   69MOL    H1028706   3.450   5.835   4.225  0.0403 -0.3631  0.1976
   69MOL    H1128707   3.303   5.726   4.232 -0.5297  0.7260 -2.2557
   69MOL    H1228708   3.314   5.654   4.015 -0.9465  0.8446  0.3780
   69MOL    H1328709   3.194   6.034   3.849 -1.0022  1.5651 -0.8574
   69MOL    H1428710   3.054   5.929   3.836  0.5032 -1.2900 -0.8568
   69MOL    H1528711   3.298   5.918   3.657  0.0249  1.4343  0.3098
   69MOL    H1628712   3.169   5.810   3.644  0.6229  0.2214 -0.1732
   69MOL    H1728713   3.177   6.047   3.500  0.4643  1.4729  0.6257
   69MOL    H1828714   3.114   6.122   3.643 -0.5019  0.5787 -0.3589
   69MOL    H1928715   2.920   5.965   3.630  0.5348  1.4115  1.3029
   69MOL    H2028716   2.978   5.918   3.470  0.5583  1.0462 -1.0121
   69MOL    H2128717   2.947   6.088   3.492  0.4014 -0.2578  0.0462
   69MOL    H2228718   3.453   5.653   4.233  0.7402 -0.0168  0.8782
   69MOL    C2328719   3.528   5.709   3.976  0.0305 -0.1753  0.4016
   69MOL    C2428720   3.571   5.558   3.962 -0.6206 -0.4138 -0.0879
   69MOL    C2528721   3.472   5.480   3.878  0.1138  0.4672  0.5310
   69MOL    O2628722   3.418   5.376   3.915  0.2671 -0.3474  0.0962
   69MOL    O2728723   3.453   5.534   3.756  0.2870  0.0387  0.1279
   69MOL    C2828724   3.362   5.480   3.667  0.0409 -0.3793  0.1904
   69MOL    C2928725   3.364   5.575   3.548 -0.2214  0.2472 -0.4445
   69MOL    C3028726   3.223   5.586   3.477  0.3723 -0.9139 -0.0192
   69MOL    C3128727   3.208   5.670   3.353  0.5300 -0.4816  0.2877
   69MOL    H3228728   3.599   5.761   4.040 -0.3580  0.3556  0.4069
   69MOL    H3328729   3.532   5.757   3.878 -2.4711  0.1430  0.4186
   69MOL    H3428730   3.560   5.505   4.057  1.1890 -3.6516 -1.6169
   69MOL    H3528731   3.267   5.471   3.718  0.6235 -0.9122  1.2041
   69MOL    H3628732   3.395   5.381   3.634 -0.0312  0.0914 -1.3329
   69MOL    H3728733   3.391   5.673   3.586 -1.5003  0.7552 -0.8235
   69MOL    H3828734   3.442   5.558   3.473 -1.2608 -0.6085 -1.3414
   69MOL    H3928735   3.150   5.628   3.546  2.2372  0.3887  1.2082
   69MOL    H4028736   3.191   5.485   3.455 -1.7429 -0.0617 -0.9715
   69MOL    H4128737   3.107   5.669   3.314  0.8470 -1.7679 -0.5339
   69MOL    H4228738   3.267   5.626   3.273  1.1877  0.6276  0.1581
   69MOL    H4328739   3.229   5.774   3.381 -1.8065  0.0336  0.2019
   69MOL    C4428740   3.718   5.529   3.925 -0.2048 -0.2184 -0.2708
   69MOL    C4528741   3.788   5.424   4.019  0.0100 -0.2905 -0.5044
   69MOL    C4628742   3.890   5.337   3.944  0.3359  0.5107  0.4964
   69MOL    O4728743   4.000   5.381   3.913  0.2658 -0.3560  0.0544
   69MOL    O4828744   3.836   5.225   3.891 -0.4938  0.1216 -0.3245
   69MOL    C4928745   3.916   5.128   3.818  0.4258  0.3359 -0.3016
   69MOL    C5028746   3.866   4.982   3.832  0.0806 -0.6304  0.0886
   69MOL    C5128747   3.739   4.944   3.757 -0.1285 -0.4341  0.4091
   69MOL    C5228748   3.691   4.799   3.788  0.1418 -0.2641  0.0023
   69MOL    H5328749   3.771   5.624   3.917  0.2291 -0.3539  0.9138
   69MOL    H5428750   3.729   5.486   3.825  3.2257  0.7952 -0.4023
   69MOL    H5528751   3.705   5.357   4.042 -0.3866  0.0253 -1.0072
   69MOL    H5628752   4.021   5.137   3.847  0.8736 -0.4643 -1.6688
   69MOL    H5728753   3.919   5.159   3.714  0.1304 -0.3534 -0.5175
   69MOL    H5828754   3.944   4.915   3.797  1.0281  0.9841 -0.9781
   69MOL    H5928755   3.857   4.965   3.939  0.2020  1.2309  0.4235
   69MOL    H6028756   3.768   4.939   3.652  0.4934 -0.1727  0.5669
   69MOL    H6128757   3.656   5.013   3.764 -1.4488 -1.7868 -1.6079
   69MOL    H6228758   3.767   4.723   3.771 -0.1260 -0.5795  0.2115
   69MOL    H6328759   3.600   4.755   3.747  0.5273 -0.7036 -0.3861
   69MOL    H6428760   3.670   4.801   3.895 -3.2210  0.2739 -0.5905
   69MOL    C6528761   3.857   5.484   4.140  0.6099  0.5467 -0.5165
   69MOL    C6628762   3.766   5.556   4.245  0.4814  0.4446  0.0910
   69MOL    C6728763   3.687   5.447   4.321 -0.1316  0.0044  0.3031
   69MOL    O6828764   3.566   5.449   4.328  0.2388  0.2009  0.3259
   69MOL    O6928765   3.764   5.354   4.381 -0.2681 -0.1520  0.0905
   69MOL    C7028766   3.711   5.238   4.443  0.4938 -0.2961  0.7822
   69MOL    C7128767   3.697   5.142   4.326  0.1857 -0.4918 -0.4752
   69MOL    C7228768   3.659   5.001   4.375 -0.3356  0.4409 -0.3176
   69MOL    C7328769   3.653   4.898   4.269  0.4533 -0.0692 -0.2026
   69MOL    H7428770   3.921   5.562   4.097 -0.0287  0.3887 -1.7753
   69MOL    H7528771   3.924   5.412   4.186 -0.9164 -1.0478 -0.7118
   69MOL    H7628772   3.699   5.626   4.195  0.0988  1.5775  2.1543
   69MOL    H7728773   3.620   5.264   4.496  0.2330 -1.8329  1.1290
   69MOL    H7828774   3.786   5.204   4.515  1.2709 -1.6017 -0.6249
   69MOL    H7928775   3.614   5.181   4.267 -0.8303  0.6866  1.6619
   69MOL    H8028776   3.775   5.152   4.251 -1.6433 -0.9916 -2.5223
   69MOL    H8128777   3.576   4.993   4.446 -0.2135  3.9073  0.3351
   69MOL    H8228778   3.745   4.970   4.433 -1.7633 -0.0286  1.6010
   69MOL    H8328779   3.684   4.801   4.309 -0.9996  0.4339  2.2321
   69MOL    H8428780   3.721   4.925   4.188  1.1667 -0.4185  0.2671
   69MOL    H8528781   3.552   4.884   4.230  0.7838 -0.5325 -0.9022
   69MOL    C8628782   3.855   5.634   4.347  0.1145 -0.2028 -0.8501
   69MOL    C8728783   3.921   5.760   4.286  0.0841 -0.5244  0.0157
   69MOL    C8828784   3.811   5.869   4.266  0.0508 -0.1602 -0.1034
   69MOL    O8928785   3.772   5.907   4.155 -0.2910 -0.8499  0.0803
   69MOL    O9028786   3.751   5.905   4.386 -0.3995 -0.3964 -0.5116
   69MOL    C9128787   3.662   6.015   4.393 -0.3364  0.4192 -0.0987
   69MOL    C9228788   3.665   6.097   4.518  0.1191  0.3716 -0.0526
   69MOL    C9328789   3.789   6.183   4.529 -0.5038 -0.6929  0.3835
   69MOL    C9428790   3.806   6.272   4.656  0.5828 -0.5349 -0.3403
   69MOL    H9528791   3.931   5.560   4.373  0.8444  1.0960  0.7792
   69MOL    H9628792   3.795   5.661   4.434  0.4102  0.4895 -0.8624
   69MOL    H9728793   3.957   5.767   4.183 -2.3396  2.9455 -0.6889
   69MOL    H9828794   3.564   5.968   4.383 -1.2139  2.2457 -0.2949
   69MOL    H9928795   3.673   6.081   4.308  0.4838  1.5521  0.8721
   69MOL   H10028796   3.577   6.162   4.520  0.2242  0.5054  2.7269
   69MOL   H10128797   3.658   6.037   4.609 -2.6639  1.4274  0.4895
   69MOL   H10228798   3.783   6.251   4.444  3.9001 -0.2762  0.2961
   69MOL   H10328799   3.870   6.112   4.513 -0.4740 -0.8890  1.4002
   69MOL   H10428800   3.890   6.341   4.657  0.3833 -0.2996  0.6233
   69MOL   H10528801   3.806   6.218   4.750  1.6888 -2.3006 -1.3287
   69MOL   H10628802   3.725   6.344   4.646  0.8435 -0.4580 -2.1399
   69MOL   C10728803   4.027   5.817   4.377 -0.1322  0.8314 -0.3961
   69MOL   C10828804   4.159   5.736   4.371  0.5894 -0.0583 -0.9066
   69MOL   C10928805   4.243   5.788   4.247  0.5461 -0.7804 -0.6485
   69MOL   O11028806   4.342   5.859   4.256 -0.0625  0.0120 -0.0275
   69MOL   O11128807   4.187   5.744   4.129  0.0440  0.3049  0.2274
   69MOL   C11228808   4.257   5.744   4.007 -0.2772  0.4808  0.3944
   69MOL   C11328809   4.236   5.884   3.945  0.1355 -0.3528  0.3244
   69MOL   C11428810   4.099   5.913   3.875 -0.5366  0.8769  0.2286
   69MOL   C11528811   4.093   6.047   3.807 -0.1409 -0.7647 -0.3996
   69MOL   H11628812   3.990   5.824   4.479 -0.3637  1.8176 -0.5397
   69MOL   H11728813   4.058   5.913   4.335  3.7573  1.0630  2.8194
   69MOL   H11828814   4.134   5.633   4.346  3.4117 -0.8150 -0.7691
   69MOL   H11928815   4.214   5.667   3.943  0.8005 -2.1983  2.8277
   69MOL   H12028816   4.357   5.707   4.026 -1.0586 -1.2235  1.2963
   69MOL   H12128817   4.257   5.958   4.022  0.4841  0.7572 -0.8121
   69MOL   H12228818   4.313   5.900   3.869 -0.9399  0.3259 -0.6283
   69MOL   H12328819   4.017   5.910   3.947  1.1410  0.9410  2.1870
   69MOL   H12428820   4.072   5.835   3.804  1.3036 -0.6297  1.1291
   69MOL   H12528821   4.124   6.131   3.869  1.0530  0.8020 -3.0501
   69MOL   H12628822   3.994   6.072   3.767  0.4827  3.6591  0.6194
   69MOL   H12728823   4.165   6.046   3.725 -1.7264  0.3813 -1.8487
   69MOL   C12828824   4.226   5.739   4.504  0.4524  0.6668 -0.0642
   69MOL   C12928825   4.348   5.653   4.519 -0.3397 -0.0123 -0.0932
   69MOL   C13028826   4.447   5.732   4.591  0.0013  0.0449 -0.1016
   69MOL   O13128827   4.425   5.769   4.706  0.2264  0.6836  0.5600
   69MOL   O13228828   4.566   5.739   4.529 -0.0652 -1.0850 -0.6111
   69MOL   C13328829   4.673   5.806   4.597 -1.0243 -0.4914 -0.1174
   69MOL   C13428830   4.793   5.796   4.504 -0.0992  1.1542 -1.0519
   69MOL   C13528831   4.861   5.657   4.490  0.0914 -0.6939  0.4441
   69MOL   C13628832   4.970   5.647   4.394 -0.9152 -0.3713  0.3354
   69MOL   H13728833   4.151   5.723   4.581 -1.2732  1.2817 -1.6059
   69MOL   H13828834   4.245   5.847   4.509  1.5547  0.5207 -0.8932
   69MOL   H13928835   4.391   5.646   4.419 -1.7399  2.6072 -0.9217
   69MOL   H14028836   4.687   5.749   4.690  1.6250 -2.0065 -1.3849
   69MOL   H14128837   4.641   5.905   4.630  0.3568 -0.2429  0.5313
   69MOL   H14228838   4.772   5.853   4.413  3.1858  3.6239 -0.3855
   69MOL   H14328839   4.868   5.853   4.559 -1.6136  1.3062  0.9068
   69MOL   H14428840   4.781   5.586   4.468 -1.8567  0.7798  2.4089
   69MOL   H14528841   4.907   5.626   4.584  1.7160 -1.1206 -0.4850
   69MOL   H14628842   5.065   5.673   4.440  0.7876 -2.9771 -1.5677
   69MOL   H14728843   4.947   5.707   4.306  0.2574  0.6563  0.7155
   69MOL   H14828844   4.981   5.546   4.354 -1.3780  0.1834 -1.2450
   69MOL   C14928845   4.332   5.510   4.582 -0.9153  0.4133  0.8020
   69MOL   C15028846   4.261   5.402   4.492  0.2214 -0.0648  0.0844
   69MOL   C15128847   4.327   5.388   4.358  0.5888 -0.1853  0.4837
   69MOL   O15228848   4.254   5.398   4.258 -0.2221  0.8994  0.1013
   69MOL   O15328849   4.454   5.347   4.363  0.7408 -0.2245 -0.2870
   69MOL   C15428850   4.522   5.301   4.249  0.6431 -0.6082  0.2960
   69MOL   C15528851   4.550   5.417   4.150  0.6851  0.3742  0.4926
   69MOL   C15628852   4.668   5.510   4.180  0.4966 -0.0689 -0.4484
   69MOL   C15728853   4.706   5.594   4.065  0.5526 -0.4905  0.1805
   69MOL   H15828854   4.282   5.528   4.677  1.0113  1.1862  1.7019
   69MOL   H15928855   4.433   5.476   4.604 -1.1171 -0.4585  0.4115
   69MOL   H16028856   4.162   5.428   4.454 -1.3719 -3.7146  1.5607
   69MOL   H16128857   4.458   5.231   4.195  1.6389 -0.8787 -0.5722
   69MOL   H16228858   4.613   5.240   4.260 -0.0011 -1.1670  2.7453
   69MOL   H16328859   4.589   5.375   4.057  1.9252 -0.0651  1.1972
   69MOL   H16428860   4.468   5.484   4.125  2.3556  1.5322 -2.1887
   69MOL   H16528861   4.752   5.447   4.210  0.5088 -0.1703 -0.6926
   69MOL   H16628862   4.646   5.574   4.265 -0.3894 -1.4230  0.3612
   69MOL   H16728863   4.640   5.680   4.062  2.8245  1.2538 -0.6798
   69MOL   H16828864   4.692   5.535   3.974 -2.0647 -1.0818  0.9184
   69MOL   H16928865   4.807   5.635   4.071 -0.5105  2.0937  0.7060
   69MOL   C17028866   4.250   5.270   4.563 -0.5857 -0.0344  0.6710
   69MOL   C17128867   4.195   5.268   4.708  0.4111  0.6026  0.5599
   69MOL   C17228868   4.049   5.311   4.716  0.4204  0.1188 -0.1488
   69MOL   O17328869   3.954   5.235   4.713  0.2137  0.6212  0.0217
   69MOL   O17428870   4.031   5.442   4.738  0.5948  0.0483 -0.2327
   69MOL   C17528871   3.896   5.498   4.732 -0.2427  0.3312 -0.5336
   69MOL   C17628872   3.907   5.639   4.789 -0.0547  0.1614 -0.3202
   69MOL   C17728873   3.786   5.731   4.756 -0.0690 -0.9082 -0.0210
   69MOL   C17828874   3.810   5.853   4.843  0.6082  0.0215 -0.0121
   69MOL   H17928875   4.349   5.227   4.576 -0.6610 -1.4852 -2.9502
   69MOL   H18028876   4.197   5.196   4.503  4.0162 -0.3865 -3.2691
   69MOL   H18128877   4.253   5.343   4.762  1.4000  0.6825 -0.6015
   69MOL   H18228878   3.822   5.442   4.789 -0.3508 -0.3793 -1.3666
   69MOL   H18328879   3.862   5.492   4.629  1.3487  0.0991 -1.0526
   69MOL   H18428880   3.926   5.631   4.896  1.6819  0.0722 -0.6199
   69MOL   H18528881   4.004   5.674   4.752 -0.1337  1.5981  0.7877
   69MOL   H18628882   3.700   5.683   4.803 -0.7833  1.3842  1.0946
   69MOL   H18728883   3.763   5.768   4.656 -0.5652  1.4654  0.9597
   69MOL   H18828884   3.905   5.896   4.813 -0.2015  2.0969  0.2376
   69MOL   H18928885   3.815   5.831   4.950 -0.4874 -1.4330 -0.2489
   69MOL   H19028886   3.731   5.928   4.830  0.1324  0.0366  2.6543
   69MOL   C19128887   4.219   5.123   4.776 -0.0163 -0.3902 -0.6324
   69MOL   C19228888   4.210   5.116   4.927  0.0868 -0.2860  0.0067
   69MOL   C19328889   4.064   5.087   4.969 -0.0353 -0.0951  0.7799
   69MOL   O19428890   3.993   5.173   5.024 -0.3104  0.7294 -0.0401
   69MOL   O19528891   4.024   4.952   4.945 -0.5444  0.1041  0.1881
   69MOL   C19628892   3.890   4.927   4.967  0.1794  0.1392  0.8721
   69MOL   C19728893   3.813   4.921   4.831  0.2118 -0.6795 -0.9049
   69MOL   C19828894   3.861   4.814   4.738 -0.5114 -0.0583  0.2552
   69MOL   C19928895   3.753   4.738   4.661 -0.0125 -0.1015 -0.5971
   69MOL   H20028896   4.316   5.089   4.740  0.0572 -1.3449  0.4356
   69MOL   H20128897   4.158   5.042   4.736  0.8534 -1.9767  1.1468
   69MOL   H20228898   4.232   5.215   4.968  0.5426  0.0526 -1.0181
   69MOL   H20328899   3.837   5.008   5.016  0.0974  0.1862  0.7084
   69MOL   H20428900   3.867   4.826   5.002  2.4654  0.1203  2.3975
   69MOL   H20528901   3.710   4.897   4.855 -0.1785  1.6356 -0.0799
   69MOL   H20628902   3.800   5.019   4.783  1.6239 -0.7489 -1.4382
   69MOL   H20728903   3.924   4.740   4.786 -0.5521 -0.2324  0.0392
   69MOL   H20828904   3.929   4.862   4.669  0.0415  0.3260  1.0615
   69MOL   H20928905   3.670   4.807   4.643  1.3662  1.7191 -0.0497
   69MOL   H21028906   3.716   4.650   4.714  0.1757 -1.8799 -3.3051
   69MOL   H21128907   3.794   4.713   4.563  2.1810  1.0612  0.0170
   69MOL   C21228908   4.317   5.022   4.996  0.2424  0.1895  0.1090
   69MOL   C21328909   4.460   5.078   4.989  0.1186  0.2953 -0.1145
   69MOL   C21428910   4.496   5.164   5.114 -0.5515  0.4728 -0.3598
   69MOL   O21528911   4.439   5.156   5.222  0.2397  0.5559  0.3594
   69MOL   O21628912   4.610   5.229   5.092 -0.0927 -0.2088 -0.4553
   69MOL   C21728913   4.651   5.322   5.188 -0.1745 -0.0273 -0.3060
   69MOL   C21828914   4.741   5.278   5.304  0.1138 -0.3045  0.0166
   69MOL   C21928915   4.791   5.401   5.395 -0.1033 -0.6173  0.1039
   69MOL   C22028916   4.860   5.354   5.526 -0.2761 -0.7263  1.1474
   69MOL   H22128917   4.305   4.922   4.953 -0.5179  0.2227  0.2311
   69MOL   H22228918   4.289   5.013   5.101  2.6687  1.6440  0.9084
   69MOL   H22328919   4.471   5.146   4.905  2.7440 -2.2209 -1.9185
   69MOL   H22428920   4.567   5.378   5.230  0.2659 -1.0561  2.0190
   69MOL   H22528921   4.717   5.394   5.138 -3.5568  0.8037 -3.7649
   69MOL   H22628922   4.688   5.209   5.369 -0.1442 -0.8922 -0.8143
   69MOL   H22728923   4.825   5.225   5.259 -0.9048 -2.2784  0.3673
   69MOL   H22828924   4.700   5.447   5.431  0.2051  0.5340 -0.5626
   69MOL   H22928925   4.856   5.472   5.344  0.4427  0.0733  1.7270
   69MOL   H23028926   4.860   5.433   5.601  0.3930 -0.3786  0.7925
   69MOL   H23128927   4.963   5.331   5.497  0.1633 -0.2197  2.2927
   69MOL   H23228928   4.801   5.278   5.576 -2.3507 -0.5727 -0.9935
   69MOL   C23328929   4.567   4.967   4.972 -0.1329  0.0003  0.4646
   69MOL   C23428930   4.569   4.902   4.836  0.2581  0.3750  0.1939
   69MOL   C23528931   4.608   4.993   4.725 -0.0646 -0.4582 -0.2882
   69MOL   O23628932   4.541   5.025   4.625  0.2993  0.3070 -0.9121
   69MOL   O23728933   4.733   5.039   4.754  0.2369 -0.4475 -0.3097
   69MOL   C23828934   4.794   5.131   4.664 -0.8884  0.7481 -0.6193
   69MOL   C23928935   4.799   5.274   4.708 -0.2414  0.7529 -0.5522
   69MOL   C24028936   4.662   5.340   4.736  1.0268  0.5827  0.1860
   69MOL   C24128937   4.663   5.465   4.820 -0.3334 -0.8125  0.0822
   69MOL   H24228938   4.556   4.900   5.057 -1.3139  1.1407  1.2182
   69MOL   H24328939   4.667   5.011   4.977  0.4266 -1.2299  0.4483
   69MOL   H24428940   4.472   4.858   4.812  1.0790 -0.2954 -2.0278
   69MOL   H24528941   4.761   5.121   4.561  0.4526  2.6105 -1.2507
   69MOL   H24628942   4.893   5.088   4.660 -0.7602  1.1119 -1.3959
   69MOL   H24728943   4.854   5.272   4.802  0.3540 -0.5217 -0.9250
   69MOL   H24828944   4.869   5.333   4.648  2.3342 -0.4097  1.2369
   69MOL   H24928945   4.593   5.270   4.782  1.5811  2.1035  3.4997
   69MOL   H25028946   4.632   5.374   4.637 -0.8570  0.7303  0.7918
   69MOL   H25128947   4.580   5.527   4.787  0.4549  0.4454  0.4453
   69MOL   H25228948   4.756   5.515   4.795  0.6418 -1.6334  2.0069
   69MOL   H25328949   4.672   5.440   4.926  0.0030  1.4865  0.6214
   69MOL   C25428950   4.666   4.773   4.845  0.9797 -0.4800  0.4255
   69MOL   C25528951   4.665   4.673   4.729  0.5066  0.3924 -0.7670
   69MOL   C25628952   4.810   4.614   4.720  0.5595 -0.0100 -0.3473
   69MOL   O25728953   4.840   4.501   4.752 -0.5721  0.2790 -0.4521
   69MOL   O25828954   4.901   4.698   4.670 -0.2607 -0.4759  0.0200
   69MOL   C25928955   5.032   4.646   4.643 -0.0173 -0.0150  0.3097
   69MOL   C26028956   5.132   4.675   4.755 -0.1993 -0.7144  0.0056
   69MOL   C26128957   5.174   4.827   4.758  0.6412  0.0422  0.2725
   69MOL   C26228958   5.287   4.841   4.859 -0.2142  0.2838 -0.7509
   69MOL   H26328959   4.636   4.709   4.928 -0.7551  1.9713  1.7662
   69MOL   H26428960   4.768   4.803   4.869  1.7449 -0.5729 -2.4967
   69MOL   H26528961   4.657   4.739   4.643  0.0693  0.6615 -0.5237
   69MOL   H26628962   5.066   4.700   4.554 -2.9454 -0.7323 -1.2906
   69MOL   H26728963   5.044   4.541   4.616  1.1106  0.2796 -0.4011
   69MOL   H26828964   5.095   4.642   4.852 -0.3660 -0.1958  0.1234
   69MOL   H26928965   5.218   4.613   4.732  1.3938  0.8722  1.4828
   69MOL   H27028966   5.086   4.879   4.797  0.5454  1.0627 -1.2406
   69MOL   H27128967   5.202   4.863   4.659  0.7996  1.1996  0.7311
   69MOL   H27228968   5.247   4.844   4.960  0.9572 -1.0005 -0.2329
   69MOL   H27328969   5.358   4.922   4.844 -1.5671  1.4682 -0.8504
   69MOL   H27428970   5.346   4.749   4.850  1.1250  1.0992 -0.3504
   69MOL   C27528971   4.558   4.556   4.740 -0.9516  0.0640  0.0961
   69MOL   C27628972   4.408   4.584   4.719 -0.1009 -0.2349 -0.6238
   69MOL   C27728973   4.375   4.677   4.601 -0.5123  0.3289 -0.2834
   69MOL   O27828974   4.332   4.788   4.617  0.3209  0.2878 -0.0781
   69MOL   O27928975   4.399   4.620   4.483  0.5457  0.1348 -0.4692
   69MOL   C28028976   4.381   4.696   4.364 -0.6762  0.1148 -0.3236
   69MOL   C28128977   4.517   4.742   4.314 -0.1246  0.1367 -0.6890
   69MOL   C28228978   4.503   4.839   4.192  0.3675 -0.4944  0.6302
   69MOL   C28328979   4.629   4.922   4.170  0.0345  0.3162  0.7729
   69MOL   H28428980   4.572   4.495   4.829 -3.2320 -0.6892 -0.0197
   69MOL   H28528981   4.590   4.478   4.670 -1.2893 -0.7037  0.7868
   69MOL   H28628982   4.366   4.644   4.799  0.5921  0.2167 -0.5933
   69MOL   H28728983   4.311   4.779   4.371 -0.4319  0.3645 -0.8660
   69MOL   H28828984   4.326   4.637   4.290 -0.0762  1.3128 -1.7497
   69MOL   H28928985   4.572   4.789   4.395 -3.2716 -0.3611  1.8356
   69MOL   H29028986   4.569   4.651   4.285 -3.3051 -1.7903 -0.6021
   69MOL   H29128987   4.423   4.913   4.189  1.4251  0.6181 -0.7986
   69MOL   H29228988   4.488   4.775   4.105  1.0621  0.5932 -0.2943
   69MOL   H29328989   4.721   4.873   4.201  0.4672  0.8755  0.4014
   69MOL   H29428990   4.631   5.006   4.238 -0.4822 -0.8263  2.2091
   69MOL   H29528991   4.632   4.967   4.070 -0.7630 -0.9968  0.1361
   69MOL   C29628992   4.320   4.449   4.712 -0.0416  0.0199 -0.0856
   69MOL   C29728993   4.262   4.391   4.834  0.1663  0.4883 -0.0394
   69MOL   C29828994   4.363   4.368   4.948  0.0367 -0.4141  0.1038
   69MOL   O29928995   4.407   4.464   5.011  0.9418  0.8217 -0.1920
   69MOL   O30028996   4.400   4.235   4.960 -0.1312 -0.2055 -0.0731
   69MOL   C30128997   4.496   4.204   5.057 -0.7752  0.0896  0.4874
   69MOL   C30228998   4.621   4.130   5.017  0.0697 -0.2820 -0.0958
   69MOL   C30328999   4.605   4.006   4.921 -0.5954  0.2841  0.1961
   69MOL   C30429000   4.726   3.911   4.921 -0.0453 -0.2595 -0.2995
   69MOL   H30529001   4.386   4.378   4.662  0.4502  0.1605  0.3587
   69MOL   H30629002   4.242   4.472   4.640  0.1844  1.6617  0.1766
   69MOL   H30729003   4.222   4.294   4.804  1.9335 -0.0473 -0.7298
   69MOL   H30829004   4.442   4.139   5.125  0.8317  0.6586  2.3225
   69MOL   H30929005   4.532   4.284   5.121  1.0810  0.6116 -1.1651
   69MOL   H31029006   4.685   4.200   4.964 -0.0588  0.4126  0.6686
   69MOL   H31129007   4.685   4.110   5.103 -1.6621 -3.1669  0.6136
   69MOL   H31229008   4.591   4.041   4.819 -2.2614 -1.4205 -0.1937
   69MOL   H31329009   4.514   3.965   4.966 -0.6811  0.6415  0.3559
   69MOL   H31429010   4.700   3.817   4.873 -1.4677 -0.5382  0.9606
   69MOL   H31529011   4.765   3.873   5.016  1.1038 -2.1166 -1.4782
   69MOL   H31629012   4.815   3.937   4.864  0.9519 -0.5675  1.0815
   69MOL   C31729013   4.140   4.472   4.890 -0.4010 -0.6655 -0.8691
   69MOL   C31829014   4.045   4.392   4.983  0.0247 -0.0839  0.0657
   69MOL   C31929015   4.026   4.461   5.119 -0.0427 -0.2390  0.5225
   69MOL   O32029016   4.056   4.410   5.229 -0.1902  0.4818 -0.0798
   69MOL   O32129017   3.973   4.582   5.107  0.0738 -0.3720  0.5762
   69MOL   C32229018   3.953   4.655   5.228 -0.1696 -0.5055 -0.1580
   69MOL   C32329019   4.069   4.750   5.258 -0.1238 -0.0328 -0.8842
   69MOL   C32429020   4.040   4.840   5.379  0.0494 -0.0212 -0.0677
   69MOL   C32529021   3.973   4.973   5.334  0.3156 -0.2933  0.3118
   69MOL   H32629022   4.082   4.528   4.816 -3.1765 -1.7067  0.4450
   69MOL   H32729023   4.184   4.549   4.953  0.8525 -3.1944  1.4431
   69MOL   H32829024   4.103   4.300   4.997  2.1434  1.2634  0.4322
   69MOL   H32929025   3.932   4.597   5.318 -1.3513 -1.9645 -1.3390
   69MOL   H33029026   3.863   4.717   5.219  0.1854  0.5838  3.1460
   69MOL   H33129027   4.158   4.691   5.277  0.5371  1.5408  1.1155
   69MOL   H33229028   4.107   4.802   5.171  1.3520 -3.1471 -2.1723
   69MOL   H33329029   4.135   4.862   5.426 -1.0138  1.2217  1.5687
   69MOL   H33429030   3.993   4.783   5.459 -0.6207  2.4745  1.3691
   69MOL   H33529031   3.982   5.043   5.417  0.6050 -0.7137  0.6389
   69MOL   H33629032   3.868   4.961   5.309  0.5192 -0.1529 -0.6279
   69MOL   H33729033   4.035   5.015   5.255 -0.6796  1.4545  0.4413
   69MOL   C33829034   3.908   4.350   4.916 -0.0313  0.3201 -0.4127
   69MOL   C33929035   3.822   4.244   4.994  0.2671 -0.7182  0.5661
   69MOL   C34029036   3.689   4.229   4.920  0.8071  0.3252 -0.9490
   69MOL   O34129037   3.586   4.233   4.984  0.1533 -0.3736 -1.2151
   69MOL   O34229038   3.704   4.182   4.788  0.2888 -0.8210 -0.5843
   69MOL   C34329039   3.595   4.162   4.708 -0.2524 -0.0719  0.8858
   69MOL   C34429040   3.638   4.106   4.571  0.3600  0.2502 -0.1808
   69MOL   C34529041   3.676   3.961   4.597 -0.1165 -0.1756  0.0157
   69MOL   C34629042   3.730   3.896   4.468  0.0515 -0.8482 -0.0937
   69MOL   H34729043   3.941   4.315   4.818  0.7936 -2.7273  0.8933
   69MOL   H34829044   3.845   4.433   4.883 -1.9161 -1.1111 -0.4338
   69MOL   H34929045   3.797   4.270   5.097 -0.3735 -2.7709  0.9534
   69MOL   H35029046   3.545   4.258   4.694  0.4095  0.0005 -1.2011
   69MOL   H35129047   3.530   4.092   4.761 -0.3038 -0.5100  0.2491
   69MOL   H35229048   3.554   4.090   4.503 -1.0362  1.3933  1.2325
   69MOL   H35329049   3.712   4.166   4.518  0.3183  0.8147  0.3957
   69MOL   H35429050   3.589   3.906   4.632 -0.7573  0.2279 -0.9332
   69MOL   H35529051   3.752   3.952   4.674 -0.9493  0.8336  0.9656
   69MOL   H35629052   3.658   3.883   4.387  0.8358 -1.7159 -0.6622
   69MOL   H35729053   3.763   3.793   4.481 -0.3811 -0.6840  2.5889
   69MOL   H35829054   3.808   3.957   4.422  0.5414 -1.4226 -0.0299
   69MOL   C35929055   3.893   4.103   5.013 -0.4810  0.1858  0.4543
   69MOL   C36029056   3.922   4.058   5.163  0.9247 -0.9536  0.3391
   69MOL   C36129057   3.809   3.959   5.202 -0.3370  0.0766 -0.4197
   69MOL   O36229058   3.712   3.985   5.271  0.3028 -0.1523 -0.0677
   69MOL   O36329059   3.821   3.841   5.152  0.2458  0.0756  0.3796
   69MOL   C36429060   3.719   3.745   5.161 -0.3263  1.2756  1.4052
   69MOL   C36529061   3.782   3.603   5.164 -0.0200 -0.4010  0.4951
   69MOL   C36629062   3.912   3.594   5.257 -0.0687 -0.3414  0.1878
   69MOL   C36729063   3.960   3.448   5.281 -0.2684  0.2843 -0.2758
   69MOL   H36829064   3.980   4.105   4.947 -1.0789 -2.9509 -0.5290
   69MOL   H36929065   3.831   4.024   4.970  0.4689 -1.0762  1.3277
   69MOL   H37029066   3.909   4.141   5.233 -0.8774 -2.3162  1.6892
   69MOL   H37129067   3.650   3.770   5.079  0.9003  0.9947  0.2742
   69MOL   H37229068   3.647   3.742   5.243 -0.1923 -3.0821  1.4870
   69MOL   H37329069   3.705   3.538   5.204 -2.1541  1.2680 -0.8454
   69MOL   H37429070   3.807   3.579   5.061  0.4066  3.8617 -0.4954
   69MOL   H37529071   3.886   3.635   5.354  0.8844 -0.4166  0.4818
   69MOL   H37629072   3.992   3.657   5.218 -1.3815  0.3672 -1.3978
   69MOL   H37729073   4.049   3.444   5.343 -1.2171  1.4175  1.1898
   69MOL   H37829074   4.007   3.404   5.193  2.1567  0.8216  0.7007
   69MOL   H37929075   3.887   3.372   5.307 -0.1385  0.8102  1.7019
   69MOL   C38029076   4.068   4.004   5.194 -0.0177 -0.5276  0.1346
   69MOL   C38129077   4.092   3.981   5.344  0.0741 -0.1642  0.2429
   69MOL   C38229078   4.181   3.854   5.364 -1.1867  0.1073 -0.3009
   69MOL   O38329079   4.150   3.752   5.427  0.1817 -0.4643 -0.4605
   69MOL   O38429080   4.307   3.874   5.311 -0.2845  0.5091 -0.0627
   69MOL   C38529081   4.415   3.785   5.326  0.6544  0.3927  0.4534
   69MOL   C38629082   4.428   3.697   5.202 -0.3605  0.2774  0.1704
   69MOL   C38729083   4.323   3.582   5.188  0.1050 -0.1207  0.6773
   69MOL   C38829084   4.314   3.507   5.057 -0.3600  0.4814  0.0072
   69MOL   H38929085   4.137   4.080   5.158 -0.3350 -0.9654 -1.4157
   69MOL   H39029086   4.081   3.914   5.134 -2.5900 -0.4289 -0.6534
   69MOL   H39129087   3.994   3.959   5.386  0.7859 -2.0851  0.9194
   69MOL   H39229088   4.416   3.723   5.416 -0.7465  1.0918  0.9733
   69MOL   H39329089   4.509   3.840   5.330  1.6329 -1.3287  2.3829
   69MOL   H39429090   4.421   3.758   5.112 -1.1245 -1.7710 -1.1854
   69MOL   H39529091   4.525   3.647   5.201 -0.0701  0.8320 -2.1392
   69MOL   H39629092   4.228   3.624   5.220  0.7535  1.3228  0.7505
   69MOL   H39729093   4.348   3.515   5.271 -1.8086 -0.2719  1.1476
   69MOL   H39829094   4.406   3.463   5.018 -0.5454 -0.0032  0.1131
   69MOL   H39929095   4.287   3.565   4.968  0.5987 -0.9734 -1.2697
   69MOL   H40029096   4.249   3.420   5.062  0.3562 -0.0460  0.2720
   69MOL   C40129097   4.155   4.100   5.411 -0.9798  0.2143  0.1504
   69MOL   C40229098   4.180   4.081   5.566  0.4773 -0.6515  0.1401
   69MOL   C40329099   4.049   4.054   5.647 -0.8889 -0.3061 -0.4102
   69MOL   O40429100   3.937   4.069   5.607  0.0932 -0.0338 -0.0210
   69MOL   O40529101   4.080   3.985   5.762  0.0639 -0.2278 -0.5354
   69MOL   C40629102   3.981   3.946   5.855  0.5120  0.1525  0.5863
   69MOL   C40729103   4.001   3.799   5.889 -0.3551 -0.5445 -0.2749
   69MOL   C40829104   4.006   3.719   5.764  0.2236 -0.2491 -0.0147
   69MOL   C40929105   4.029   3.572   5.782 -0.1048 -0.1947 -0.3079
   69MOL   H41029106   4.091   4.187   5.397 -1.8524 -0.8553 -2.8742
   69MOL   H41129107   4.247   4.125   5.359  0.8289 -4.5905  0.8245
   69MOL   H41229108   4.222   4.170   5.612 -0.7857  0.3168 -0.5416
   69MOL   H41329109   3.882   3.962   5.812  0.6844 -4.1640 -1.7266
   69MOL   H41429110   3.987   4.011   5.942 -0.1953  0.4797  0.4001
   69MOL   H41529111   4.094   3.783   5.943 -0.5770  2.0536  0.9866
   69MOL   H41629112   3.925   3.768   5.961 -0.7805 -0.0499 -0.5099
   69MOL   H41729113   4.077   3.759   5.691 -0.2543 -0.4920 -0.6130
   69MOL   H41829114   3.913   3.733   5.710 -0.0609 -1.4738  0.1562
   69MOL   H41929115   4.131   3.555   5.818  0.2700 -1.3822 -1.8339
   69MOL   H42029116   4.018   3.534   5.680 -0.9013 -0.0561 -0.2734
   69MOL   H42129117   3.960   3.517   5.846 -2.3916  1.4156 -1.3442
   69MOL   H42229118   4.254   4.000   5.574  0.7351 -0.4386 -0.0786
   70MOL     C129119   1.734   6.686   3.050  0.5023 -0.1982 -0.0925
   70MOL     C229120   1.725   6.606   3.182 -0.2654  0.3424  0.3908
   70MOL     C329121   1.614   6.497   3.172  0.5799 -0.3382 -0.2900
   70MOL     O429122   1.530   6.482   3.260 -0.4677  0.4127  0.3153
   70MOL     O529123   1.616   6.426   3.055  0.6496 -0.6824  0.3276
   70MOL     C629124   1.499   6.342   3.045  0.2661  0.3606  0.2395
   70MOL     C729125   1.502   6.269   2.912  0.6945  0.3415  0.5367
   70MOL     C829126   1.451   6.357   2.793  0.5050 -0.0976 -0.2455
   70MOL     C929127   1.459   6.291   2.654 -0.4649  0.4275 -0.0415
   70MOL    H1029128   1.759   6.788   3.077 -0.2868  0.0468 -0.2872
   70MOL    H1129129   1.805   6.641   2.980  2.2759 -1.9943  2.7471
   70MOL    H1229130   1.692   6.677   3.258 -1.1816 -0.3428  0.6458
   70MOL    H1329131   1.414   6.410   3.049 -1.0789 -1.2680  0.0462
   70MOL    H1429132   1.484   6.265   3.121  1.9596 -0.9012 -0.6734
   70MOL    H1529133   1.604   6.245   2.882  0.2941 -0.3301 -0.3077
   70MOL    H1629134   1.434   6.184   2.912 -0.8146  1.5203 -1.3815
   70MOL    H1729135   1.522   6.440   2.788  0.1725  0.3001  1.2935
   70MOL    H1829136   1.349   6.384   2.819  0.0886  0.3086 -2.2671
   70MOL    H1929137   1.567   6.281   2.645 -0.6284 -1.6709  0.2139
   70MOL    H2029138   1.415   6.339   2.567 -0.9593  2.3919  1.2432
   70MOL    H2129139   1.439   6.184   2.657  2.7525 -0.2101  2.9614
   70MOL    H2229140   1.640   6.701   2.998 -0.0639 -1.3335  0.5640
   70MOL    C2329141   1.858   6.539   3.225 -0.6443  0.1878  0.5635
   70MOL    C2429142   1.984   6.634   3.222  0.5030 -0.5039 -0.7299
   70MOL    C2529143   1.964   6.725   3.339 -0.9435 -0.2972 -0.5226
   70MOL    O2629144   1.951   6.847   3.328 -0.1380 -0.0006  0.7144
   70MOL    O2729145   1.957   6.660   3.454 -0.4265  0.0016 -0.7572
   70MOL    C2829146   1.961   6.734   3.579  0.2496 -0.5980 -0.3937
   70MOL    C2929147   2.057   6.671   3.678  0.2358  0.2953 -0.1671
   70MOL    C3029148   2.070   6.750   3.810  0.2410  0.1369 -0.6748
   70MOL    C3129149   2.172   6.673   3.898  0.0484  0.3787  0.0776
   70MOL    H3229150   1.877   6.462   3.150 -2.1593  0.9503 -0.6206
   70MOL    H3329151   1.851   6.473   3.312  0.7915 -1.8090 -0.7717
   70MOL    H3429152   1.974   6.692   3.130 -0.2268 -0.0256 -0.3545
   70MOL    H3529153   1.864   6.747   3.628  0.8466  0.6793  0.4602
   70MOL    H3629154   2.002   6.831   3.554  3.5765 -1.2359  2.1774
   70MOL    H3729155   2.034   6.569   3.706  1.3798  0.0042 -0.2517
   70MOL    H3829156   2.149   6.667   3.619  1.1013 -0.9909  1.2532
   70MOL    H3929157   1.978   6.742   3.869  0.8574  3.4327  0.8158
   70MOL    H4029158   2.079   6.858   3.812 -2.1011  0.3534  2.2267
   70MOL    H4129159   2.222   6.750   3.956  0.2205  1.0365 -0.9360
   70MOL    H4229160   2.252   6.624   3.843  0.5299  0.8996  0.3157
   70MOL    H4329161   2.110   6.610   3.962 -0.8012 -0.2912 -1.3747
   70MOL    C4429162   2.121   6.552   3.225 -0.0279 -0.1020 -0.8730
   70MOL    C4529163   2.240   6.618   3.149  0.0511  0.3535  0.5466
   70MOL    C4629164   2.233   6.621   2.997 -0.7388 -0.3027  0.3674
   70MOL    O4729165   2.242   6.726   2.929 -0.0415  0.3478 -0.4699
   70MOL    O4829166   2.234   6.495   2.939 -0.1592 -0.0964 -0.7758
   70MOL    C4929167   2.224   6.484   2.803 -0.0217  0.4534  0.3057
   70MOL    C5029168   2.087   6.413   2.762  0.2433  0.4192  0.5204
   70MOL    C5129169   1.968   6.509   2.782  0.0969 -0.5746 -0.5536
   70MOL    C5229170   1.835   6.442   2.757  0.0960 -0.0555  0.4288
   70MOL    H5329171   2.105   6.450   3.191 -0.2395 -0.2571 -0.3190
   70MOL    H5429172   2.163   6.549   3.326 -1.8245  2.9349  0.0365
   70MOL    H5529173   2.320   6.547   3.167  0.4497  0.4078 -0.9338
   70MOL    H5629174   2.306   6.422   2.767  0.8733  1.4065  0.6826
   70MOL    H5729175   2.226   6.581   2.753  0.0178  0.0787 -0.4315
   70MOL    H5829176   2.090   6.381   2.658 -0.4439  1.6861  0.0978
   70MOL    H5929177   2.079   6.327   2.829  1.4480 -1.4582 -1.6641
   70MOL    H6029178   1.973   6.593   2.713 -1.4346  1.2665  1.4907
   70MOL    H6129179   1.969   6.556   2.881  0.9165 -0.3025 -0.6901
   70MOL    H6229180   1.807   6.369   2.833 -1.8395 -0.0688 -0.2584
   70MOL    H6329181   1.833   6.393   2.660 -1.6705 -1.5350  1.1682
   70MOL    H6429182   1.748   6.508   2.750 -0.1553 -0.5568 -1.4598
   70MOL    C6529183   2.297   6.752   3.209  1.0273 -0.3209  0.7273
   70MOL    C6629184   2.349   6.743   3.352  0.4607 -0.2524  0.4765
   70MOL    C6729185   2.466   6.652   3.357  0.5277 -0.6753 -0.2898
   70MOL    O6829186   2.453   6.536   3.401  0.3024 -0.0632  0.0987
   70MOL    O6929187   2.579   6.698   3.299 -0.2750  0.3921  0.2986
   70MOL    C7029188   2.688   6.609   3.266 -0.1216 -0.2654 -0.0654
   70MOL    C7129189   2.798   6.612   3.369 -0.5147 -0.2149  0.2345
   70MOL    C7229190   2.903   6.503   3.351 -0.1990  0.5407 -0.0088
   70MOL    C7329191   2.998   6.493   3.471  0.1705 -0.9622 -0.0351
   70MOL    H7429192   2.227   6.836   3.207 -0.2723 -1.3193  2.9649
   70MOL    H7529193   2.384   6.788   3.153  0.3626  2.3747  1.3591
   70MOL    H7629194   2.264   6.703   3.408  0.6984  1.6349  2.2882
   70MOL    H7729195   2.718   6.656   3.171 -0.8684 -0.8684 -0.6037
   70MOL    H7829196   2.653   6.507   3.249 -0.8900  0.2828 -1.9816
   70MOL    H7929197   2.856   6.704   3.359 -1.0285 -0.0443 -1.2462
   70MOL    H8029198   2.767   6.627   3.472  0.5911 -0.1293  0.5639
   70MOL    H8129199   2.946   6.501   3.250 -0.7202  3.4518 -0.3363
   70MOL    H8229200   2.849   6.409   3.357 -0.9791  1.0897  1.7077
   70MOL    H8329201   3.063   6.405   3.462  0.7642 -0.3137 -2.5550
   70MOL    H8429202   2.951   6.485   3.569  1.3453 -2.8582  0.4030
   70MOL    H8529203   3.069   6.576   3.469 -0.5687 -0.3087  0.6291
   70MOL    C8629204   2.375   6.883   3.419  0.3603 -0.3526 -1.3422
   70MOL    C8729205   2.392   6.894   3.574 -0.4161  0.0399 -0.0888
   70MOL    C8829206   2.521   6.825   3.637  0.4337 -0.6414 -0.5161
   70MOL    O8929207   2.504   6.714   3.688  0.4410 -0.1598  0.2109
   70MOL    O9029208   2.638   6.887   3.602 -0.1030  0.3812 -0.3475
   70MOL    C9129209   2.763   6.827   3.646 -0.5063  0.0777 -0.0319
   70MOL    C9229210   2.845   6.941   3.710 -0.4250 -0.0733  0.2361
   70MOL    C9329211   2.866   7.060   3.615  0.0583 -0.4659 -0.0915
   70MOL    C9429212   2.984   7.138   3.659 -0.1191 -0.6199 -0.1515
   70MOL    H9529213   2.295   6.950   3.388 -1.4448 -2.2891 -0.9727
   70MOL    H9629214   2.461   6.925   3.366  2.7293  0.0938  2.6052
   70MOL    H9729215   2.310   6.832   3.609  0.4446 -0.4873  0.9806
   70MOL    H9829216   2.820   6.784   3.564 -1.7287 -0.7491 -0.4729
   70MOL    H9929217   2.757   6.743   3.716 -0.5890 -1.2498 -1.5979
   70MOL   H10029218   2.795   6.963   3.804  0.9448 -0.1300  0.9822
   70MOL   H10129219   2.944   6.899   3.726  0.3732  1.7393  0.1191
   70MOL   H10229220   2.775   7.119   3.620  0.4352  0.0707  0.6017
   70MOL   H10329221   2.887   7.030   3.513 -1.9862 -0.8123 -0.4251
   70MOL   H10429222   2.992   7.240   3.621  0.5362 -0.1659  1.1644
   70MOL   H10529223   3.079   7.085   3.648  0.6638  1.0168 -1.5021
   70MOL   H10629224   2.979   7.148   3.767  2.6903  3.0318 -0.2418
   70MOL   C10729225   2.360   7.043   3.627  0.7704  0.1670  0.0284
   70MOL   C10829226   2.327   7.056   3.775 -0.6918  0.4748 -0.2047
   70MOL   C10929227   2.447   7.094   3.861  0.0491 -1.3347  0.0892
   70MOL   O11029228   2.449   7.050   3.975 -0.0519 -0.0624 -0.3509
   70MOL   O11129229   2.529   7.187   3.803 -0.4450  0.0351 -0.3564
   70MOL   C11229230   2.634   7.238   3.893  0.7788  0.4862 -0.4703
   70MOL   C11329231   2.597   7.384   3.941 -0.2300  0.1160 -0.5618
   70MOL   C11429232   2.721   7.458   3.988  0.0049  0.5151 -0.3428
   70MOL   C11529233   2.715   7.603   4.008  0.1000 -0.0234  0.0815
   70MOL   H11629234   2.267   7.067   3.576  0.3072 -0.6398  0.4737
   70MOL   H11729235   2.432   7.119   3.598 -1.2339  1.5253 -1.5059
   70MOL   H11829236   2.293   6.955   3.799 -1.5907  0.5742 -1.0049
   70MOL   H11929237   2.729   7.241   3.841  0.5378  1.1809 -0.8805
   70MOL   H12029238   2.657   7.172   3.977  0.9100  1.8152  0.5556
   70MOL   H12129239   2.558   7.431   3.850  0.5711  0.5406 -0.7003
   70MOL   H12229240   2.513   7.385   4.010  1.1556 -0.6499  1.1830
   70MOL   H12329241   2.798   7.421   3.919 -0.3936 -0.1800 -0.4231
   70MOL   H12429242   2.739   7.410   4.084 -2.4714  0.4531  0.1170
   70MOL   H12529243   2.732   7.650   3.911  0.8614  0.5343  0.4842
   70MOL   H12629244   2.792   7.639   4.076  1.9214  0.6791 -2.2674
   70MOL   H12729245   2.617   7.630   4.048  0.3371 -1.0141  1.3542
   70MOL   C12829246   2.201   7.143   3.792  0.5821 -0.2569  0.4684
   70MOL   C12929247   2.211   7.295   3.749  0.2110 -0.8792  0.0542
   70MOL   C13029248   2.215   7.330   3.594 -0.1125  0.0260 -0.7289
   70MOL   O13129249   2.325   7.359   3.546 -0.1960 -0.3852 -0.1157
   70MOL   O13229250   2.100   7.324   3.532 -0.4965 -0.9506 -0.1050
   70MOL   C13329251   2.083   7.348   3.394  0.2569 -0.7524 -0.5804
   70MOL   C13429252   2.042   7.215   3.324  0.4504 -0.2778  0.2827
   70MOL   C13529253   2.030   7.238   3.171 -0.1088 -0.1842  0.0370
   70MOL   C13629254   1.993   7.111   3.096  0.4161  0.1103  0.1916
   70MOL   H13729255   2.188   7.147   3.901  0.3147  1.0662  0.3887
   70MOL   H13829256   2.112   7.096   3.750  1.0923 -0.9409  0.1456
   70MOL   H13929257   2.306   7.335   3.784 -0.7635  1.4396  0.1633
   70MOL   H14029258   2.170   7.383   3.339  0.3045  0.4430  0.2462
   70MOL   H14129259   2.001   7.418   3.375  0.4589 -0.5427 -0.6723
   70MOL   H14229260   2.113   7.133   3.338 -0.1413 -0.3832  3.0471
   70MOL   H14329261   1.947   7.178   3.362  0.6019 -0.7285  0.2246
   70MOL   H14429262   2.123   7.278   3.130 -0.7266  1.7003  0.4520
   70MOL   H14529263   1.950   7.308   3.150 -0.6967 -0.7686  0.3150
   70MOL   H14629264   1.892   7.074   3.114  0.0379 -1.1580 -3.9502
   70MOL   H14729265   2.068   7.032   3.087  0.7200  0.5485 -1.3995
   70MOL   H14829266   1.968   7.131   2.991  0.9752 -0.3952 -0.0444
   70MOL   C14929267   2.093   7.374   3.814 -1.1339  0.9815 -0.6940
   70MOL   C15029268   2.089   7.404   3.964  0.5529  0.2834  0.4956
   70MOL   C15129269   2.206   7.490   4.006 -1.2152  0.0326  0.2415
   70MOL   O15229270   2.271   7.464   4.106 -0.2218 -0.4349 -0.2340
   70MOL   O15329271   2.218   7.595   3.926  0.4490  0.0245  0.0737
   70MOL   C15429272   2.314   7.696   3.940  0.1846  0.3905 -0.1446
   70MOL   C15529273   2.241   7.823   3.990 -0.4363  0.2500  0.3552
   70MOL   C15629274   2.322   0.100   3.997  0.0170 -0.0327  0.4698
   70MOL   C15729275   2.240   0.222   3.956  0.0202  0.4851  0.2800
   70MOL   H15829276   2.004   7.317   3.786  0.5634 -2.7913  1.2954
   70MOL   H15929277   2.080   7.474   3.771  2.2010  2.1116  0.7652
   70MOL   H16029278   2.088   7.315   4.026 -1.4876  1.1320  1.7392
   70MOL   H16129279   2.359   7.707   3.841 -2.3152  3.1012 -1.0875
   70MOL   H16229280   2.380   7.670   4.022 -2.3830  0.2770  1.9528
   70MOL   H16329281   2.160   7.840   3.919 -1.1482  0.0493  1.1118
   70MOL   H16429282   2.201   7.807   4.090  0.1830 -1.3491  0.3579
   70MOL   H16529283   2.408   0.090   3.930 -0.2350 -1.2841  0.3176
   70MOL   H16629284   2.352   0.115   4.100 -2.9574 -1.0528  1.5371
   70MOL   H16729285   2.204   0.212   3.854  0.5590 -1.1392  0.2408
   70MOL   H16829286   2.305   0.309   3.962  0.8768 -0.0812 -0.7025
   70MOL   H16929287   2.149   0.234   4.015 -0.0388 -2.5421  0.8789
   70MOL   C17029288   1.959   7.473   4.006 -0.5231  0.4000 -0.1921
   70MOL   C17129289   1.829   7.391   3.991 -0.7054 -0.2574  0.2172
   70MOL   C17229290   1.825   7.259   4.077 -0.2375  0.0559 -0.0282
   70MOL   O17329291   1.789   7.152   4.028  0.1654 -0.2417  0.3673
   70MOL   O17429292   1.873   7.278   4.202  0.4168  0.0912  0.3196
   70MOL   C17529293   1.856   7.179   4.297 -0.8974 -0.8655 -0.6374
   70MOL   C17629294   1.983   7.099   4.338  0.1439  0.2897 -0.2815
   70MOL   C17729295   2.037   7.012   4.227 -0.3966 -0.1364 -0.7342
   70MOL   C17829296   2.161   6.942   4.271 -0.1025  0.7347 -0.1974
   70MOL   H17929297   1.947   7.573   3.964 -1.9594  1.2795  2.2384
   70MOL   H18029298   1.981   7.500   4.109 -0.6374 -0.8921  0.1775
   70MOL   H18129299   1.818   7.356   3.888 -0.1188 -3.8780  1.3006
   70MOL   H18229300   1.782   7.105   4.268 -0.8600 -1.7001  1.3183
   70MOL   H18329301   1.803   7.224   4.380  0.5351  0.4324 -0.4077
   70MOL   H18429302   2.051   7.177   4.374 -0.8195  1.7614 -1.6016
   70MOL   H18529303   1.960   7.028   4.417  1.7975 -0.7087 -0.6779
   70MOL   H18629304   2.055   7.082   4.145 -0.0170  0.6617  0.0243
   70MOL   H18729305   1.962   6.942   4.188  1.1985 -2.1219 -0.2823
   70MOL   H18829306   2.243   7.012   4.288  1.0291 -0.7990  0.8007
   70MOL   H18929307   2.197   6.870   4.197 -0.9788 -0.5912  0.6363
   70MOL   H19029308   2.137   6.882   4.359  1.4391 -1.4374 -1.1981
   70MOL   C19129309   1.720   7.486   4.016 -0.2001  0.2946 -0.7494
   70MOL   C19229310   1.576   7.437   4.001 -0.0240  0.8014  0.2447
   70MOL   C19329311   1.516   7.377   4.130 -0.6484  0.0910 -0.7251
   70MOL   O19429312   1.489   7.257   4.139 -0.5669  0.1258 -0.0970
   70MOL   O19529313   1.497   7.469   4.225 -0.0907 -0.7002 -0.7588
   70MOL   C19629314   1.411   7.456   4.337  0.0112 -0.7107  0.3726
   70MOL   C19729315   1.485   7.375   4.447  0.6976 -0.3321 -0.0160
   70MOL   C19829316   1.408   7.390   4.585  0.7869  0.2616  0.5314
   70MOL   C19929317   1.445   7.283   4.698  0.4778  0.3388  0.1270
   70MOL   H20029318   1.737   7.575   3.956  0.1045  1.6216  1.2789
   70MOL   H20129319   1.736   7.531   4.114  1.7360 -0.8880 -0.4933
   70MOL   H20229320   1.588   7.352   3.935 -1.4984  0.7179  0.0682
   70MOL   H20329321   1.314   7.414   4.307  0.3604  0.5874 -2.8155
   70MOL   H20429322   1.399   7.556   4.378 -1.8039 -0.9321  0.4288
   70MOL   H20529323   1.479   7.269   4.419  0.6336 -0.2061 -0.4887
   70MOL   H20629324   1.590   7.405   4.444 -0.0776  2.7744  1.7621
   70MOL   H20729325   1.299   7.395   4.580  0.8706  2.6597  0.6712
   70MOL   H20829326   1.424   7.490   4.625 -1.3573  0.8962 -0.1807
   70MOL   H20929327   1.394   7.311   4.790  0.1683 -0.1749  0.1103
   70MOL   H21029328   1.552   7.294   4.715  0.5566  0.9147 -0.6672
   70MOL   H21129329   1.424   7.177   4.684 -0.7446  0.7922 -1.7105
   70MOL   C21229330   1.489   7.551   3.941 -0.0769  0.0520  0.6190
   70MOL   C21329331   1.346   7.501   3.903 -0.0123 -0.4325 -0.2695
   70MOL   C21429332   1.252   7.621   3.859 -0.4464 -0.5070 -0.0378
   70MOL   O21529333   1.298   7.735   3.837  0.0914 -0.5361  0.1313
   70MOL   O21629334   1.119   7.585   3.852  0.6410 -0.4168  0.6135
   70MOL   C21729335   1.016   7.679   3.840 -0.1041  0.3664  0.4165
   70MOL   C21829336   0.890   7.588   3.877 -0.1806  0.9014 -0.3674
   70MOL   C21929337   0.759   7.672   3.845  0.0038 -1.0170 -0.1227
   70MOL   C22029338   0.731   7.675   3.693 -0.1728  0.0585 -0.6385
   70MOL   H22129339   1.523   7.592   3.846  0.4242  0.0194  0.7818
   70MOL   H22229340   1.479   7.632   4.013 -1.0095 -0.9455  1.6399
   70MOL   H22329341   1.296   7.465   3.993 -1.5164 -1.8979 -1.6345
   70MOL   H22429342   1.010   7.735   3.747  0.3465 -1.2598 -0.5964
   70MOL   H22529343   1.043   7.739   3.927  3.1841 -1.0096  0.4168
   70MOL   H22629344   0.894   7.510   3.801 -0.6235  0.5083  0.0097
   70MOL   H22729345   0.905   7.558   3.980 -0.3151  1.4596 -0.1839
   70MOL   H22829346   0.776   7.772   3.886 -0.7545 -0.4231 -1.2305
   70MOL   H22929347   0.675   7.619   3.891 -0.0507 -0.4008  0.5002
   70MOL   H23029348   0.801   7.733   3.633 -1.2480  3.3685  1.1497
   70MOL   H23129349   0.635   7.718   3.665 -0.6663 -1.3869 -1.2271
   70MOL   H23229350   0.706   7.580   3.645  2.3509 -0.2988 -1.3341
   70MOL   C23329351   1.343   7.385   3.802 -0.5599  0.5439  0.2827
   70MOL   C23429352   1.219   7.298   3.802 -0.6418  0.2091  0.0610
   70MOL   C23529353   1.233   7.208   3.679 -0.0376  0.3750  0.3340
   70MOL   O23629354   1.180   7.243   3.574 -0.0241  0.4750  0.5157
   70MOL   O23729355   1.308   7.104   3.697  0.0111  0.3068 -0.2252
   70MOL   C23829356   1.329   6.996   3.612  0.0818  0.1670  0.1642
   70MOL   C23929357   1.250   6.880   3.663 -0.0032  0.2452 -0.5739
   70MOL   C24029358   1.290   6.843   3.806 -0.9983 -0.1093 -0.6219
   70MOL   C24129359   1.218   6.723   3.853 -0.2363 -1.1125 -0.1330
   70MOL   H24229360   1.435   7.327   3.808 -0.2162  0.9349 -0.9689
   70MOL   H24329361   1.344   7.438   3.707 -2.3430 -1.3552 -0.8329
   70MOL   H24429362   1.137   7.366   3.777 -1.6631 -0.2176  2.1141
   70MOL   H24529363   1.436   6.973   3.606 -0.0977 -0.3957 -1.0048
   70MOL   H24629364   1.305   7.023   3.509  0.1332 -0.9876 -0.1630
   70MOL   H24729365   1.144   6.900   3.648 -0.0698 -0.0449 -0.5002
   70MOL   H24829366   1.264   6.796   3.594 -1.1479  0.4324 -1.0422
   70MOL   H24929367   1.274   6.924   3.876  0.7137  1.2417 -1.7546
   70MOL   H25029368   1.397   6.822   3.816 -0.7598  0.9615 -0.8838
   70MOL   H25129369   1.109   6.718   3.842 -0.4986  0.9856  1.1472
   70MOL   H25229370   1.253   6.710   3.955  0.5293  3.3847  0.3076
   70MOL   H25329371   1.263   6.634   3.809  2.0106 -0.0102 -0.1393
   70MOL   C25429372   1.194   7.218   3.933  0.2990  0.6127 -0.4210
   70MOL   C25529373   1.058   7.133   3.943  0.7742  0.3014  0.7674
   70MOL   C25629374   1.050   7.043   4.066 -0.1342 -0.0922 -0.3649
   70MOL   O25729375   1.087   7.089   4.181 -0.1473 -0.1561  0.6348
   70MOL   O25829376   0.984   6.930   4.048 -0.0446  0.0122 -0.1362
   70MOL   C25929377   0.951   6.845   4.159 -0.1365 -0.5832  0.2807
   70MOL   C26029378   0.872   6.722   4.107  0.2819  0.3960 -0.1163
   70MOL   C26129379   0.720   6.751   4.073  0.1548 -0.6577 -0.5155
   70MOL   C26229380   0.665   6.647   3.976  0.4453 -0.1967  0.4320
   70MOL   H26329381   1.178   7.278   4.023  1.7665 -2.8090  2.2387
   70MOL   H26429382   1.269   7.142   3.954  0.6066  1.2934  1.0228
   70MOL   H26529383   1.059   7.057   3.865  1.8567 -0.6339  1.6718
   70MOL   H26629384   0.915   6.899   4.246  2.2598  0.0715  0.9232
   70MOL   H26729385   1.047   6.808   4.196  0.3182  0.1686 -0.1058
   70MOL   H26829386   0.918   6.675   4.020 -2.6446  0.9759 -2.0554
   70MOL   H26929387   0.865   6.657   4.194 -2.4902  0.0588 -0.5651
   70MOL   H27029388   0.703   6.853   4.038  0.3526 -0.8228 -1.1130
   70MOL   H27129389   0.658   6.739   4.162 -1.5731  2.0449 -1.2963
   70MOL   H27229390   0.713   6.652   3.878  0.3421  2.0967  0.4507
   70MOL   H27329391   0.557   6.654   3.959  0.4099 -2.2540 -0.3346
   70MOL   H27429392   0.692   6.554   4.025 -0.2963 -0.9294 -0.5336
   70MOL   C27529393   0.937   7.235   3.925 -0.2544 -0.2686  0.6102
   70MOL   C27629394   0.794   7.198   3.961  0.4055 -0.7538  0.0057
   70MOL   C27729395   0.768   7.208   4.112 -0.4114  0.3158 -0.2404
   70MOL   O27829396   0.717   7.115   4.171  0.1783  0.0315 -0.4386
   70MOL   O27929397   0.803   7.326   4.163  0.3853 -0.1339 -0.6627
   70MOL   C28029398   0.809   7.340   4.307 -0.2160  0.5910  0.2104
   70MOL   C28129399   0.894   7.460   4.325 -0.0047  0.3296  0.1817
   70MOL   C28229400   1.042   7.459   4.280  0.0193 -0.0530  0.5072
   70MOL   C28329401   1.097   7.601   4.256  0.0767  0.0064  0.3096
   70MOL   H28429402   0.949   7.260   3.819  0.2641  0.9858  0.9614
   70MOL   H28529403   0.963   7.327   3.976 -0.8653 -0.5200  1.3730
   70MOL   H28629404   0.781   7.093   3.931 -1.2646 -1.0195  1.6082
   70MOL   H28729405   0.862   7.260   4.358  0.1187  1.4952  1.3021
   70MOL   H28829406   0.712   7.353   4.356 -0.1166 -0.1741  0.6165
   70MOL   H28929407   0.852   7.551   4.283 -0.9064  0.2849  0.9729
   70MOL   H29029408   0.881   7.478   4.432  0.0113 -0.6977  0.3620
   70MOL   H29129409   1.042   7.419   4.179  2.0783  1.1069  0.0182
   70MOL   H29229410   1.096   7.393   4.348 -0.3928 -0.2084  0.6904
   70MOL   H29329411   1.016   7.656   4.208 -0.4205 -0.3730  0.7024
   70MOL   H29429412   1.182   7.602   4.188  0.8620 -0.7500  1.2642
   70MOL   H29529413   1.120   7.638   4.356  1.8762  0.8797 -0.4073
   70MOL   C29629414   0.687   7.285   3.882  0.0533  0.2434 -0.3933
   70MOL   C29729415   0.540   7.244   3.896  0.7031  0.0272 -0.4667
   70MOL   C29829416   0.447   7.363   3.874 -0.0597 -0.2839  0.1354
   70MOL   O29929417   0.396   7.378   3.760  0.0463 -0.4242  0.2329
   70MOL   O30029418   0.442   7.442   3.983 -0.2187 -0.6593  0.4585
   70MOL   C30129419   0.347   7.551   3.983  0.3164 -0.0210  0.5865
   70MOL   C30229420   0.348   7.629   4.111 -0.2526 -0.5665  0.0246
   70MOL   C30329421   0.487   7.674   4.166  0.2998  0.7289 -0.8391
   70MOL   C30429422   0.490   7.768   4.292 -0.1351 -0.6367  0.5809
   70MOL   H30529423   0.716   7.291   3.777  2.0764  3.6091  0.3007
   70MOL   H30629424   0.707   7.388   3.910 -1.3281  0.9415 -1.8796
   70MOL   H30729425   0.519   7.219   4.000  0.2718  0.4194 -0.4571
   70MOL   H30829426   0.247   7.509   3.976  1.0525 -1.7777  0.3434
   70MOL   H30929427   0.371   7.628   3.910 -1.5880  0.1846  0.1546
   70MOL   H31029428   0.286   7.715   4.088 -0.2494  0.0806  2.2989
   70MOL   H31129429   0.306   7.574   4.195 -0.7265 -0.1290  0.0774
   70MOL   H31229430   0.539   7.718   4.080  3.4474  0.8021  1.0567
   70MOL   H31329431   0.538   7.579   4.179  0.9032  1.1391 -0.1860
   70MOL   H31429432   0.591   7.801   4.316 -0.0753  0.6926 -1.4440
   70MOL   H31529433   0.443   7.719   4.378 -2.5687  2.1803  0.9431
   70MOL   H31629434   0.430   0.004   4.275 -2.3110 -2.0919  0.3571
   70MOL   C31729435   0.503   7.127   3.804 -0.3430  0.8446  0.4175
   70MOL   C31829436   0.364   7.063   3.820  0.2504 -0.0301  0.3189
   70MOL   C31929437   0.313   7.003   3.684 -0.6106 -0.0339  0.3107
   70MOL   O32029438   0.398   6.933   3.619 -0.6381  0.0477 -0.1788
   70MOL   O32129439   0.191   7.037   3.644 -0.1954  0.2414 -0.2229
   70MOL   C32229440   0.133   6.987   3.519  0.4056 -0.1441  0.6314
   70MOL   C32329441   0.018   6.888   3.539 -0.4465  0.7278  0.0664
   70MOL   C32429442   0.064   6.753   3.615 -0.3897  0.7221  0.4006
   70MOL   C32529443   7.806   6.651   3.617  0.3405 -0.4631  0.1969
   70MOL   H32629444   0.584   7.054   3.811 -1.2552 -0.1961  0.2375
   70MOL   H32729445   0.514   7.150   3.699  1.6366  2.5496  0.9684
   70MOL   H32829446   0.294   7.144   3.835 -0.0522 -0.1958 -0.1702
   70MOL   H32929447   0.213   6.949   3.455  0.1779  0.0960  0.1958
   70MOL   H33029448   0.101   7.077   3.466  1.8280  0.7805  1.3252
   70MOL   H33129449   7.791   6.930   3.599 -0.7169  0.3224 -0.0068
   70MOL   H33229450   7.832   6.854   3.443  0.0642 -2.0559  0.8008
   70MOL   H33329451   0.109   6.768   3.713 -0.0841  0.4623  0.3015
   70MOL   H33429452   0.136   6.708   3.546 -1.7372 -0.0272 -0.5306
   70MOL   H33529453   7.775   6.624   3.517 -0.2046  2.4678 -0.4941
   70MOL   H33629454   7.726   6.670   3.689 -0.3310 -0.5744 -0.5249
   70MOL   H33729455   7.847   6.557   3.652  0.0996 -0.3860  0.6985
   70MOL   C33829456   0.356   6.951   3.930 -0.3485 -0.6229  0.5294
   70MOL   C33929457   0.334   7.017   4.066  0.0051 -0.8570 -0.0942
   70MOL   C34029458   0.198   7.082   4.084 -0.2453 -0.3895  0.1689
   70MOL   O34129459   0.191   7.202   4.116 -0.2416  0.4051 -0.5556
   70MOL   O34229460   0.091   7.005   4.065  0.2142  0.4308 -0.1476
   70MOL   C34329461   7.809   7.043   4.070 -0.1023  0.0310  0.3089
   70MOL   C34429462   7.739   7.041   3.937 -0.0212 -0.0571 -0.3903
   70MOL   C34529463   7.598   7.112   3.939 -0.0363  0.1319  0.3393
   70MOL   C34629464   7.508   7.042   3.840  0.3866  0.1799  0.0122
   70MOL   H34729465   0.450   6.897   3.929  0.7008  1.1401  1.5040
   70MOL   H34829466   0.274   6.884   3.904 -0.6324 -0.7861  1.7730
   70MOL   H34929467   0.403   7.101   4.078 -0.9606 -0.2273  1.1925
   70MOL   H35029468   7.796   7.142   4.113 -1.1655  0.6661 -1.4421
   70MOL   H35129469   7.747   6.988   4.141 -2.2376 -1.5491 -2.6878
   70MOL   H35229470   7.808   7.087   3.866  0.6303  0.5246  0.6013
   70MOL   H35329471   7.721   6.939   3.903 -1.8661 -0.1308  0.7494
   70MOL   H35429472   7.603   7.219   3.920 -5.4498  0.2643 -1.2431
   70MOL   H35529473   7.564   7.099   4.041  0.7263  1.0218  0.7116
   70MOL   H35629474   7.415   7.098   3.838  1.2574  1.6344 -2.2900
   70MOL   H35729475   7.509   6.939   3.876  0.5666  0.2616  0.2470
   70MOL   H35829476   7.549   7.056   3.740 -1.9498  1.1517 -0.8429
   70MOL   C35929477   0.354   6.907   4.169 -0.5667 -0.2336 -0.8597
   70MOL   C36029478   0.403   6.944   4.313 -0.0245  0.1192  0.0024
   70MOL   C36129479   0.307   7.032   4.392 -0.0001 -0.1963 -0.4074
   70MOL   O36229480   0.192   6.995   4.401 -0.0415  0.3039 -0.3059
   70MOL   O36329481   0.371   7.140   4.442 -0.4554 -0.4275  0.2931
   70MOL   C36429482   0.292   7.228   4.530 -0.2003  0.8986  0.0888
   70MOL   C36529483   0.321   7.386   4.528  0.5652 -0.1696  0.0796
   70MOL   C36629484   0.469   7.410   4.564  0.1574  0.2569  1.3776
   70MOL   C36729485   0.516   7.344   4.694  0.4119 -1.1318  0.1418
   70MOL   H36829486   0.424   6.828   4.140 -0.2974 -0.6230  0.7893
   70MOL   H36929487   0.267   6.842   4.173  0.2635 -1.2889  0.2997
   70MOL   H37029488   0.487   7.012   4.299 -1.3179  1.5809 -0.7679
   70MOL   H37129489   0.304   7.190   4.631  1.9876 -1.0481 -0.8697
   70MOL   H37229490   0.187   7.219   4.500  0.1589  2.6357 -1.8724
   70MOL   H37329491   0.302   7.417   4.425  0.0904  2.4352  0.9462
   70MOL   H37429492   0.259   7.434   4.603 -0.3581 -2.1145  0.5937
   70MOL   H37529493   0.494   7.516   4.572 -0.7674  0.7230 -1.1260
   70MOL   H37629494   0.522   7.368   4.479 -1.0866 -1.0560  1.2338
   70MOL   H37729495   0.447   7.373   4.772 -0.6171 -0.4596 -1.0074
   70MOL   H37829496   0.620   7.367   4.717 -0.8169  2.5889  2.4127
   70MOL   H37929497   0.501   7.236   4.696 -0.2852 -1.0151  1.3021
   70MOL   C38029498   0.437   6.814   4.396 -0.3589  0.2298  0.7817
   70MOL   C38129499   0.522   6.832   4.528  1.0044  0.7668 -0.2131
   70MOL   C38229500   0.429   6.870   4.644  0.7934 -0.1595  0.2149
   70MOL   O38329501   0.311   6.833   4.650  0.0499  0.3567 -0.7915
   70MOL   O38429502   0.496   6.927   4.744 -0.6763 -0.2910 -0.4232
   70MOL   C38529503   0.432   6.949   4.868 -0.2905 -0.6253  0.1025
   70MOL   C38629504   0.520   6.939   4.995  0.3296  0.1722 -0.0100
   70MOL   C38729505   0.454   6.965   5.125  0.5094 -0.2302 -0.0587
   70MOL   C38829506   0.551   6.956   5.239 -0.1833  0.3444 -0.4736
   70MOL   H38929507   0.499   6.751   4.332 -2.4196  0.5291 -1.6216
   70MOL   H39029508   0.348   6.754   4.418 -0.7487 -0.7526 -3.1702
   70MOL   H39129509   0.590   6.912   4.498  0.0832  1.4699 -0.4566
   70MOL   H39229510   0.363   6.866   4.880 -1.2583  0.3160  1.1864
   70MOL   H39329511   0.380   7.045   4.871 -0.3010 -0.5502 -1.6128
   70MOL   H39429512   0.557   6.837   4.997 -1.5754 -0.5097  2.4399
   70MOL   H39529513   0.601   7.012   4.986 -0.0270  0.5246 -0.4074
   70MOL   H39629514   0.381   6.889   5.150  1.4990 -2.3552 -3.3430
   70MOL   H39729515   0.407   7.063   5.113 -1.6429 -1.4184 -1.6140
   70MOL   H39829516   0.491   6.956   5.330 -0.5798 -0.2375 -0.7327
   70MOL   H39929517   0.623   7.037   5.254 -0.3760  0.5401 -0.6089
   70MOL   H40029518   0.607   6.862   5.237 -2.4090 -1.0561  0.7573
   70MOL   C40129519   0.595   6.698   4.559 -0.5197 -0.1054  0.2760
   70MOL   C40229520   0.707   6.697   4.657  0.4762 -0.4936 -0.0108
   70MOL   C40329521   0.830   6.773   4.609  0.5552 -0.2220 -0.2057
   70MOL   O40429522   0.882   6.760   4.496  0.2623  0.1245 -0.6947
   70MOL   O40529523   0.874   6.862   4.703  0.7859  0.4221 -0.4292
   70MOL   C40629524   0.965   6.969   4.674  1.0597  0.5247  0.0004
   70MOL   C40729525   0.902   7.111   4.657 -0.3927 -0.2742  0.5374
   70MOL   C40829526   1.001   7.231   4.632 -0.5696 -0.1064  0.4956
   70MOL   C40929527   1.084   7.282   4.755  0.1974 -0.1595 -0.0494
   70MOL   H41029528   0.638   6.649   4.472  0.1579  0.4709  0.2859
   70MOL   H41129529   0.515   6.635   4.599 -1.1951 -0.9251 -2.2404
   70MOL   H41229530   0.743   6.594   4.663  1.3969 -0.1148  1.1604
   70MOL   H41329531   1.013   6.946   4.578 -0.6404  1.2865 -1.0468
   70MOL   H41429532   1.042   6.955   4.750  1.0515  0.4773 -0.0007
   70MOL   H41529533   0.831   7.107   4.575  0.9287 -2.1293 -0.5569
   70MOL   H41629534   0.858   7.140   4.753  0.4005 -1.1784  1.1885
   70MOL   H41729535   0.943   7.318   4.599  0.0595  0.3096  0.4678
   70MOL   H41829536   1.068   7.209   4.549  0.0566  1.1189  0.6547
   70MOL   H41929537   1.168   7.214   4.772  1.9434  1.9906  0.1308
   70MOL   H42029538   1.020   7.279   4.842 -0.4880 -1.3637 -0.5752
   70MOL   H42129539   1.119   7.383   4.737 -3.4290  1.1301 -0.2028
   70MOL   H42229540   0.679   6.710   4.762  0.3708  3.9130 -0.4906
   71MOL     C129541   0.809   1.531   2.144 -0.1876 -0.1283  0.1295
   71MOL     C229542   0.730   1.451   2.041  0.5373  0.3383 -0.3620
   71MOL     C329543   0.630   1.552   1.972 -0.2146 -0.1102  0.1494
   71MOL     O429544   0.520   1.570   2.021  0.2368  0.2620 -0.2652
   71MOL     O529545   0.691   1.625   1.864  0.0991  0.2588  0.6733
   71MOL     C629546   0.630   1.725   1.784  0.5918  0.6590 -0.7180
   71MOL     C729547   0.564   1.646   1.672  0.4844 -0.1244 -0.7278
   71MOL     C829548   0.492   1.746   1.575 -0.1473 -0.1375  0.1205
   71MOL     C929549   0.441   1.672   1.448 -0.0262 -0.6398  0.4096
   71MOL    H1029550   0.749   1.588   2.215 -1.1157  0.7373 -1.3119
   71MOL    H1129551   0.879   1.468   2.199 -1.3685 -1.2839  0.3111
   71MOL    H1229552   0.669   1.386   2.103  1.4538 -0.5578 -0.3732
   71MOL    H1329553   0.711   1.785   1.742 -0.8374  0.8988 -3.1769
   71MOL    H1429554   0.560   1.791   1.835  2.4536 -0.0466  2.9571
   71MOL    H1529555   0.632   1.589   1.609 -0.0001 -1.4109 -0.1018
   71MOL    H1629556   0.495   1.569   1.707  1.2847 -0.4056  0.2333
   71MOL    H1729557   0.561   1.826   1.548  0.0137 -0.9003 -1.7930
   71MOL    H1829558   0.405   1.794   1.619 -0.0430 -1.3414  1.7020
   71MOL    H1929559   0.347   1.621   1.470 -0.4208 -0.1731 -0.1648
   71MOL    H2029560   0.522   1.614   1.405  0.3124  0.6714 -0.7474
   71MOL    H2129561   0.418   1.742   1.368  1.2075 -0.7391 -0.0375
   71MOL    H2229562   0.870   1.612   2.103  0.0503  0.5445  1.7599
   71MOL    C2329563   0.806   1.357   1.942 -0.0706  0.2939 -0.0751
   71MOL    C2429564   0.739   1.226   1.898 -0.0769  0.7768  0.7468
   71MOL    C2529565   0.605   1.237   1.832 -0.5313 -0.3340  0.3919
   71MOL    O2629566   0.580   1.329   1.753 -0.2048  0.0158  0.2071
   71MOL    O2729567   0.520   1.146   1.872 -0.1119 -0.0010 -0.1736
   71MOL    C2829568   0.387   1.148   1.812  0.1357  0.2102  0.0899
   71MOL    C2929569   0.270   1.234   1.863  0.1591  0.3303 -0.2501
   71MOL    C3029570   0.250   1.226   2.016  0.2815 -0.5398  0.5515
   71MOL    C3129571   0.161   1.336   2.069  0.0234  0.1469  0.3866
   71MOL    H3229572   0.897   1.324   1.993  0.5722 -2.1586 -2.6569
   71MOL    H3329573   0.840   1.415   1.856 -2.3229  1.3505 -0.2854
   71MOL    H3429574   0.713   1.169   1.987 -1.4245 -0.6715 -0.5420
   71MOL    H3529575   0.356   1.044   1.822 -0.5867  0.5481  1.5202
   71MOL    H3629576   0.405   1.166   1.707 -0.0473  0.0327  0.0267
   71MOL    H3729577   0.287   1.336   1.827  3.1922  0.4233  1.2793
   71MOL    H3829578   0.187   1.196   1.804  2.2096 -1.7633 -1.8680
   71MOL    H3929579   0.343   1.239   2.071  1.3006 -1.4872 -0.9222
   71MOL    H4029580   0.226   1.121   2.035 -1.6575 -0.4005 -0.9639
   71MOL    H4129581   0.073   1.347   2.005  1.7873 -1.3366 -2.3552
   71MOL    H4229582   0.212   1.430   2.088 -2.0012  1.0687  1.4420
   71MOL    H4329583   0.118   1.297   2.161 -4.4919  1.2314 -1.1116
   71MOL    C4429584   0.826   1.117   1.830  0.6213 -0.5130  0.2458
   71MOL    C4529585   0.843   1.129   1.677 -0.2931  0.1241 -0.6700
   71MOL    C4629586   0.937   1.236   1.625 -0.3285 -0.2994 -0.0870
   71MOL    O4729587   1.050   1.242   1.672 -0.1728 -0.2063  0.7410
   71MOL    O4829588   0.889   1.311   1.525  0.6195 -0.2668 -0.4402
   71MOL    C4929589   0.975   1.408   1.457  0.2512  0.2075  0.2834
   71MOL    C5029590   0.886   1.492   1.374 -0.0426  0.5997  0.2795
   71MOL    C5129591   0.819   1.436   1.249  0.0168 -0.4141  0.2002
   71MOL    C5229592   0.738   1.543   1.171 -0.2758  0.2639 -0.0507
   71MOL    H5329593   0.789   1.017   1.849 -0.6159  0.4563  3.1455
   71MOL    H5429594   0.925   1.099   1.871  0.3765 -0.2032  0.9820
   71MOL    H5529595   0.748   1.160   1.634  0.8649  1.4267 -2.3742
   71MOL    H5629596   1.038   1.352   1.388 -2.3518 -1.2824 -0.9451
   71MOL    H5729597   1.050   1.452   1.523  1.9786  0.0859 -1.5418
   71MOL    H5829598   0.805   1.516   1.443 -0.4479  2.4205 -0.7938
   71MOL    H5929599   0.945   1.580   1.349  0.9552 -0.0417  0.3495
   71MOL    H6029600   0.756   1.352   1.279  1.9504 -2.1052 -0.4122
   71MOL    H6129601   0.895   1.398   1.181  0.4039 -1.5154  1.2416
   71MOL    H6229602   0.801   1.629   1.148  1.2777 -1.2239 -1.4231
   71MOL    H6329603   0.665   1.596   1.233  1.2696  1.5864  0.6832
   71MOL    H6429604   0.689   1.500   1.084 -0.3605 -0.2295  0.2406
   71MOL    C6529605   0.885   1.000   1.607  0.4105  0.3150 -0.4256
   71MOL    C6629606   0.801   0.869   1.602 -0.0548  0.6435  0.3332
   71MOL    C6729607   0.668   0.897   1.540 -1.3170  0.3154 -0.0055
   71MOL    O6829608   0.569   0.884   1.609 -0.3387 -0.9674 -0.5263
   71MOL    O6929609   0.664   0.932   1.407  0.0066  0.0402  0.0689
   71MOL    C7029610   0.538   0.921   1.335 -0.4814  0.1530  0.3043
   71MOL    C7129611   0.577   0.869   1.189 -0.5778  0.6748 -0.1019
   71MOL    C7229612   0.654   0.980   1.110  0.2287  0.3049 -0.0123
   71MOL    C7329613   0.683   0.952   0.957  0.1159 -0.0057 -0.3510
   71MOL    H7429614   0.975   0.961   1.654 -0.3351  1.3855  2.0054
   71MOL    H7529615   0.906   1.021   1.502 -0.5179 -0.6748 -0.8230
   71MOL    H7629616   0.783   0.835   1.704 -0.9328  0.0045 -0.0260
   71MOL    H7729617   0.465   1.001   1.325 -0.5423  0.2478  1.4774
   71MOL    H7829618   0.478   0.837   1.371  0.2941 -0.4102  0.2839
   71MOL    H7929619   0.624   0.771   1.184 -2.6187 -0.3606  0.3497
   71MOL    H8029620   0.485   0.857   1.133  1.2573 -0.2439 -3.0424
   71MOL    H8129621   0.756   0.979   1.148  1.0864 -1.4578 -2.2382
   71MOL    H8229622   0.609   1.079   1.121  1.0474  0.8437 -1.4253
   71MOL    H8329623   0.594   0.973   0.897 -1.1304 -1.7604  0.8491
   71MOL    H8429624   0.700   0.845   0.949  0.8986  0.1173 -0.3693
   71MOL    H8529625   0.767   1.011   0.919  0.3293 -0.3380 -0.4004
   71MOL    C8629626   0.867   0.751   1.518 -1.3335  0.5277 -0.0076
   71MOL    C8729627   0.981   0.673   1.598 -0.2212 -0.4722  0.4259
   71MOL    C8829628   0.937   0.608   1.730 -0.4914  0.0906  0.0048
   71MOL    O8929629   0.895   0.492   1.731 -0.0214 -0.6395  0.2765
   71MOL    O9029630   0.952   0.685   1.837  0.3653 -0.3832 -0.7227
   71MOL    C9129631   0.896   0.631   1.961 -0.3009  0.6242 -0.2511
   71MOL    C9229632   0.937   0.710   2.086 -0.0153  0.6333  0.0719
   71MOL    C9329633   0.879   0.848   2.088  0.8414 -0.0517 -0.6357
   71MOL    C9429634   0.954   0.924   2.199  0.1544 -0.4294  0.2783
   71MOL    H9529635   0.913   0.792   1.428  0.4077  0.3573  0.7787
   71MOL    H9629636   0.798   0.672   1.489  2.5800 -3.3325  0.6294
   71MOL    H9729637   1.069   0.733   1.619  0.0233 -0.4600 -0.5810
   71MOL    H9829638   0.913   0.524   1.970 -1.7796  0.4042 -0.0013
   71MOL    H9929639   0.788   0.638   1.959 -0.4631 -1.7659 -2.1246
   71MOL   H10029640   0.898   0.654   2.171  0.1482  0.6814  0.1797
   71MOL   H10129641   1.046   0.714   2.090  0.0512 -1.9614  2.4518
   71MOL   H10229642   0.770   0.849   2.093  0.7849 -0.6435 -1.5989
   71MOL   H10329643   0.904   0.894   1.992  0.1219  1.9315  0.1020
   71MOL   H10429644   0.952   0.873   2.295  0.2947  1.7956  1.4851
   71MOL   H10529645   0.918   1.026   2.211 -0.6175 -0.6660 -0.0133
   71MOL   H10629646   1.062   0.933   2.188  0.2755  1.0386  2.4054
   71MOL   C10729647   1.055   0.576   1.500 -0.1848 -0.2312  0.1893
   71MOL   C10829648   1.176   0.643   1.417 -0.0957  0.1978 -0.4699
   71MOL   C10929649   1.307   0.634   1.490 -0.8516  0.4801 -0.5079
   71MOL   O11029650   1.318   0.577   1.598  1.0431  0.0879  0.2217
   71MOL   O11129651   1.400   0.697   1.429  0.0955  0.5884 -0.4969
   71MOL   C11229652   1.532   0.708   1.486  0.5825 -0.4836  0.4658
   71MOL   C11329653   1.634   0.747   1.384 -0.0571 -0.0885  0.9529
   71MOL   C11429654   1.679   0.634   1.288  0.5504  0.4172 -0.0137
   71MOL   C11529655   1.782   0.678   1.184 -0.8761 -0.1375  0.6147
   71MOL   H11629656   0.986   0.535   1.427 -0.1144 -1.1688  0.6388
   71MOL   H11729657   1.096   0.485   1.545 -1.6626 -0.4839  1.0706
   71MOL   H11829658   1.143   0.746   1.406 -0.2881  0.1741 -0.1274
   71MOL   H11929659   1.567   0.617   1.536  0.6238  0.4534  2.2079
   71MOL   H12029660   1.531   0.788   1.560  0.5346  0.4297 -0.5116
   71MOL   H12129661   1.599   0.829   1.321  3.0986  1.1590  0.7287
   71MOL   H12229662   1.722   0.786   1.435 -0.5979 -0.2033  1.9829
   71MOL   H12329663   1.588   0.596   1.242  0.1173  0.9365  0.4137
   71MOL   H12429664   1.714   0.548   1.345 -2.3445 -0.4006  0.5868
   71MOL   H12529665   1.872   0.696   1.242 -0.3266  1.0229 -0.5778
   71MOL   H12629666   1.745   0.750   1.110 -0.0714 -1.0653 -0.7188
   71MOL   H12729667   1.805   0.591   1.122 -1.7925  0.5809 -0.7680
   71MOL   C12829668   1.197   0.568   1.278 -0.4301  0.0624 -0.1336
   71MOL   C12929669   1.081   0.599   1.179  0.2260 -0.1297 -0.5412
   71MOL   C13029670   1.064   0.750   1.161 -1.1943  0.0751  0.1911
   71MOL   O13129671   0.957   0.802   1.162  0.1521 -0.1732 -0.3966
   71MOL   O13229672   1.177   0.817   1.151  0.1671  0.8566 -0.2990
   71MOL   C13329673   1.177   0.955   1.110 -0.1172 -0.0097 -0.4047
   71MOL   C13429674   1.188   1.054   1.222 -0.5383 -0.1911  0.1035
   71MOL   C13529675   1.302   1.049   1.331 -0.3055  0.5412  0.7759
   71MOL   C13629676   1.263   1.130   1.450  0.0120 -0.1141 -0.3014
   71MOL   H13729677   1.179   0.465   1.309  3.0395 -0.8578 -1.0244
   71MOL   H13829678   1.296   0.586   1.238 -0.8421  0.7470 -0.8626
   71MOL   H13929679   0.989   0.562   1.224  1.7476 -0.5438  2.2927
   71MOL   H14029680   1.091   0.972   1.045 -1.3078 -1.2699  0.7881
   71MOL   H14129681   1.266   0.971   1.050  0.2619 -1.3589 -0.2343
   71MOL   H14229682   1.186   1.154   1.178  1.4788 -0.0414  0.2977
   71MOL   H14329683   1.097   1.037   1.279 -1.8660 -1.7967 -2.4196
   71MOL   H14429684   1.387   1.087   1.276 -0.2684 -1.4460 -0.5649
   71MOL   H14529685   1.327   0.952   1.373 -1.3782  1.1380  2.8974
   71MOL   H14629686   1.174   1.099   1.504  0.4261  1.2336  1.1730
   71MOL   H14729687   1.256   1.232   1.411  1.8554  0.2861  0.3905
   71MOL   H14829688   1.332   1.133   1.534 -1.1608 -1.6948  0.7412
   71MOL   C14929689   1.084   0.539   1.045  0.2311 -0.1579 -0.6293
   71MOL   C15029690   1.102   0.384   1.040 -0.0843 -0.8935  0.3615
   71MOL   C15129691   1.012   0.309   1.136  0.1906  0.6318 -0.3477
   71MOL   O15229692   1.069   0.241   1.217 -0.0853 -0.7289 -0.6889
   71MOL   O15329693   0.877   0.336   1.131 -0.5117  0.4696  0.2849
   71MOL   C15429694   0.783   0.284   1.219  0.2493  0.3873  0.2008
   71MOL   C15529695   0.708   0.406   1.275 -0.0291  0.3197 -0.7731
   71MOL   C15629696   0.616   0.365   1.389  0.5206 -0.2141  0.3787
   71MOL   C15729697   0.683   0.303   1.512 -0.7628 -0.0118 -0.0272
   71MOL   H15829698   1.165   0.589   0.993  0.0298 -0.4341 -1.2153
   71MOL   H15929699   0.984   0.565   1.009 -0.0588 -0.5345 -0.1045
   71MOL   H16029700   1.203   0.352   1.066 -0.7047 -2.1117  1.3821
   71MOL   H16129701   0.837   0.242   1.304  2.6596  1.5851 -0.6754
   71MOL   H16229702   0.718   0.224   1.156  0.3340  0.3647  0.1342
   71MOL   H16329703   0.778   0.486   1.301  0.8613 -0.8224  0.4119
   71MOL   H16429704   0.653   0.453   1.193 -0.8689  0.0937 -0.3315
   71MOL   H16529705   0.535   0.301   1.354 -1.5057  2.0968  0.7130
   71MOL   H16629706   0.573   0.458   1.425  1.4791 -0.4282  2.1717
   71MOL   H16729707   0.622   0.299   1.602 -0.3499 -3.4214  0.1679
   71MOL   H16829708   0.772   0.364   1.524  0.0047 -1.0983 -0.0717
   71MOL   H16929709   0.713   0.199   1.497  1.7749  0.5353  1.0273
   71MOL   C17029710   1.088   0.339   0.891 -0.2692  0.1460 -0.5642
   71MOL   C17129711   0.949   0.293   0.828 -0.1000  0.8083  0.2868
   71MOL   C17229712   0.857   0.414   0.801  0.1462  0.8190  0.2000
   71MOL   O17329713   0.883   0.509   0.732 -0.5520 -0.0413 -0.6568
   71MOL   O17429714   0.735   0.383   0.849  0.4123  0.4584 -0.4826
   71MOL   C17529715   0.628   0.477   0.835 -0.0828 -0.1653  0.1746
   71MOL   C17629716   0.494   0.400   0.837 -0.0106  0.0899  0.9068
   71MOL   C17729717   0.472   0.318   0.713  0.0686 -0.0319  0.7066
   71MOL   C17829718   0.475   0.384   0.571 -0.1201 -0.5206 -0.2516
   71MOL   H17929719   1.166   0.265   0.875  0.1034 -0.4648  3.4971
   71MOL   H18029720   1.137   0.414   0.827 -0.2722  2.7096  2.3125
   71MOL   H18129721   0.910   0.223   0.903 -1.9475 -1.1409 -2.3756
   71MOL   H18229722   0.640   0.539   0.746  0.3474  0.0420  0.3770
   71MOL   H18329723   0.627   0.555   0.911 -1.1352  0.5602 -0.5825
   71MOL   H18429724   0.491   0.339   0.927 -0.8167  1.5213  1.8667
   71MOL   H18529725   0.410   0.471   0.842 -1.4971 -1.4262 -1.5289
   71MOL   H18629726   0.383   0.256   0.730 -0.4952  0.5401 -0.1350
   71MOL   H18729727   0.552   0.244   0.708  0.0051 -0.2482  2.4391
   71MOL   H18829728   0.578   0.410   0.544  0.1917 -2.2022 -0.7469
   71MOL   H18929729   0.414   0.474   0.569  1.5411  0.6523  0.7895
   71MOL   H19029730   0.436   0.319   0.492 -1.3768  0.3864 -0.3947
   71MOL   C19129731   0.963   0.192   0.707  0.0551  0.3110  0.4348
   71MOL   C19229732   1.028   0.056   0.741 -0.0775 -0.2225  0.2177
   71MOL   C19329733   0.962   7.841   0.856 -0.1940  0.5299  0.0495
   71MOL   O19429734   0.854   7.783   0.832  0.2381  0.1526 -0.6854
   71MOL   O19529735   1.021   0.005   0.981  0.4224 -0.3991 -0.1182
   71MOL   C19629736   0.962   7.789   1.096  0.2769  0.2078  0.6546
   71MOL   C19729737   0.990   7.638   1.104 -0.1811  0.5459  0.1641
   71MOL   C19829738   0.983   7.581   1.248  0.3758 -0.3979  0.2698
   71MOL   C19929739   0.842   7.592   1.307 -0.3406 -0.0074  0.5640
   71MOL   H20029740   1.023   0.240   0.629  1.0821 -1.1981  0.2697
   71MOL   H20129741   0.869   0.181   0.652  0.0610  0.7856  0.3208
   71MOL   H20229742   1.130   0.081   0.770 -0.6644  1.2107  1.0982
   71MOL   H20329743   0.854   7.803   1.096  0.5248  2.3095 -0.6006
   71MOL   H20429744   1.006   7.842   1.180  0.9151 -0.7321  0.9227
   71MOL   H20529745   0.942   7.580   1.025  0.9569 -0.5104  0.2400
   71MOL   H20629746   1.092   7.618   1.072  0.3337 -0.6919  2.4743
   71MOL   H20729747   1.055   7.621   1.319 -1.0254 -0.3621  1.7060
   71MOL   H20829748   1.001   7.473   1.244 -0.1587 -0.7182  4.4458
   71MOL   H20929749   0.826   7.693   1.343  1.5750  0.5446 -0.0742
   71MOL   H21029750   0.828   7.522   1.389  1.0583 -1.1275 -0.1290
   71MOL   H21129751   0.761   7.557   1.242 -1.7794  1.2930  1.6188
   71MOL   C21229752   1.034   7.816   0.613 -0.5401  0.9410 -0.1713
   71MOL   C21329753   1.121   7.690   0.605  0.4922 -0.1462 -0.1997
   71MOL   C21429754   1.060   7.570   0.677 -0.4483 -0.3209 -0.2685
   71MOL   O21529755   1.113   7.521   0.777  0.0081 -0.2667  0.5609
   71MOL   O21629756   0.943   7.522   0.628 -0.1779  0.2645  0.0032
   71MOL   C21729757   0.896   7.397   0.666  0.3654  0.3473  0.2019
   71MOL   C21829758   0.830   7.316   0.553  0.4655 -0.7004  0.2369
   71MOL   C21929759   0.773   7.187   0.612  0.4933 -0.4500  0.4368
   71MOL   C22029760   0.715   7.110   0.497 -0.3650 -0.3011 -0.2814
   71MOL   H22129761   1.058   0.037   0.537  2.4684  1.0552  0.8402
   71MOL   H22229762   0.931   7.790   0.585 -0.4306  0.0270  0.2559
   71MOL   H22329763   1.213   7.709   0.661  0.2598  1.6834 -0.3945
   71MOL   H22429764   0.818   7.411   0.741  0.3416 -0.0916  0.2611
   71MOL   H22529765   0.976   7.336   0.708  0.4714  1.2042  1.2542
   71MOL   H22629766   0.752   7.380   0.512  1.4758  1.1635  1.0981
   71MOL   H22729767   0.911   7.306   0.481  0.7962  1.2424  0.2916
   71MOL   H22829768   0.703   7.212   0.692 -0.2915  0.6902 -0.5924
   71MOL   H22929769   0.851   7.130   0.664 -0.0706 -0.1669  1.6252
   71MOL   H23029770   0.666   7.016   0.521 -1.3486 -0.2754 -2.0547
   71MOL   H23129771   0.791   7.101   0.418  1.5151 -0.6221  1.5276
   71MOL   H23229772   0.638   7.173   0.451 -1.4615  0.1213  2.0751
   71MOL   C23329773   1.164   7.644   0.458 -0.5973  0.2914  0.2324
   71MOL   C23429774   1.267   7.534   0.435 -0.8893  0.5005  0.1071
   71MOL   C23529775   1.229   7.435   0.319  0.4743 -0.1430  0.1014
   71MOL   O23629776   1.216   7.311   0.344 -0.2921 -0.3054 -0.3516
   71MOL   O23729777   1.205   7.498   0.202  0.7196 -0.5034 -0.4735
   71MOL   C23829778   1.169   7.423   0.084  0.4272  0.6898  0.4792
   71MOL   C23929779   1.258   7.458   7.818 -0.1607  0.1164  0.3390
   71MOL   C24029780   1.215   7.378   7.692 -0.6078  0.1918  0.0366
   71MOL   C24129781   1.263   7.451   7.575 -0.1536  0.1646 -0.6933
   71MOL   H24229782   1.214   7.729   0.413 -1.3256 -0.3155 -1.7841
   71MOL   H24329783   1.075   7.627   0.396  1.6920 -2.1236 -2.5462
   71MOL   H24429784   1.261   7.474   0.526 -1.6327 -0.0332 -0.2890
   71MOL   H24529785   1.064   7.446   0.066  0.3061  0.0498  0.3478
   71MOL   H24629786   1.183   7.316   0.100 -1.6163 -0.4238 -4.2995
   71MOL   H24729787   1.251   7.564   7.796 -1.4452  0.4774  2.3812
   71MOL   H24829788   1.364   7.450   7.839 -0.2892 -1.5219  0.4775
   71MOL   H24929789   1.107   7.362   7.684 -0.4933 -0.3783 -0.3790
   71MOL   H25029790   1.255   7.278   7.680 -0.7678  0.2409 -0.9565
   71MOL   H25129791   1.372   7.455   7.562 -0.0531  0.3044  0.1803
   71MOL   H25229792   1.226   7.554   7.580 -0.0593  0.1857 -0.4046
   71MOL   H25329793   1.219   7.413   7.483  0.3912  2.1062 -1.7928
   71MOL   C25429794   1.413   7.588   0.434  0.4087 -0.9568 -0.0901
   71MOL   C25529795   1.527   7.486   0.450  0.1295 -0.5051 -0.6820
   71MOL   C25629796   1.578   7.417   0.326 -0.0435 -0.0121 -0.1137
   71MOL   O25729797   1.525   7.430   0.220  0.1842  0.2831  0.8345
   71MOL   O25829798   1.686   7.339   0.349 -0.3757 -0.1726  0.3349
   71MOL   C25929799   1.762   7.290   0.240 -0.2744 -0.3748  1.1038
   71MOL   C26029800   1.826   7.157   0.283 -0.1160 -0.2604 -0.1656
   71MOL   C26129801   1.938   7.187   0.379  0.0956 -0.2331 -0.0849
   71MOL   C26229802   1.982   7.072   0.474 -0.4776 -0.1430 -0.0407
   71MOL   H26329803   1.412   7.663   0.513  0.3970  0.8690 -1.7656
   71MOL   H26429804   1.418   7.661   0.353 -1.6481  2.8218  2.9949
   71MOL   H26529805   1.483   7.406   0.510 -0.7095  1.0896  0.8627
   71MOL   H26629806   1.839   7.366   0.231 -1.9205  1.2381  0.5765
   71MOL   H26729807   1.716   7.267   0.144  0.3015  2.8840  0.0172
   71MOL   H26829808   1.749   7.094   0.328 -1.2957  1.5861  0.4522
   71MOL   H26929809   1.858   7.098   0.197  0.1196 -0.4703  0.0640
   71MOL   H27029810   1.925   7.282   0.431 -0.6104  0.0652 -0.7921
   71MOL   H27129811   2.026   7.211   0.319  0.1811 -2.1149 -0.7259
   71MOL   H27229812   1.995   6.991   0.401  2.6637  0.6020 -0.3445
   71MOL   H27329813   1.902   7.045   0.543 -0.6092 -0.7012 -0.3980
   71MOL   H27429814   2.075   7.092   0.526 -0.3051 -0.8159 -0.0793
   71MOL   C27529815   1.646   7.543   0.535  0.1123  0.1345  0.0242
   71MOL   C27629816   1.648   7.502   0.686  0.0232  0.5925 -0.5887
   71MOL   C27729817   1.782   7.522   0.755  0.5862 -0.3730 -0.0294
   71MOL   O27829818   1.800   7.620   0.823  0.6007 -0.0190 -0.0380
   71MOL   O27929819   1.867   7.432   0.729 -0.1497  0.1119 -0.2538
   71MOL   C28029820   1.996   7.434   0.796  0.6238  0.3138  0.2916
   71MOL   C28129821   2.072   7.310   0.757  0.3540  0.0525 -0.1154
   71MOL   C28229822   2.067   7.203   0.861  0.4376 -0.1422 -0.3998
   71MOL   C28329823   2.161   7.084   0.837  0.0420 -0.1893 -0.3529
   71MOL   H28429824   1.654   7.652   0.534 -2.5923  0.3660  0.4700
   71MOL   H28529825   1.744   7.511   0.500 -0.6493 -1.4606 -0.7271
   71MOL   H28629826   1.631   7.394   0.681 -0.7479  0.7220 -0.7740
   71MOL   H28729827   1.998   7.446   0.904  0.4730 -0.1503  0.3492
   71MOL   H28829828   2.043   7.526   0.761  0.8252 -0.5542 -1.7832
   71MOL   H28929829   2.034   7.261   0.667 -1.7466 -1.4305  1.5441
   71MOL   H29029830   2.174   7.344   0.739  0.0165 -0.1230 -2.5538
   71MOL   H29129831   1.969   7.159   0.883  0.8922 -0.2725  1.4704
   71MOL   H29229832   2.074   7.240   0.963  1.6045 -2.4221  0.3874
   71MOL   H29329833   2.227   7.108   0.754 -0.5841  2.2101 -0.1986
   71MOL   H29429834   2.097   6.998   0.817 -1.7894  1.1911 -0.6594
   71MOL   H29529835   2.236   7.071   0.914 -0.3929  0.9524  0.2822
   71MOL   C29629836   1.532   7.579   0.760 -0.2137 -0.2908 -0.5993
   71MOL   C29729837   1.501   7.565   0.907 -0.2620  0.1459 -0.4930
   71MOL   C29829838   1.422   7.686   0.962 -0.9976 -0.4007  0.5574
   71MOL   O29929839   1.331   7.729   0.893  0.0397  0.0903 -0.1085
   71MOL   O30029840   1.469   7.742   1.075  1.0837 -0.0146  0.0062
   71MOL   C30129841   1.390   7.843   1.134 -0.3656  0.0275  0.0141
   71MOL   C30229842   1.331   7.789   1.270  0.7189 -0.5094  0.0707
   71MOL   C30329843   1.433   7.724   1.374 -0.1295  0.5403 -0.4498
   71MOL   C30429844   1.365   7.669   1.503 -0.4489 -0.4315 -0.3072
   71MOL   H30529845   1.446   7.556   0.697  1.1269  0.7002 -2.8568
   71MOL   H30629846   1.556   7.685   0.751  3.5311 -1.1062 -1.1494
   71MOL   H30729847   1.598   7.582   0.954  0.5898  0.5791 -2.3789
   71MOL   H30829848   1.308   0.025   1.071 -0.5734 -0.8221 -0.1907
   71MOL   H30929849   1.454   0.078   1.144  0.0682 -0.3323  0.3731
   71MOL   H31029850   1.263   0.011   1.310  1.9787  1.0984 -0.7394
   71MOL   H31129851   1.264   7.711   1.235  1.9068 -1.0815 -0.9776
   71MOL   H31229852   1.502   7.797   1.415  0.4925 -0.4257  0.2485
   71MOL   H31329853   1.494   7.644   1.331 -3.0984 -1.1153 -1.7657
   71MOL   H31429854   1.317   7.740   1.571  0.2683  0.2570 -0.5141
   71MOL   H31529855   1.441   7.622   1.564 -0.4274  0.1477  0.1220
   71MOL   H31629856   1.289   7.597   1.472 -1.7907  0.3186  1.1610
   71MOL   C31729857   1.436   7.431   0.930 -0.0858  0.2198 -0.0198
   71MOL   C31829858   1.417   7.380   1.076  0.2681 -0.5941 -0.1910
   71MOL   C31929859   1.293   7.284   1.097  0.0976 -0.2050  0.5252
   71MOL   O32029860   1.254   7.251   1.207  0.4312  0.8536  0.1297
   71MOL   O32129861   1.245   7.246   0.983  0.1077  0.8363  0.5943
   71MOL   C32229862   1.139   7.156   0.979 -0.5405 -0.6590 -0.3861
   71MOL   C32329863   1.011   7.236   1.017  0.1935  0.0561  0.1074
   71MOL   C32429864   0.883   7.155   0.979  0.1124  0.1232 -0.1855
   71MOL   C32529865   0.762   7.221   1.050  0.1480  0.0761  0.0628
   71MOL   H32629866   1.482   7.357   0.865  1.8135  1.6970 -0.4122
   71MOL   H32729867   1.336   7.446   0.888 -0.7722 -0.4196  1.3676
   71MOL   H32829868   1.394   7.466   1.139  2.7153  0.3087 -0.4643
   71MOL   H32929869   1.143   7.062   1.034 -0.5237 -0.1672  0.4663
   71MOL   H33029870   1.144   7.122   0.875  0.4306 -2.2999  0.1721
   71MOL   H33129871   1.006   7.245   1.126 -0.5583 -0.4502  0.1136
   71MOL   H33229872   0.992   7.335   0.978 -0.5892  0.1094  0.6169
   71MOL   H33329873   0.892   7.058   1.027  2.0233 -0.6762 -2.0880
   71MOL   H33429874   0.878   7.137   0.871  3.2301 -2.7405  0.0733
   71MOL   H33529875   0.662   7.179   1.044 -0.4178  0.7775  3.8504
   71MOL   H33629876   0.747   7.315   0.997  1.7592 -0.8285 -2.1160
   71MOL   H33729877   0.779   7.245   1.155 -0.3082  0.0143  0.1510
   71MOL   C33829878   1.542   7.339   1.150 -0.5999  0.5791 -0.3077
   71MOL   C33929879   1.637   7.228   1.093  0.7434  0.0291 -0.2275
   71MOL   C34029880   1.758   7.232   1.188  0.5398 -0.3964  0.0578
   71MOL   O34129881   1.874   7.265   1.151  0.4902 -0.4991 -0.3156
   71MOL   O34229882   1.720   7.190   1.309  0.1114  0.1874 -0.6475
   71MOL   C34329883   1.821   7.184   1.412 -0.4770 -0.9864  0.3142
   71MOL   C34429884   1.757   7.128   1.540  0.3266 -0.1584 -0.5793
   71MOL   C34529885   1.722   6.979   1.534  0.1955  0.8408 -0.2912
   71MOL   C34629886   1.735   6.927   1.688  0.9087 -0.6194  0.7275
   71MOL   H34729887   1.514   7.320   1.253 -0.7780  0.1697 -0.4337
   71MOL   H34829888   1.589   7.438   1.147 -2.3416  1.3843 -3.9149
   71MOL   H34929889   1.681   7.265   1.001 -1.4636  3.9278  0.1751
   71MOL   H35029890   1.869   7.280   1.434  0.1521 -0.6776 -2.2554
   71MOL   H35129891   1.906   7.125   1.378 -0.8312 -1.6227  0.5229
   71MOL   H35229892   1.828   7.155   1.619  1.6154 -1.5271 -1.2444
   71MOL   H35329893   1.663   7.179   1.560  0.5031  0.4545 -1.3142
   71MOL   H35429894   1.783   6.922   1.464  0.2683  1.3628 -0.6585
   71MOL   H35529895   1.624   6.951   1.497  0.9146 -1.8842 -0.2854
   71MOL   H35629896   1.739   6.819   1.674  1.7705 -0.3789 -1.0216
   71MOL   H35729897   1.645   6.942   1.748 -1.0518  0.0579 -2.2812
   71MOL   H35829898   1.822   6.966   1.741  2.7531 -0.7919 -2.0951
   71MOL   C35929899   1.579   7.086   1.079  0.1047 -0.2220 -0.3960
   71MOL   C36029900   1.659   6.972   1.006  0.1311  0.1353 -0.5093
   71MOL   C36129901   1.692   6.999   0.858 -0.2877  0.1006 -0.5997
   71MOL   O36229902   1.804   6.975   0.816 -0.2975  0.1536  0.3377
   71MOL   O36329903   1.594   7.051   0.790 -0.0618 -0.4475 -0.1997
   71MOL   C36429904   1.611   7.086   0.657 -0.1723  0.4857  0.8601
   71MOL   C36529905   1.467   7.113   0.609 -0.9486 -0.6129 -0.5089
   71MOL   C36629906   1.368   6.998   0.627  0.2686  0.2468  1.2951
   71MOL   C36729907   1.225   7.024   0.584  0.4767  0.0617  0.4960
   71MOL   H36829908   1.484   7.102   1.029 -0.5529 -0.6367  0.7018
   71MOL   H36929909   1.569   7.048   1.181 -1.5949  0.3758 -0.3321
   71MOL   H37029910   1.586   6.893   0.985  1.5322 -1.0909 -0.8632
   71MOL   H37129911   1.669   7.015   0.597 -1.1734  0.3745  0.0070
   71MOL   H37229912   1.674   7.173   0.644  2.3677 -1.3771  0.3637
   71MOL   H37329913   1.421   7.200   0.656 -2.8219 -1.4081 -0.8157
   71MOL   H37429914   1.477   7.151   0.507  0.4477 -2.4240 -1.0824
   71MOL   H37529915   1.353   6.981   0.734  0.3635  0.2926  1.3159
   71MOL   H37629916   1.413   6.916   0.571  1.0417  0.1119  2.1068
   71MOL   H37729917   1.201   7.015   0.478  3.2482  1.3000 -0.2822
   71MOL   H37829918   1.191   7.123   0.615 -0.9209 -0.0578 -0.6209
   71MOL   H37929919   1.151   6.956   0.626 -0.8284  0.0461 -1.7705
   71MOL   C38029920   1.782   6.921   1.088 -0.3437  0.2280 -0.5526
   71MOL   C38129921   1.842   6.785   1.054 -0.2049  0.1274 -0.2192
   71MOL   C38229922   1.952   6.755   1.154  0.0553  0.1555 -0.0563
   71MOL   O38329923   2.066   6.719   1.117  0.1150  0.0543 -0.1648
   71MOL   O38429924   1.911   6.754   1.284  0.0643  0.5882  0.1010
   71MOL   C38529925   2.005   6.742   1.392 -0.6953  0.1715 -1.6340
   71MOL   C38629926   1.984   6.617   1.482  0.7971 -0.1179 -0.3039
   71MOL   C38729927   2.076   6.619   1.606 -0.2846  0.1144  0.1510
   71MOL   C38829928   2.080   6.485   1.676  0.4781  0.3603 -0.5624
   71MOL   H38929929   1.768   6.929   1.196  2.8910 -1.3719  0.0141
   71MOL   H39029930   1.857   6.999   1.073  0.0709 -0.5727 -2.8402
   71MOL   H39129931   1.886   6.769   0.956  0.2794 -3.3685  0.5300
   71MOL   H39229932   1.990   6.835   1.445  2.4711 -0.8920  1.3459
   71MOL   H39329933   2.106   6.735   1.350  0.0081 -1.2295  0.2523
   71MOL   H39429934   1.881   6.605   1.515  0.6704  0.0314 -0.6485
   71MOL   H39529935   1.992   6.528   1.419 -0.3860  0.6991 -1.6352
   71MOL   H39629936   2.026   6.685   1.676  0.4464  0.7301  0.0941
   71MOL   H39729937   2.177   6.654   1.585 -0.3934 -0.2802 -1.0734
   71MOL   H39829938   2.118   6.406   1.611  0.7858  1.0903 -1.2657
   71MOL   H39929939   1.984   6.445   1.707  0.1241  0.4942 -1.4662
   71MOL   H40029940   2.145   6.492   1.763  1.9043 -0.8661 -1.4857
   71MOL   C40129941   1.734   6.671   1.066  1.0021  0.1164  0.3361
   71MOL   C40229942   1.780   6.522   1.024 -0.8337 -0.6393 -0.3869
   71MOL   C40329943   1.769   6.479   0.880 -0.0786 -0.2915  0.1293
   71MOL   O40429944   1.862   6.423   0.819 -0.3922 -0.2418 -0.3751
   71MOL   O40529945   1.656   6.526   0.836  0.0970 -0.0137 -0.2058
   71MOL   C40629946   1.623   6.536   0.699 -0.8815  0.5086  0.2168
   71MOL   C40729947   1.721   6.644   0.627  0.2510  0.4538  0.4178
   71MOL   C40829948   1.657   6.691   0.495 -0.4237  0.7352 -0.1545
   71MOL   C40929949   1.752   6.773   0.405 -0.4646  0.5356  0.0882
   71MOL   H41029950   1.631   6.689   1.036  1.1497  0.9852  0.3440
   71MOL   H41129951   1.722   6.665   1.174  1.0291  3.0553  0.5301
   71MOL   H41229952   1.721   6.457   1.089 -0.2793  1.2418  2.0757
   71MOL   H41329953   1.519   6.568   0.690 -0.8652  0.3759 -0.4782
   71MOL   H41429954   1.636   6.444   0.642 -2.1082  0.6533 -0.3109
   71MOL   H41529955   1.736   6.729   0.694 -0.2528  1.4723 -0.7534
   71MOL   H41629956   1.819   6.601   0.609 -1.1938 -2.7367 -0.0921
   71MOL   H41729957   1.561   6.742   0.493 -0.5430  0.5074 -0.3484
   71MOL   H41829958   1.631   6.599   0.442  2.1853 -0.6706  0.9110
   71MOL   H41929959   1.793   6.843   0.479  2.3434 -1.4947  0.5099
   71MOL   H42029960   1.701   6.818   0.320 -0.4098 -0.0870 -0.2738
   71MOL   H42129961   1.839   6.716   0.373 -1.9406  0.7069 -4.4597
   71MOL   H42229962   1.884   6.508   1.053 -1.1997 -0.3251  1.0910
   72MOL     C129963   6.353   6.921   3.867 -0.3392 -0.1501  0.3666
   72MOL     C229964   6.396   6.788   3.932  0.0663 -0.5683 -0.4020
   72MOL     C329965   6.367   6.786   4.083  0.5401 -0.2654  0.2287
   72MOL     O429966   6.437   6.722   4.156 -0.4031 -0.4430  0.0494
   72MOL     O529967   6.254   6.835   4.128 -0.0467 -0.5527  0.1550
   72MOL     C629968   6.231   6.854   4.269  0.1847 -0.6848  0.1868
   72MOL     C729969   6.223   7.003   4.294  0.2056  0.7931  0.5116
   72MOL     C829970   6.127   7.079   4.202 -0.3836 -0.3626 -0.2586
   72MOL     C929971   6.127   7.226   4.239  0.1603  0.4867 -0.5554
   72MOL    H1029972   6.357   6.903   3.759 -1.9938 -1.0541  0.4316
   72MOL    H1129973   6.250   6.941   3.898  0.8858  2.4634  2.9929
   72MOL    H1229974   6.505   6.788   3.933  0.0654 -1.0872 -0.5464
   72MOL    H1329975   6.317   6.812   4.319 -0.8479 -1.5781  1.2453
   72MOL    H1429976   6.133   6.818   4.301  0.6346  0.5005  3.0067
   72MOL    H1529977   6.190   7.015   4.397  3.4989  0.7938  1.6327
   72MOL    H1629978   6.325   7.042   4.301  0.8060 -0.8435  0.9380
   72MOL    H1729979   6.025   7.051   4.232 -0.7081  0.1306 -0.9085
   72MOL    H1829980   6.154   7.075   4.097  6.0800  1.6541  1.1200
   72MOL    H1929981   6.121   7.237   4.348 -0.9246 -2.0310 -0.3123
   72MOL    H2029982   6.044   7.268   4.183 -0.1189 -0.6274 -0.9873
   72MOL    H2129983   6.220   7.278   4.217 -0.0901  0.4576 -1.6835
   72MOL    H2229984   6.411   7.007   3.899  1.2876 -2.1269  2.9469
   72MOL    C2329985   6.337   6.666   3.862  0.1371  0.3815 -0.1331
   72MOL    C2429986   6.179   6.657   3.864 -0.1054  0.2138  0.0733
   72MOL    C2529987   6.117   6.658   3.729  0.6812 -0.6511  0.8627
   72MOL    O2629988   6.065   6.759   3.683  0.1348  0.2649  0.3658
   72MOL    O2729989   6.124   6.538   3.667  0.2854  0.5181  0.1724
   72MOL    C2829990   6.039   6.522   3.551  0.1624  0.6660  0.3477
   72MOL    C2929991   6.043   6.383   3.476 -0.3391 -0.1051  0.3361
   72MOL    C3029992   5.956   6.273   3.538 -0.4580  0.0465  0.1863
   72MOL    C3129993   5.809   6.286   3.511  0.4342  0.2059  0.0217
   72MOL    H3229994   6.387   6.579   3.905 -1.3551  0.0486  0.9792
   72MOL    H3329995   6.378   6.658   3.761 -0.3538 -2.4772 -0.1715
   72MOL    H3429996   6.146   6.757   3.895 -2.1654  0.4317 -2.6104
   72MOL    H3529997   6.066   6.596   3.476  1.0829 -0.0535 -0.0411
   72MOL    H3629998   5.936   6.549   3.575 -0.3760 -0.9578 -0.0556
   72MOL    H3729999   6.018   6.377   3.370 -2.2630  0.1854  0.7545
   72MOL    H3830000   6.149   6.359   3.474 -0.3642 -0.2732  0.9004
   72MOL    H3930001   5.979   6.262   3.644  0.6591  0.0369 -0.0545
   72MOL    H4030002   5.990   6.185   3.483 -1.2992  1.0449 -2.0043
   72MOL    H4130003   5.749   6.209   3.560  0.4016  1.9158  2.7779
   72MOL    H4230004   5.788   6.283   3.404  0.6431 -1.3088  0.0174
   72MOL    H4330005   5.765   6.379   3.546  0.6449 -0.2280  1.4544
   72MOL    C4430006   6.135   6.532   3.949  1.0805 -0.2808 -1.3719
   72MOL    C4530007   5.991   6.534   4.003  0.2109  0.5564  0.7684
   72MOL    C4630008   5.966   6.667   4.069 -0.5294  0.9477  0.7453
   72MOL    O4730009   5.973   6.680   4.189 -0.3504  0.0902 -0.1051
   72MOL    O4830010   5.920   6.753   3.982  0.1879 -0.0011 -0.2393
   72MOL    C4930011   5.872   6.877   4.027 -0.0434 -0.3083  0.0917
   72MOL    C5030012   5.858   6.987   3.915  0.0702  0.2458  0.1602
   72MOL    C5130013   5.813   7.128   3.969  0.1206  0.2950  0.6211
   72MOL    C5230014   5.748   7.225   3.871 -0.4621  0.1989 -0.8419
   72MOL    H5330015   6.206   6.533   4.032 -0.0194 -1.4973 -0.3956
   72MOL    H5430016   6.154   6.445   3.887  0.9946  0.8666 -3.0536
   72MOL    H5530017   5.994   6.461   4.084 -2.8532 -0.8293 -0.2743
   72MOL    H5630018   5.937   6.912   4.108 -0.4168  0.2938  0.1345
   72MOL    H5730019   5.772   6.860   4.066  0.1705 -2.5958 -0.2827
   72MOL    H5830020   5.948   6.999   3.854 -0.2348  0.8783 -0.1630
   72MOL    H5930021   5.779   6.947   3.852  0.9986 -0.5013 -0.5397
   72MOL    H6030022   5.893   7.180   4.022  0.2802 -0.3176  0.9784
   72MOL    H6130023   5.742   7.108   4.049  2.5629 -0.9420  2.5466
   72MOL    H6230024   5.816   7.299   3.831  0.2707 -0.1680 -0.2864
   72MOL    H6330025   5.668   7.269   3.930  0.7614  1.0888  0.1721
   72MOL    H6430026   5.692   7.172   3.793 -1.6645 -0.7791  0.6495
   72MOL    C6530027   5.880   6.485   3.902 -0.9003  0.2440 -0.1467
   72MOL    C6630028   5.752   6.423   3.963 -0.3293 -0.5487  0.6487
   72MOL    C6730029   5.673   6.531   4.037  0.0478  0.5673  0.1825
   72MOL    O6830030   5.603   6.611   3.980 -0.4538  0.4995 -0.0325
   72MOL    O6930031   5.695   6.528   4.174  0.0297 -0.0341  0.6947
   72MOL    C7030032   5.624   6.614   4.260 -0.6260 -0.1865  0.3835
   72MOL    C7130033   5.656   6.571   4.406 -0.4658 -0.3003 -0.7403
   72MOL    C7230034   5.611   6.426   4.431 -0.2091 -0.1023 -0.3528
   72MOL    C7330035   5.632   6.388   4.582 -0.1930 -0.3740 -0.2596
   72MOL    H7430036   5.929   6.405   3.847  1.6558  0.9496  1.0306
   72MOL    H7530037   5.855   6.558   3.826 -2.3932  0.8012  0.8419
   72MOL    H7630038   5.791   6.356   4.040 -1.0462  0.4875  1.9454
   72MOL    H7730039   5.518   6.593   4.247 -0.0143 -4.2994  1.4695
   72MOL    H7830040   5.662   6.714   4.236 -0.6135  0.3961  2.7069
   72MOL    H7930041   5.763   6.578   4.427 -0.5416  0.7974 -0.6769
   72MOL    H8030042   5.607   6.645   4.469  1.0059  1.3592 -1.5104
   72MOL    H8130043   5.670   6.362   4.367 -1.0071 -0.3199 -0.8779
   72MOL    H8230044   5.506   6.418   4.402 -0.6823 -1.2862  1.5816
   72MOL    H8330045   5.584   6.298   4.620  0.3660 -0.3103  0.6161
   72MOL    H8430046   5.577   6.461   4.640 -0.8549 -1.5261  0.5850
   72MOL    H8530047   5.739   6.383   4.605 -0.0691  1.8866 -0.3179
   72MOL    C8630048   5.668   6.353   3.850  0.3850 -0.2843  0.2638
   72MOL    C8730049   5.582   6.230   3.906 -0.2604 -1.1160 -0.0032
   72MOL    C8830050   5.456   6.206   3.816 -0.5421 -0.1798 -0.7173
   72MOL    O8930051   5.343   6.223   3.868  0.2498  0.1844  0.0638
   72MOL    O9030052   5.481   6.177   3.692 -0.4884  0.3105 -0.0670
   72MOL    C9130053   5.375   6.131   3.610  0.0360 -0.6050 -0.0118
   72MOL    C9230054   5.397   6.156   3.460  0.0372 -0.3690 -0.0933
   72MOL    C9330055   5.301   6.077   3.377 -0.1126  0.1271 -0.0592
   72MOL    C9430056   5.327   6.102   3.233 -1.0235 -0.3815 -0.5800
   72MOL    H9530057   5.740   6.306   3.783 -0.9117 -3.3604  0.9286
   72MOL    H9630058   5.611   6.430   3.798  0.3020 -0.4029  0.1799
   72MOL    H9730059   5.536   6.267   3.998  0.7932 -0.4265  0.2546
   72MOL    H9830060   5.291   6.196   3.635  0.5481  1.0852 -2.5128
   72MOL    H9930061   5.349   6.027   3.628  1.7064 -0.9504  0.4457
   72MOL   H10030062   5.387   6.261   3.436  1.1489 -0.7463 -2.3733
   72MOL   H10130063   5.494   6.121   3.424  0.1892 -0.3608  0.3147
   72MOL   H10230064   5.198   6.112   3.384 -0.1109 -0.0209  0.7594
   72MOL   H10330065   5.315   5.970   3.394  0.6410 -0.0992 -2.0055
   72MOL   H10430066   5.240   6.075   3.172 -0.2372 -1.0495 -1.4166
   72MOL   H10530067   5.409   6.047   3.187 -1.6472 -3.1630  1.4803
   72MOL   H10630068   5.349   6.205   3.207  2.0465 -0.5326  1.3033
   72MOL   C10730069   5.654   6.095   3.931 -0.5462 -0.6700  0.2159
   72MOL   C10830070   5.710   6.084   4.076 -0.0040 -0.3006  0.0285
   72MOL   C10930071   5.596   6.060   4.174  0.4737  0.0723  0.8415
   72MOL   O11030072   5.482   6.036   4.139  0.2158  0.0556 -0.1100
   72MOL   O11130073   5.637   6.078   4.295 -0.1866 -0.2694  0.6186
   72MOL   C11230074   5.552   6.063   4.406 -1.2847 -0.6239  1.0626
   72MOL   C11330075   5.635   6.004   4.523 -0.2644  0.5793  0.1851
   72MOL   C11430076   5.694   5.860   4.498  0.4562 -0.2239 -0.1043
   72MOL   C11530077   5.758   5.809   4.628 -0.0560  0.5415 -1.0455
   72MOL   H11630078   5.733   6.088   3.856 -0.0344  0.1721  0.6744
   72MOL   H11730079   5.593   6.007   3.909 -1.0689 -0.7127  1.8104
   72MOL   H11830080   5.754   6.181   4.098  0.4153 -0.0767 -1.7162
   72MOL   H11930081   5.449   6.030   4.391 -1.2232 -0.8164  1.0632
   72MOL   H12030082   5.531   6.169   4.426 -1.1389 -0.3548 -0.2084
   72MOL   H12130083   5.719   6.073   4.529  0.3082 -0.1952  1.2626
   72MOL   H12230084   5.587   6.022   4.620 -0.3017  1.1615  0.0570
   72MOL   H12330085   5.777   5.854   4.428 -0.0725  0.6594 -0.8116
   72MOL   H12430086   5.620   5.792   4.454  2.1378 -0.9675 -1.8271
   72MOL   H12530087   5.785   5.704   4.615 -0.2834  0.5584 -1.6805
   72MOL   H12630088   5.694   5.807   4.717  1.5055  1.6022  0.1144
   72MOL   H12730089   5.848   5.863   4.655  0.7964  0.1610 -3.0502
   72MOL   C12830090   5.813   5.979   4.094  0.2817  0.0170  0.4173
   72MOL   C12930091   5.953   6.035   4.076  0.0848  0.4691 -0.3490
   72MOL   C13030092   5.997   6.092   4.208  0.6486 -0.1111 -0.0319
   72MOL   O13130093   6.059   6.028   4.298  0.7505  0.6983  0.4021
   72MOL   O13230094   5.956   6.222   4.215 -0.1233 -0.3949  0.2488
   72MOL   C13330095   5.967   6.296   4.334 -0.0348  0.4550  0.6814
   72MOL   C13430096   6.103   6.326   4.375 -0.1624  0.1514 -0.1694
   72MOL   C13530097   6.132   6.464   4.448  0.2004 -0.0759  1.1581
   72MOL   C13630098   6.268   6.473   4.517  0.6012 -0.0231 -0.2633
   72MOL   H13730099   5.781   5.904   4.021 -0.5226  1.6752 -0.9685
   72MOL   H13830100   5.798   5.932   4.191  2.5517  0.1764  0.8511
   72MOL   H13930101   5.945   6.110   3.998 -1.2351  3.5279  2.5959
   72MOL   H14030102   5.907   6.249   4.412 -1.4346  0.2928 -0.4808
   72MOL   H14130103   5.920   6.391   4.310  0.0615 -0.2346 -2.3620
   72MOL   H14230104   6.126   6.241   4.439 -0.4785 -0.6981 -1.1700
   72MOL   H14330105   6.162   6.328   4.283  1.4457  1.3148  0.8485
   72MOL   H14430106   6.056   6.484   4.524 -1.0975  1.5344 -0.4908
   72MOL   H14530107   6.119   6.542   4.372 -0.9796 -1.8023 -0.4373
   72MOL   H14630108   6.273   6.558   4.584  1.3056  0.8943 -1.4582
   72MOL   H14730109   6.340   6.479   4.435  0.7771 -1.2533 -0.2157
   72MOL   H14830110   6.281   6.382   4.575 -2.0648 -0.3969 -0.1771
   72MOL   C14930111   6.051   5.930   4.013  0.5002  0.0161  0.2611
   72MOL   C15030112   6.177   5.977   3.925 -0.5181  0.4357  0.7601
   72MOL   C15130113   6.248   6.091   3.996 -0.0890 -0.5927  0.1572
   72MOL   O15230114   6.224   6.206   3.968 -0.8039 -0.0480  0.0761
   72MOL   O15330115   6.332   6.041   4.089  0.2880  0.0933 -0.0288
   72MOL   C15430116   6.403   6.137   4.169 -0.1301  0.5491  0.0147
   72MOL   C15530117   6.533   6.183   4.115 -0.6614  0.4934  0.4296
   72MOL   C15630118   6.588   6.311   4.180 -0.2485 -0.9590  0.3955
   72MOL   C15730119   6.712   6.368   4.110 -0.2116  0.3922 -0.7441
   72MOL   H15830120   5.996   5.862   3.949 -1.2994  0.3590  1.3973
   72MOL   H15930121   6.080   5.858   4.090  0.8900 -0.3811 -0.2513
   72MOL   H16030122   6.127   6.036   3.848  2.1343  0.6282 -0.8601
   72MOL   H16130123   6.411   6.085   4.265 -1.2043  0.9000  0.3137
   72MOL   H16230124   6.336   6.222   4.187 -0.7379  0.5176 -2.0411
   72MOL   H16330125   6.598   6.097   4.128 -2.0161 -0.9111 -1.8087
   72MOL   H16430126   6.511   6.198   4.009  1.2005  1.1878  0.1271
   72MOL   H16530127   6.606   6.305   4.288 -2.7117 -2.1271  0.7775
   72MOL   H16630128   6.508   6.384   4.174  1.4292  0.8594 -0.4514
   72MOL   H16730129   6.741   6.466   4.148  1.3509 -1.0423  1.9417
   72MOL   H16830130   6.675   6.383   4.009  0.4286  0.1972 -1.0089
   72MOL   H16930131   6.797   6.301   4.118 -0.7645 -0.2356  0.1253
   72MOL   C17030132   6.267   5.863   3.881 -0.0557 -0.1116 -0.4049
   72MOL   C17130133   6.217   5.758   3.778  0.6642  0.3365 -0.2125
   72MOL   C17230134   6.170   5.821   3.647 -0.2346  0.8588 -0.2984
   72MOL   O17330135   6.230   5.910   3.586 -0.4236  0.2271  0.4732
   72MOL   O17430136   6.049   5.767   3.612 -0.6788 -0.4568  0.7457
   72MOL   C17530137   5.966   5.833   3.514 -0.2400 -0.6315  0.3334
   72MOL   C17630138   5.862   5.910   3.581  0.8165 -0.8678 -0.1930
   72MOL   C17730139   5.729   5.842   3.594 -0.2977  0.1994 -0.0531
   72MOL   C17830140   5.639   5.830   3.467 -0.1210  0.0110  0.5366
   72MOL   H17930141   6.278   5.810   3.976  0.0678  0.7695  0.0799
   72MOL   H18030142   6.369   5.892   3.857  1.1256 -1.5028  2.7218
   72MOL   H18130143   6.138   5.698   3.822  0.4790 -1.7492 -3.2182
   72MOL   H18230144   5.926   5.763   3.440  0.3470  0.8003 -1.3568
   72MOL   H18330145   6.040   5.893   3.462  1.0719 -1.8346  0.7864
   72MOL   H18430146   5.895   5.959   3.673 -0.0375  0.5292 -0.6119
   72MOL   H18530147   5.828   6.002   3.534 -0.6038 -0.1471  2.1548
   72MOL   H18630148   5.667   5.888   3.672 -2.3420 -0.0430 -1.4858
   72MOL   H18730149   5.746   5.737   3.618 -2.1243 -0.1657 -0.2322
   72MOL   H18830150   5.587   5.735   3.453  0.1495  0.1623 -1.6909
   72MOL   H18930151   5.694   5.832   3.373  0.1661  3.5991  0.6956
   72MOL   H19030152   5.551   5.895   3.471  0.5274  0.8413  1.6726
   72MOL   C19130153   6.330   5.657   3.738 -1.4162 -0.3504 -0.7153
   72MOL   C19230154   6.400   5.568   3.850  0.2361 -0.2768 -0.5743
   72MOL   C19330155   6.291   5.492   3.930 -0.4997 -0.1829 -0.3583
   72MOL   O19430156   6.192   5.439   3.880  0.2333 -0.1763 -0.5963
   72MOL   O19530157   6.317   5.497   4.067  0.2579 -0.3841  0.4060
   72MOL   C19630158   6.249   5.410   4.151 -0.0646 -0.1991  0.2650
   72MOL   C19730159   6.166   5.490   4.250 -0.2534 -0.2638 -0.3633
   72MOL   C19830160   6.036   5.556   4.194 -0.1420  0.3099  0.8337
   72MOL   C19930161   5.919   5.587   4.293  0.7601  0.5602  0.6353
   72MOL   H20030162   6.410   5.700   3.678  0.4533  0.6379  2.3949
   72MOL   H20130163   6.284   5.578   3.678  1.1239 -2.9763  0.6908
   72MOL   H20230164   6.446   5.639   3.919  0.8965 -0.8632 -0.4079
   72MOL   H20330165   6.319   5.355   4.214 -1.0495  0.6446  2.1443
   72MOL   H20430166   6.193   5.333   4.099  1.1260 -1.0609  0.2495
   72MOL   H20530167   6.134   5.417   4.325  0.7935 -1.6771 -1.2716
   72MOL   H20630168   6.229   5.563   4.301 -0.5521  1.3250 -2.2023
   72MOL   H20730169   5.993   5.476   4.133  0.5790 -1.8692  3.1425
   72MOL   H20830170   6.051   5.647   4.136 -2.6009  0.9165  1.0633
   72MOL   H20930171   5.950   5.668   4.359  1.7251 -1.2777  2.5146
   72MOL   H21030172   5.897   5.497   4.350  0.9060 -0.5737 -1.0628
   72MOL   H21130173   5.825   5.613   4.246  1.1681 -0.7697 -0.9673
   72MOL   C21230174   6.518   5.473   3.805 -0.5475 -0.4561  0.2247
   72MOL   C21330175   6.624   5.447   3.922 -0.1718 -0.0913  0.2585
   72MOL   C21430176   6.638   5.295   3.958 -0.0568  0.0508  0.1811
   72MOL   O21530177   6.563   5.247   4.034 -0.4217 -0.0615  0.1121
   72MOL   O21630178   6.716   5.227   3.874 -0.1754 -0.0674 -0.4737
   72MOL   C21730179   6.714   5.089   3.872  0.5905 -0.1058 -0.2514
   72MOL   C21830180   6.751   5.042   3.733 -0.6845 -0.2720  0.1809
   72MOL   C21930181   6.658   5.083   3.623  0.7859  0.7327 -0.1450
   72MOL   C22030182   6.716   5.056   3.487  0.2198 -0.6107 -0.8970
   72MOL   H22130183   6.574   5.523   3.726  1.0453 -1.3719  0.7378
   72MOL   H22230184   6.467   5.382   3.772 -0.8492 -0.9963  2.0941
   72MOL   H22330185   6.586   5.502   4.008  2.1160 -2.0868  2.6490
   72MOL   H22430186   6.614   5.053   3.896  0.4971  1.0779  1.2771
   72MOL   H22530187   6.791   5.064   3.945 -0.3448  0.3921  0.9243
   72MOL   H22630188   6.853   5.076   3.717  0.0492 -2.0078  0.9085
   72MOL   H22730189   6.765   4.933   3.737  3.1187  0.1336  0.3958
   72MOL   H22830190   6.636   5.189   3.635  2.0822  0.7210  2.5091
   72MOL   H22930191   6.564   5.027   3.629  2.0111 -1.2902  0.4303
   72MOL   H23030192   6.820   5.085   3.478  0.4934 -0.9747  0.9587
   72MOL   H23130193   6.656   5.099   3.406  0.3476  0.4619 -0.4269
   72MOL   H23230194   6.717   4.948   3.470 -0.2509 -1.0362  1.6128
   72MOL   C23330195   6.757   5.520   3.878 -0.4521  0.0315 -0.5664
   72MOL   C23430196   6.865   5.571   3.977  0.2125  0.1769 -0.0743
   72MOL   C23530197   6.943   5.463   4.051 -0.2124 -0.2123  0.4561
   72MOL   O23630198   7.011   5.386   3.984  0.0016 -0.2772  0.8766
   72MOL   O23730199   6.927   5.464   4.176 -0.1667  0.1455 -0.6159
   72MOL   C23830200   6.999   5.371   4.258 -0.5128 -0.1249  0.3075
   72MOL   C23930201   7.108   5.453   4.334  0.5915 -0.4715 -0.2768
   72MOL   C24030202   7.239   5.458   4.249  0.5551  0.0267 -0.1241
   72MOL   C24130203   7.314   5.587   4.296  0.0540  0.2429  0.2974
   72MOL   H24230204   6.728   5.613   3.829 -0.5403 -0.2486 -1.0465
   72MOL   H24330205   6.795   5.468   3.790 -0.5440  0.8551 -1.0986
   72MOL   H24430206   6.803   5.622   4.052  2.8513  4.0952 -0.3936
   72MOL   H24530207   7.038   5.289   4.198 -1.1702  0.2669 -0.6618
   72MOL   H24630208   6.914   5.339   4.318 -2.1795 -1.3321 -2.6020
   72MOL   H24730209   7.079   5.553   4.363 -1.0363 -1.5231  1.8469
   72MOL   H24830210   7.141   5.405   4.426 -0.0384 -0.1015  0.1427
   72MOL   H24930211   7.215   5.454   4.142  0.9509 -1.9959 -0.1643
   72MOL   H25030212   7.290   5.363   4.264  1.0460 -0.0971 -2.4025
   72MOL   H25130213   7.312   5.600   4.405  0.0815 -0.7415  0.4163
   72MOL   H25230214   7.260   5.675   4.259 -1.1886 -1.2839 -1.6010
   72MOL   H25330215   7.419   5.591   4.270  0.3702  0.0215  1.4959
   72MOL   C25430216   6.965   5.667   3.915 -0.5064  0.0233  0.1488
   72MOL   C25530217   6.977   5.814   3.966  0.1481  0.2404 -0.2676
   72MOL   C25630218   6.852   5.892   3.927  0.3108 -0.2646  0.3233
   72MOL   O25730219   6.761   5.918   4.000 -0.3269  0.5278  0.4926
   72MOL   O25830220   6.853   5.926   3.791 -0.1637  0.1759  0.0105
   72MOL   C25930221   6.744   5.995   3.733 -0.5200  0.6849 -0.0495
   72MOL   C26030222   6.654   5.890   3.667 -0.3472  0.4830  0.2133
   72MOL   C26130223   6.728   5.805   3.556  0.2248 -0.0250 -0.4036
   72MOL   C26230224   6.637   5.741   3.451  0.3741  0.3048  0.3653
   72MOL   H26330225   6.952   5.662   3.807 -0.2112  1.2397  0.0470
   72MOL   H26430226   7.062   5.620   3.931 -1.0556 -0.4668  2.2504
   72MOL   H26530227   7.058   5.870   3.919  0.7254  0.0254  0.4594
   72MOL   H26630228   6.777   6.070   3.661 -1.2792  1.2204  0.1500
   72MOL   H26730229   6.696   6.044   3.817 -1.4280  0.6474 -0.5303
   72MOL   H26830230   6.618   5.824   3.746  0.8125 -1.2252 -0.6240
   72MOL   H26930231   6.562   5.935   3.631  0.2069  1.0593 -0.4778
   72MOL   H27030232   6.786   5.727   3.607  2.8439  1.4659 -0.9721
   72MOL   H27130233   6.802   5.872   3.511 -0.6582  0.0926 -1.6884
   72MOL   H27230234   6.568   5.660   3.476  0.5562 -0.0010 -0.1324
   72MOL   H27330235   6.704   5.700   3.376  0.5024  1.1260  0.0255
   72MOL   H27430236   6.582   5.820   3.400  1.8210  0.0416 -1.6245
   72MOL   C27530237   7.013   5.827   4.118 -0.8870 -0.4201 -0.5345
   72MOL   C27630238   7.036   5.974   4.156 -0.0778 -0.0567 -0.2075
   72MOL   C27730239   7.010   5.986   4.310  0.0292 -0.1548  0.1113
   72MOL   O27830240   7.040   5.891   4.381  0.1291  0.4105  0.4120
   72MOL   O27930241   6.955   6.104   4.349 -0.3457 -0.4367 -0.7989
   72MOL   C28030242   6.931   6.134   4.489  0.3396 -0.1066 -0.2897
   72MOL   C28130243   6.805   6.071   4.544  0.5182 -0.0107  0.2021
   72MOL   C28230244   6.677   6.088   4.464 -0.4648 -0.6676  0.4035
   72MOL   C28330245   6.576   5.990   4.509 -0.1468 -0.3272 -0.1242
   72MOL   H28430246   7.091   5.758   4.151 -1.8260 -0.1966  2.2483
   72MOL   H28530247   6.925   5.793   4.172  0.8292 -2.0110  1.3535
   72MOL   H28630248   6.955   6.033   4.114 -0.5919 -0.1633  0.6080
   72MOL   H28730249   6.921   6.243   4.485  0.7182 -0.0584  0.0088
   72MOL   H28830250   7.005   6.108   4.566 -1.0197  0.8792  1.4010
   72MOL   H28930251   6.823   5.966   4.565 -0.9422 -0.7379 -2.0812
   72MOL   H29030252   6.778   6.110   4.643 -0.2044 -0.8699  0.3460
   72MOL   H29130253   6.697   6.067   4.359 -1.2687 -0.3329  0.1741
   72MOL   H29230254   6.631   6.186   4.463  0.6666 -0.1208  0.9315
   72MOL   H29330255   6.479   6.000   4.461  0.6080  0.3908 -1.5497
   72MOL   H29430256   6.542   5.997   4.612  0.4558 -1.4358  0.1558
   72MOL   H29530257   6.614   5.890   4.491 -1.5374 -1.0485  0.8710
   72MOL   C29630258   7.171   6.020   4.101 -0.6456  0.7306  0.5613
   72MOL   C29730259   7.195   6.167   4.128  0.2870  0.1652  0.3436
   72MOL   C29830260   7.340   6.214   4.122  0.2142  0.0871 -0.6227
   72MOL   O29930261   7.412   6.207   4.227 -0.6756 -0.0131 -0.6923
   72MOL   O30030262   7.383   6.232   3.999 -0.3486 -0.1572  0.1780
   72MOL   C30130263   7.521   6.270   3.986 -0.3792  0.3219 -0.5578
   72MOL   C30230264   7.519   6.421   3.943  0.7498 -0.0635 -0.1487
   72MOL   C30330265   7.436   6.485   3.828  0.1093  0.1446  0.3737
   72MOL   C30430266   7.420   6.636   3.838  0.6827  0.0027 -0.5532
   72MOL   H30530267   7.184   6.011   3.993 -5.3152  0.2451 -0.0850
   72MOL   H30630268   7.252   5.953   4.129 -1.0521 -0.6349 -1.3933
   72MOL   H30730269   7.164   6.181   4.231  0.0037  0.6896  0.1907
   72MOL   H30830270   7.572   6.202   3.917  1.2636  2.4033 -1.4360
   72MOL   H30930271   7.576   6.268   4.080  0.1400  4.8084 -0.6750
   72MOL   H31030272   7.489   6.480   4.030 -0.1485  1.8607 -1.7225
   72MOL   H31130273   7.619   6.462   3.928  0.4296  0.2795 -1.3990
   72MOL   H31230274   7.334   6.448   3.816  0.2422 -1.3650  3.3996
   72MOL   H31330275   7.479   6.468   3.729 -0.3475  0.1799  0.1689
   72MOL   H31430276   7.322   6.666   3.802  1.7498  2.5010 -1.5107
   72MOL   H31530277   7.504   6.689   3.793  0.0689  1.0774 -0.4517
   72MOL   H31630278   7.400   6.655   3.943  1.7321  0.3294 -0.4120
   72MOL   C31730279   7.102   6.263   4.037 -0.0590 -0.0814  0.3632
   72MOL   C31830280   7.110   6.412   4.076 -0.5167  0.5172 -1.3635
   72MOL   C31930281   7.037   6.509   3.982  0.1683 -0.3581  0.5533
   72MOL   O32030282   6.948   6.465   3.910  0.7521  0.0231 -0.1844
   72MOL   O32130283   7.081   6.636   3.986  0.3740  0.0383  0.3783
   72MOL   C32230284   7.022   6.718   3.887  0.4164  0.3963  0.2072
   72MOL   C32330285   6.940   6.824   3.955 -0.0333 -0.4678 -0.6437
   72MOL   C32430286   6.825   6.760   4.030  0.1131 -0.2525 -0.1850
   72MOL   C32530287   6.735   6.883   4.072 -0.6131 -0.3954  0.0358
   72MOL   H32630288   7.001   6.221   4.037  0.2595 -0.8568  0.3848
   72MOL   H32730289   7.136   6.246   3.934  0.7442  1.3649  0.3747
   72MOL   H32830290   7.217   6.432   4.068 -0.2282 -0.2155  0.5676
   72MOL   H32930291   6.957   6.670   3.815 -0.5655  1.1806  0.5510
   72MOL   H33030292   7.103   6.757   3.826 -0.4984 -0.4416 -1.5552
   72MOL   H33130293   6.996   6.888   4.023  0.6119  1.2687 -2.7578
   72MOL   H33230294   6.899   6.887   3.876 -0.4515  0.7531  0.5260
   72MOL   H33330295   6.854   6.708   4.121 -0.9850  0.8699  0.8161
   72MOL   H33430296   6.764   6.701   3.963 -0.9253 -0.7104  1.1496
   72MOL   H33530297   6.659   6.837   4.136 -0.7849 -1.7380 -1.1154
   72MOL   H33630298   6.693   6.934   3.986 -0.1982 -0.0825  0.0199
   72MOL   H33730299   6.794   6.955   4.129  1.4366 -1.2035 -1.0182
   72MOL   C33830300   7.052   6.433   4.220 -0.2145 -0.2160 -0.3475
   72MOL   C33930301   7.152   6.495   4.320  0.2800 -0.0444  0.4695
   72MOL   C34030302   7.179   6.644   4.286  0.2177  0.3021  0.2475
   72MOL   O34130303   7.287   6.676   4.237 -0.3128 -0.1120  0.5754
   72MOL   O34230304   7.075   6.725   4.305  0.1685 -0.2324 -0.1442
   72MOL   C34330305   7.086   6.869   4.296 -0.5600  1.0747  0.9490
   72MOL   C34430306   6.981   6.945   4.384 -0.3932 -0.6590 -1.0144
   72MOL   C34530307   6.993   6.909   4.531 -0.2645 -0.4173 -0.6693
   72MOL   C34630308   7.133   6.958   4.597  0.4521  0.5037 -0.1825
   72MOL   H34730309   7.000   6.343   4.254  0.3911 -1.2555 -2.1157
   72MOL   H34830310   6.966   6.500   4.215  0.6786  0.8574 -2.0733
   72MOL   H34930311   7.242   6.435   4.306 -0.3952 -0.8327 -0.5743
   72MOL   H35030312   7.068   6.907   4.196  0.0470 -0.4160  0.2657
   72MOL   H35130313   7.191   6.891   4.315 -0.4441  0.6834  0.7660
   72MOL   H35230314   6.990   7.052   4.366 -1.1996 -0.5155 -0.6179
   72MOL   H35330315   6.879   6.926   4.350 -0.6052  1.4183 -1.5991
   72MOL   H35430316   6.982   6.802   4.550 -2.1439 -0.0500  0.4141
   72MOL   H35530317   6.912   6.955   4.588  1.4150  0.0808  1.3593
   72MOL   H35630318   7.127   6.954   4.705  1.0075 -1.4641 -0.1962
   72MOL   H35730319   7.142   7.062   4.565  1.4747  0.4517 -0.0860
   72MOL   H35830320   7.211   6.898   4.550  0.9402  1.0971 -0.1425
   72MOL   C35930321   7.111   6.486   4.473  0.3177  0.0149  0.0687
   72MOL   C36030322   7.211   6.546   4.581 -0.7162  0.4310  0.1301
   72MOL   C36130323   7.142   6.535   4.721  0.8691 -0.3653  0.0065
   72MOL   O36230324   7.123   6.428   4.781 -0.2379  0.0492 -0.3342
   72MOL   O36330325   7.109   6.659   4.767  0.3453  0.3101 -0.4076
   72MOL   C36430326   7.047   6.672   4.894 -0.4323  0.3495  0.1097
   72MOL   C36530327   6.930   6.771   4.900 -0.1044 -0.7543 -0.2768
   72MOL   C36630328   6.847   6.768   5.031  0.5048 -0.3025 -0.8725
   72MOL   C36730329   6.924   6.820   5.156  0.5237 -0.2141 -0.0579
   72MOL   H36830330   7.102   6.380   4.498 -1.7055 -0.3293 -1.9104
   72MOL   H36930331   7.019   6.540   4.497  0.4473 -0.3710  1.4841
   72MOL   H37030332   7.233   6.649   4.555  0.4069  0.3154  0.6001
   72MOL   H37130333   7.116   6.722   4.962 -0.5736  1.4488 -0.5475
   72MOL   H37230334   7.026   6.576   4.942 -1.2106  0.1597 -0.6040
   72MOL   H37330335   6.965   6.873   4.884 -0.7667 -0.6513 -1.1578
   72MOL   H37430336   6.872   6.756   4.808 -0.9734 -0.5635  0.2308
   72MOL   H37530337   6.804   6.671   5.055  1.4055 -0.7611 -1.1090
   72MOL   H37630338   6.775   6.850   5.020  0.8508  0.4373  1.9907
   72MOL   H37730339   6.849   6.866   5.220  2.3794  1.1526  1.1791
   72MOL   H37830340   6.984   6.903   5.120  0.8467 -0.5523 -0.3018
   72MOL   H37930341   6.982   6.750   5.217  0.2812 -2.6475 -2.4961
   72MOL   C38030342   7.338   6.458   4.586  0.3113  0.2838 -0.0661
   72MOL   C38130343   7.472   6.522   4.646  0.4731  0.5181  0.0539
   72MOL   C38230344   7.505   6.663   4.599 -0.6619  0.9177  0.9994
   72MOL   O38330345   7.442   6.755   4.648  0.1081  0.6040  0.2369
   72MOL   O38430346   7.605   6.670   4.502 -0.4260 -0.0289  0.0428
   72MOL   C38530347   7.647   6.792   4.453 -0.7383 -0.1897 -0.2917
   72MOL   C38630348   7.756   6.767   4.348  0.1946 -0.2211 -0.6084
   72MOL   C38730349   7.702   6.691   4.215 -0.0418  0.5601  0.2086
   72MOL   C38830350   7.835   6.665   4.128 -0.1247 -0.8449  0.4836
   72MOL   H38930351   7.361   6.439   4.481  1.2563  2.0201 -0.1859
   72MOL   H39030352   7.309   6.359   4.623 -0.6482 -0.4556 -2.6561
   72MOL   H39130353   7.554   6.456   4.614 -2.6455 -1.4091 -4.5455
   72MOL   H39230354   7.698   6.849   4.531 -3.9531  2.9450 -0.3696
   72MOL   H39330355   7.555   6.843   4.424 -1.8764 -1.1577  1.4836
   72MOL   H39430356   7.788   6.868   4.326 -1.5840  0.4161 -0.3138
   72MOL   H39530357   7.844   6.728   4.400  1.5016 -0.7312 -3.1214
   72MOL   H39630358   7.641   6.766   4.165 -0.1944 -0.5777 -1.3142
   72MOL   H39730359   7.652   6.602   4.252 -0.0214  1.2997  2.0948
   72MOL   H39830360   7.808   6.591   4.053  1.2401 -2.2422  1.3347
   72MOL   H39930361   0.062   6.621   4.188  0.8945 -0.3928 -0.5163
   72MOL   H40030362   0.023   6.750   4.075 -0.5206 -1.3245 -0.6053
   72MOL   C40130363   7.466   6.515   4.802  0.3935 -0.0631 -0.3061
   72MOL   C40230364   7.597   6.555   4.874 -0.4851 -0.0729 -0.3708
   72MOL   C40330365   7.620   6.501   5.009 -0.1815 -0.5619  0.3551
   72MOL   O40430366   7.733   6.466   5.046 -0.0201  0.1693 -0.3063
   72MOL   O40530367   7.510   6.506   5.095  0.2173 -0.2458  0.2607
   72MOL   C40630368   7.520   6.441   5.224  0.2489  0.2161  0.5525
   72MOL   C40730369   7.381   6.381   5.263 -0.6986  0.4752 -0.0215
   72MOL   C40830370   7.301   6.482   5.322 -0.0384 -0.4859  0.1891
   72MOL   C40930371   7.175   6.441   5.393  0.5811  0.2663 -0.0624
   72MOL   H41030372   7.434   6.413   4.822  0.8798 -0.1190  0.1919
   72MOL   H41130373   7.383   6.581   4.829 -0.4961 -1.3313  0.1252
   72MOL   H41230374   7.609   6.660   4.898  0.5150 -0.5106  1.1238
   72MOL   H41330375   7.553   6.524   5.286  2.2780 -0.3422  0.2560
   72MOL   H41430376   7.592   6.359   5.215 -0.1416 -0.0496 -0.2878
   72MOL   H41530377   7.334   6.340   5.173  0.4118 -1.2637  0.1647
   72MOL   H41630378   7.402   6.305   5.338 -1.3484  0.2027 -0.1046
   72MOL   H41730379   7.267   6.554   5.248  0.4414  0.5645  0.9894
   72MOL   H41830380   7.353   6.537   5.399  0.5468 -1.5661  0.5845
   72MOL   H41930381   7.187   6.402   5.495 -0.8041  0.3047  0.1248
   72MOL   H42030382   7.126   6.366   5.330 -0.0206  1.9113 -1.5875
   72MOL   H42130383   7.102   6.522   5.396  0.7898  0.4884 -1.0237
   72MOL   H42230384   7.680   6.525   4.810  0.3760  0.9258  0.2652
   73MOL     C130385   0.498   4.274   2.506 -0.1031 -0.3814  0.1568
   73MOL     C230386   0.360   4.326   2.547 -0.2157 -0.5889 -0.4053
   73MOL     C330387   0.271   4.209   2.593 -0.5339 -0.2706 -0.6963
   73MOL     O430388   0.306   4.093   2.583 -0.3239 -0.7508  0.0434
   73MOL     O530389   0.156   4.253   2.633  0.1941 -0.1995  0.1354
   73MOL     C630390   0.053   4.154   2.665 -0.1216  0.6097  0.3056
   73MOL     C730391   7.819   4.118   2.539  1.2223 -0.0869  0.5152
   73MOL     C830392   7.785   4.248   2.463  0.4904  0.4592  0.2911
   73MOL     C930393   7.680   4.237   2.344 -0.3301  0.7271  0.1430
   73MOL    H1030394   0.551   4.356   2.458 -1.4879 -1.5242 -3.5390
   73MOL    H1130395   0.547   4.228   2.592  0.4052  0.5320  0.3539
   73MOL    H1230396   0.310   4.378   2.466  1.4426  0.7892 -0.5672
   73MOL    H1330397   7.850   4.194   2.749  0.9180 -1.5623  2.0938
   73MOL    H1430398   0.097   4.062   2.705 -2.5606 -1.4137 -1.4737
   73MOL    H1530399   0.013   4.044   2.474  0.7433  0.2443 -0.2185
   73MOL    H1630400   7.727   4.070   2.574  0.1396  0.8859 -0.9517
   73MOL    H1730401   0.026   4.291   2.430  1.2292 -0.7892  0.7293
   73MOL    H1830402   7.743   4.319   2.533 -0.9113  0.4187 -0.4738
   73MOL    H1930403   7.585   4.193   2.375 -0.1367 -0.0854 -0.4072
   73MOL    H2030404   7.735   4.179   2.270  2.2971  1.5587  1.4172
   73MOL    H2130405   7.665   4.337   2.303 -0.1897  0.1630 -1.3377
   73MOL    H2230406   0.484   4.195   2.432  0.2183 -1.2531  1.0122
   73MOL    C2330407   0.383   4.429   2.658  0.2653  0.1026 -0.2645
   73MOL    C2430408   0.271   4.526   2.691 -0.4490  0.1593 -0.0886
   73MOL    C2530409   0.292   4.589   2.830 -0.3541  0.1462  0.1398
   73MOL    O2630410   0.203   4.582   2.920  0.2077 -0.4474  0.5943
   73MOL    O2730411   0.405   4.649   2.833 -0.6118 -0.7045  0.0445
   73MOL    C2830412   0.446   4.713   2.952 -0.1717 -0.2366 -0.4548
   73MOL    C2930413   0.573   4.789   2.915 -0.2197 -0.2277  0.5480
   73MOL    C3030414   0.681   4.687   2.889  0.0132 -0.4025 -0.0753
   73MOL    C3130415   0.825   4.743   2.913  0.2417 -0.4794  0.5013
   73MOL    H3230416   0.470   4.490   2.633  1.9487 -1.9598  0.4563
   73MOL    H3330417   0.405   4.372   2.748 -0.1197  0.2277 -0.0866
   73MOL    H3430418   0.188   4.463   2.722 -1.2260  1.0441 -0.3330
   73MOL    H3530419   0.453   4.633   3.026 -1.5667 -0.5845 -0.6786
   73MOL    H3630420   0.370   4.785   2.984 -0.5171 -1.4742  1.6287
   73MOL    H3730421   0.558   4.852   2.827  0.7132 -1.1208 -0.2678
   73MOL    H3830422   0.595   4.859   2.995  3.4902 -0.1566 -0.4375
   73MOL    H3930423   0.656   4.656   2.788 -1.2627 -0.1730  0.1537
   73MOL    H4030424   0.659   4.593   2.941 -0.6017 -0.2724 -0.0887
   73MOL    H4130425   0.838   4.848   2.885  3.4548 -0.4926  1.6685
   73MOL    H4230426   0.895   4.685   2.852 -0.2971 -0.1009 -0.4866
   73MOL    H4330427   0.861   4.727   3.014  0.0456  0.1936  0.6831
   73MOL    C4430428   0.254   4.628   2.573 -0.3088  0.3307 -0.0995
   73MOL    C4530429   0.122   4.712   2.607 -0.0359 -0.6348  0.0363
   73MOL    C4630430   0.135   4.864   2.569  0.2988  0.3214 -0.9561
   73MOL    O4730431   0.046   4.927   2.515  0.6025  0.8446  0.1852
   73MOL    O4830432   0.245   4.912   2.608 -0.2952 -0.1587 -0.2221
   73MOL    C4930433   0.262   5.053   2.613 -0.0033 -0.1892  0.0241
   73MOL    C5030434   0.223   5.114   2.749 -0.6231  0.7547 -0.7737
   73MOL    C5130435   0.293   5.047   2.863 -0.4303 -0.0219 -0.4184
   73MOL    C5230436   0.259   5.104   3.001 -0.2636  0.0852 -0.2941
   73MOL    H5330437   0.229   4.570   2.484 -0.7972 -0.2908  0.4342
   73MOL    H5430438   0.350   4.678   2.566  0.0516 -0.2933  0.2905
   73MOL    H5530439   0.105   4.716   2.715  1.1826  0.6149  0.2068
   73MOL    H5630440   0.199   5.105   2.541  0.3244  1.7524  1.1064
   73MOL    H5730441   0.366   5.080   2.595 -0.8572  0.5883 -4.3754
   73MOL    H5830442   0.258   5.217   2.748 -1.5110  1.0677 -2.0996
   73MOL    H5930443   0.116   5.125   2.770 -0.3106 -1.3834  2.2583
   73MOL    H6030444   0.402   5.046   2.853 -0.1935 -0.5525  1.9145
   73MOL    H6130445   0.270   4.940   2.864  1.6019 -0.4897 -0.3466
   73MOL    H6230446   0.150   5.109   3.004 -0.1799  1.8577  0.1697
   73MOL    H6330447   0.295   5.205   3.018 -0.5840 -0.2194  2.4428
   73MOL    H6430448   0.296   5.037   3.078  0.3945 -3.6325 -3.6863
   73MOL    C6530449   7.847   4.659   2.543 -0.2183  0.0293  0.1716
   73MOL    C6630450   7.735   4.624   2.634 -0.5853  0.1375 -0.2718
   73MOL    C6730451   7.698   4.748   2.715 -0.3102  0.5894  0.4401
   73MOL    O6830452   7.629   4.832   2.669  0.3399  0.4500  0.3015
   73MOL    O6930453   7.757   4.752   2.834 -0.1183  0.1090 -0.1823
   73MOL    C7030454   7.767   4.868   2.911  0.5469 -0.6680 -0.8521
   73MOL    C7130455   7.828   4.835   3.048  0.0582  0.4559  0.7650
   73MOL    C7230456   7.753   4.740   3.137 -0.4793  0.2694  0.1705
   73MOL    C7330457   7.612   4.787   3.170  0.4220  0.1363  0.1492
   73MOL    H7430458   0.023   4.567   2.492 -1.6324 -0.4521  0.2233
   73MOL    H7530459   7.805   4.718   2.462 -0.3638  0.4216  0.5334
   73MOL    H7630460   7.781   4.559   2.709  1.0945  2.2644  0.6009
   73MOL    H7730461   7.670   4.912   2.933  0.8778 -0.8368  0.9525
   73MOL    H7830462   7.830   4.942   2.862 -0.7541  0.2563 -1.1820
   73MOL    H7930463   0.069   4.782   3.031  0.6666  0.9655  2.3993
   73MOL    H8030464   0.004   4.931   3.091 -0.3733  0.8275  0.2336
   73MOL    H8130465   7.820   4.721   3.221 -1.1856  0.1604  0.7125
   73MOL    H8230466   7.746   4.640   3.094 -0.0752 -0.2355  1.2578
   73MOL    H8330467   7.575   4.712   3.240  0.4022 -1.8537 -1.9252
   73MOL    H8430468   7.548   4.784   3.082  0.0439 -0.9319  0.4490
   73MOL    H8530469   7.611   4.886   3.215  0.6796  1.7235 -3.2034
   73MOL    C8630470   7.617   4.569   2.552 -0.0251  0.1943  0.6065
   73MOL    C8730471   7.500   4.505   2.636  0.2076  0.0465  0.3338
   73MOL    C8830472   7.381   4.491   2.546  0.1973  0.2754 -0.3078
   73MOL    O8930473   7.276   4.558   2.567  0.0584 -0.1310  0.0628
   73MOL    O9030474   7.406   4.412   2.436  0.1213 -0.2788  0.1360
   73MOL    C9130475   7.306   4.386   2.336 -0.1846 -0.1675 -0.5907
   73MOL    C9230476   7.235   4.257   2.340 -0.2373  0.0449  0.5136
   73MOL    C9330477   7.325   4.139   2.300 -0.3182 -0.4424 -0.0178
   73MOL    C9430478   7.394   4.148   2.161 -0.4020  0.3556  0.3234
   73MOL    H9530479   7.645   4.496   2.475  1.4200  0.0253  1.2785
   73MOL    H9630480   7.573   4.654   2.500  0.0239  0.1932  0.5617
   73MOL    H9730481   7.445   4.576   2.698 -1.9618 -1.5640  0.3003
   73MOL    H9830482   7.336   4.404   2.233  1.3317  2.5259  0.2643
   73MOL    H9930483   7.226   4.460   2.343  0.3544  0.3351  0.4246
   73MOL   H10030484   7.199   4.237   2.441 -1.2090  0.7908  0.3193
   73MOL   H10130485   7.141   4.268   2.286 -1.3136 -0.2475  2.2806
   73MOL   H10230486   7.266   4.048   2.285  0.1150 -0.9561  1.3591
   73MOL   H10330487   7.392   4.118   2.383 -0.0734 -2.4031 -0.6998
   73MOL   H10430488   7.460   4.064   2.141 -0.0118  0.7383  0.0054
   73MOL   H10530489   7.446   4.242   2.145  0.3650 -0.1496 -0.1841
   73MOL   H10630490   7.311   4.145   2.091 -0.6224 -0.7703  0.6142
   73MOL   C10730491   7.537   4.381   2.727 -0.2407 -0.5851  0.0351
   73MOL   C10830492   7.546   4.413   2.872 -0.3579 -0.1473 -0.2608
   73MOL   C10930493   7.418   4.460   2.938 -0.2151  0.1304  0.2813
   73MOL   O11030494   7.311   4.474   2.875 -0.3198 -0.5014 -0.3295
   73MOL   O11130495   7.443   4.498   3.064 -0.4483 -0.1937  0.3535
   73MOL   C11230496   7.339   4.553   3.138  0.5037  0.5926 -0.6244
   73MOL   C11330497   7.328   4.482   3.276  0.4363  0.3811 -1.1848
   73MOL   C11430498   7.413   4.550   3.377  0.0545 -0.0946  1.2100
   73MOL   C11530499   7.383   4.505   3.525 -0.7678 -0.3716 -0.5205
   73MOL   H11630500   7.629   4.339   2.686 -0.3334 -2.3519  1.5685
   73MOL   H11730501   7.459   4.305   2.730  0.1927 -0.9840  1.6945
   73MOL   H11830502   7.613   4.499   2.877 -0.1172 -0.4085  0.9849
   73MOL   H11930503   7.242   4.533   3.093  0.8532 -0.3701 -0.9476
   73MOL   H12030504   7.341   4.662   3.131  1.2713  0.5433 -1.2255
   73MOL   H12130505   7.223   4.492   3.303  0.0045 -1.0393 -2.3182
   73MOL   H12230506   7.349   4.376   3.280  1.7592  0.6137 -1.5833
   73MOL   H12330507   7.393   4.656   3.363 -0.1745 -0.1975  0.7462
   73MOL   H12430508   7.518   4.535   3.356  0.2629  0.5926  1.7190
   73MOL   H12530509   7.438   4.414   3.549  0.2261  0.4569  0.3937
   73MOL   H12630510   7.278   4.492   3.549 -0.9945  2.4862  0.2965
   73MOL   H12730511   7.410   4.591   3.586 -1.9385 -1.4498  1.5786
   73MOL   C12830512   7.613   4.292   2.947 -0.3801 -0.3357  0.9925
   73MOL   C12930513   7.536   4.155   2.968 -0.0880 -0.1416  0.1183
   73MOL   C13030514   7.575   4.044   2.871  0.2444 -0.4503  1.0705
   73MOL   O13130515   7.506   4.027   2.770 -0.2111  0.3420 -0.3747
   73MOL   O13230516   7.683   3.974   2.904  0.3483  0.0963  0.6359
   73MOL   C13330517   7.721   3.860   2.826  0.5655 -1.1786  0.0231
   73MOL   C13430518   0.017   3.831   2.853  0.1075 -0.5689 -0.2206
   73MOL   C13530519   0.086   3.776   2.728 -0.3575  0.3214  0.8968
   73MOL   C13630520   0.238   3.753   2.741 -0.0277 -0.0190  0.2323
   73MOL   H13730521   7.630   4.322   3.050 -1.3778  0.3446  0.9571
   73MOL   H13830522   7.707   4.267   2.897 -1.5094 -0.5569 -1.0764
   73MOL   H13930523   7.433   4.185   2.950 -0.1775 -1.2372 -1.2669
   73MOL   H14030524   7.715   3.887   2.721 -1.2964  1.8895  0.8622
   73MOL   H14130525   7.663   3.770   2.848 -0.4356 -0.4294  0.4879
   73MOL   H14230526   0.072   3.922   2.876  1.1826 -1.3901  0.5649
   73MOL   H14330527   0.035   3.774   2.944 -0.0464  0.2499  0.3153
   73MOL   H14430528   0.061   3.822   2.632 -1.4617 -1.4899  0.2825
   73MOL   H14530529   0.034   3.681   2.713 -0.4243  0.5819 -0.6520
   73MOL   H14630530   0.268   3.734   2.843 -1.8651 -0.3076  0.7256
   73MOL   H14730531   0.280   3.848   2.707  2.0072 -0.3400  1.8227
   73MOL   H14830532   0.284   3.677   2.677  0.8244  0.8983 -0.2727
   73MOL   C14930533   7.534   4.101   3.110  0.6332  0.2761 -0.6717
   73MOL   C15030534   7.449   3.969   3.135  0.0980  0.3457  0.1814
   73MOL   C15130535   7.464   3.932   3.285 -0.0041  0.1310 -0.0170
   73MOL   O15230536   7.522   3.825   3.312 -0.4601 -0.4386 -0.4785
   73MOL   O15330537   7.409   4.015   3.375 -1.0565 -0.3034 -0.4960
   73MOL   C15430538   7.434   3.982   3.512 -1.0015  0.4395 -0.7401
   73MOL   C15530539   7.425   4.113   3.582 -0.4794  0.1789  0.2361
   73MOL   C15630540   7.454   4.102   3.735 -0.8556  0.4422  0.7295
   73MOL   C15730541   7.441   4.237   3.807  0.7296 -0.6070  0.0187
   73MOL   H15830542   7.487   4.187   3.158  0.0091  1.2793 -3.0299
   73MOL   H15930543   7.633   4.096   3.155  0.7049  1.0258 -0.7520
   73MOL   H16030544   7.504   3.891   3.082 -0.9357 -0.1550 -0.1775
   73MOL   H16130545   7.537   3.950   3.531 -1.1401  0.5644  0.2287
   73MOL   H16230546   7.370   3.900   3.544  0.8066 -1.0622 -0.8619
   73MOL   H16330547   7.495   4.175   3.527  0.7505  0.2427  1.8334
   73MOL   H16430548   7.325   4.152   3.561 -1.0377 -0.7153  1.1896
   73MOL   H16530549   7.557   4.072   3.753 -0.3327  1.7465 -0.0259
   73MOL   H16630550   7.389   4.028   3.783 -0.8032  0.1469  0.3456
   73MOL   H16730551   7.512   4.306   3.761 -1.1485  1.5131  0.1671
   73MOL   H16830552   7.471   4.226   3.911  1.9971 -1.4212 -0.4275
   73MOL   H16930553   7.335   4.260   3.795  0.7817  0.1335  0.9910
   73MOL   C17030554   7.299   3.976   3.098 -0.0093  0.0129  0.2369
   73MOL   C17130555   7.210   3.846   3.114  0.3255 -0.3098 -0.0273
   73MOL   C17230556   7.111   3.871   3.228  0.1006 -0.6836 -0.0053
   73MOL   O17330557   7.139   3.837   3.341 -0.5515 -0.0242 -0.1970
   73MOL   O17430558   7.015   3.961   3.198  0.1850 -0.3918 -0.4474
   73MOL   C17530559   6.904   3.983   3.286  0.4100 -0.1631  0.6703
   73MOL   C17630560   6.784   3.892   3.250 -0.0094 -0.0588  0.5208
   73MOL   C17730561   6.734   3.931   3.113  0.2600  0.1213 -0.4319
   73MOL   C17830562   6.633   3.838   3.054  0.6304 -0.2826  1.0759
   73MOL   H17930563   7.301   4.007   2.994 -2.4431 -0.7668 -0.0620
   73MOL   H18030564   7.246   4.058   3.147  1.0998 -0.6506  2.6264
   73MOL   H18130565   7.275   3.768   3.155  2.3658  0.8695 -0.9282
   73MOL   H18230566   6.872   4.087   3.285 -1.2266 -0.6409  0.2710
   73MOL   H18330567   6.938   3.963   3.387  0.8681 -2.8661  0.0225
   73MOL   H18430568   6.809   3.788   3.270 -4.8455 -1.6988 -1.1930
   73MOL   H18530569   6.710   3.904   3.329  0.0512  2.5179  0.2390
   73MOL   H18630570   6.821   3.938   3.047  2.6679  0.2889  2.6760
   73MOL   H18730571   6.682   4.026   3.121  0.8137  0.4240 -0.4080
   73MOL   H18830572   6.575   3.869   2.967  3.7402  0.6452 -0.7407
   73MOL   H18930573   6.556   3.812   3.127 -0.1080  0.8917  0.7324
   73MOL   H19030574   6.692   3.752   3.023  1.1432 -0.0006  1.2656
   73MOL   C19130575   7.130   3.815   2.988  0.0394  0.0278 -0.0387
   73MOL   C19230576   7.084   3.667   2.977  0.2844 -0.1157 -0.8298
   73MOL   C19330577   7.071   3.583   3.104 -0.1147 -0.3930 -0.2350
   73MOL   O19430578   6.971   3.576   3.176 -0.0999  0.1605  0.5993
   73MOL   O19530579   7.193   3.512   3.131  0.3665 -0.1159  0.0276
   73MOL   C19630580   7.199   3.413   3.233  0.2311 -0.4475  0.4455
   73MOL   C19730581   7.328   3.332   3.206  0.6184  0.5199  0.8170
   73MOL   C19830582   7.336   3.217   3.298  0.1718 -0.7586 -0.0819
   73MOL   C19930583   7.466   3.140   3.274  0.9267 -0.7566 -0.7184
   73MOL   H20030584   7.190   3.834   2.899 -0.6809 -2.9791 -1.2254
   73MOL   H20130585   7.037   3.871   2.982 -0.0288  0.1564  1.8373
   73MOL   H20230586   7.166   3.616   2.926 -0.8548 -0.4066 -2.4115
   73MOL   H20330587   7.104   3.359   3.234 -0.3296  0.4391 -1.9297
   73MOL   H20430588   7.200   3.462   3.330  2.2690 -0.8668  0.6577
   73MOL   H20530589   7.321   3.280   3.110  0.1963 -0.0122  1.1358
   73MOL   H20630590   7.416   3.392   3.228  0.1861  1.0881  1.0058
   73MOL   H20730591   7.261   3.141   3.280  1.1027 -0.9450 -3.5983
   73MOL   H20830592   7.334   3.257   3.399  0.8317 -2.1168  0.4778
   73MOL   H20930593   7.555   3.202   3.265  0.1623  0.3129 -1.0627
   73MOL   H21030594   7.453   3.066   3.195 -2.3081 -1.7787  0.6810
   73MOL   H21130595   7.486   3.083   3.365  1.7274  0.2136 -0.2876
   73MOL   C21230596   6.958   3.652   2.888 -0.7140  0.0297 -0.3982
   73MOL   C21330597   6.955   3.729   2.753  0.1140 -0.1451 -0.0723
   73MOL   C21430598   7.077   3.702   2.659  0.2256 -0.2840 -0.1081
   73MOL   O21530599   7.162   3.617   2.690 -1.0119  0.1407 -0.0519
   73MOL   O21630600   7.059   3.769   2.548  0.1213  0.3570 -0.1840
   73MOL   C21730601   7.146   3.775   2.436  0.9329 -0.1617 -0.0092
   73MOL   C21830602   7.067   3.836   2.312  0.1061 -0.0409 -0.7635
   73MOL   C21930603   6.970   3.749   2.242  0.1842 -0.2606  0.4193
   73MOL   C22030604   7.028   3.623   2.168  0.2727  1.1564 -0.4076
   73MOL   H22130605   6.868   3.680   2.943 -0.0127  1.5383  0.0288
   73MOL   H22230606   6.940   3.546   2.872 -2.5987  0.9801 -5.4885
   73MOL   H22330607   6.950   3.837   2.772  1.6920  0.3783 -2.4327
   73MOL   H22430608   7.153   3.672   2.399 -0.0242 -0.1973 -0.1008
   73MOL   H22530609   7.239   3.828   2.456  0.2976  1.2128 -0.6420
   73MOL   H22630610   7.008   3.918   2.352 -1.4065  0.2213 -3.4758
   73MOL   H22730611   7.137   3.884   2.243 -0.9346  1.4507 -0.8099
   73MOL   H22830612   6.917   3.808   2.168  0.6634 -1.8341 -1.2102
   73MOL   H22930613   6.886   3.717   2.305 -1.0279  2.1045  0.0581
   73MOL   H23030614   7.073   3.560   2.244  0.6487 -1.4797 -2.7117
   73MOL   H23130615   7.109   3.639   2.097  0.2825  1.4398 -0.3342
   73MOL   H23230616   6.950   3.565   2.118 -2.2773  2.3365  2.0411
   73MOL   C23330617   6.825   3.676   2.676  0.5153 -0.3636  0.0097
   73MOL   C23430618   6.698   3.755   2.696 -0.4597 -0.1869 -0.9448
   73MOL   C23530619   6.708   3.906   2.674  0.1185  0.4123 -0.4380
   73MOL   O23630620   6.701   3.992   2.761 -0.8558  0.1195 -0.4178
   73MOL   O23730621   6.712   3.932   2.543 -0.0763 -0.4047 -0.2490
   73MOL   C23830622   6.715   4.074   2.507  0.9419 -0.2116  0.3853
   73MOL   C23930623   6.786   4.089   2.367 -1.0277 -0.1089  0.7129
   73MOL   C24030624   6.716   4.197   2.279 -0.0944  0.2953 -0.5554
   73MOL   C24130625   6.788   4.187   2.144 -0.7793 -0.2786  0.2850
   73MOL   H24230626   6.800   3.574   2.707  0.0605 -0.0277  0.7519
   73MOL   H24330627   6.848   3.663   2.570 -0.0303  0.8788 -0.2717
   73MOL   H24430628   6.672   3.743   2.801  2.3266  0.3401 -0.1485
   73MOL   H24530629   6.743   4.139   2.589 -2.5580 -0.6429  1.9926
   73MOL   H24630630   6.610   4.100   2.499  1.0633  0.1959  0.1376
   73MOL   H24730631   6.886   4.125   2.391 -2.4852  3.8241  1.2322
   73MOL   H24830632   6.790   3.990   2.321  1.6214  0.0601  0.4923
   73MOL   H24930633   6.721   4.301   2.311  0.5917 -0.2444  1.1586
   73MOL   H25030634   6.610   4.172   2.272  0.2155 -1.4636  0.6665
   73MOL   H25130635   6.787   4.085   2.105  0.7767  0.1139 -0.8345
   73MOL   H25230636   6.890   4.224   2.154 -1.2080  0.7701  0.8012
   73MOL   H25330637   6.740   4.253   2.071  1.3757  0.4126 -0.5395
   73MOL   C25430638   6.581   3.689   2.609  0.1260  0.2934 -0.1684
   73MOL   C25530639   6.531   3.550   2.656  0.4069 -0.3420  0.3838
   73MOL   C25630640   6.501   3.536   2.806  0.2903  0.4580  0.4493
   73MOL   O25730641   6.386   3.531   2.848 -0.1321  0.5508 -0.3269
   73MOL   O25830642   6.613   3.530   2.883 -0.1991 -0.2711 -0.2669
   73MOL   C25930643   6.595   3.475   3.012  0.2349  0.5885  0.2336
   73MOL   C26030644   6.728   3.409   3.047  0.3736  0.3075  0.5391
   73MOL   C26130645   6.745   3.278   2.975 -0.0705 -0.1585 -0.3645
   73MOL   C26230646   6.864   3.198   3.028 -0.1459 -0.3282  0.1613
   73MOL   H26330647   6.605   3.682   2.503  1.7840 -3.0659  0.3681
   73MOL   H26430648   6.503   3.764   2.617 -0.9527 -0.8598  0.1510
   73MOL   H26530649   6.616   3.484   2.636  0.8092  0.5239 -0.8630
   73MOL   H26630650   6.503   3.417   3.015 -0.2170  1.1649 -1.5640
   73MOL   H26730651   6.579   3.559   3.080 -1.5267 -0.1845  0.7960
   73MOL   H26830652   6.810   3.478   3.030  1.1658 -0.5133  0.9523
   73MOL   H26930653   6.736   3.407   3.156  3.0414 -0.2897  0.3675
   73MOL   H27030654   6.755   3.301   2.869 -1.4066  2.5244  0.0478
   73MOL   H27130655   6.662   3.209   2.987  0.1657 -0.1995  1.0954
   73MOL   H27230656   6.858   3.189   3.137  0.4419  1.4047  0.3558
   73MOL   H27330657   6.959   3.245   3.002 -0.5413  0.3833 -0.0263
   73MOL   H27430658   6.862   3.095   2.992 -2.2823  0.1866 -1.2331
   73MOL   C27530659   6.411   3.514   2.557  0.3550 -0.2062  0.0423
   73MOL   C27630660   6.294   3.611   2.531  0.0259 -0.5464 -0.5621
   73MOL   C27730661   6.328   3.706   2.416 -0.0114 -0.9105 -0.0954
   73MOL   O27830662   6.421   3.677   2.336  0.5196 -0.5112  0.5375
   73MOL   O27930663   6.254   3.823   2.420 -0.2125  0.5321 -0.0558
   73MOL   C28030664   6.284   3.922   2.322 -0.2367 -0.0654  0.0013
   73MOL   C28130665   6.157   3.991   2.271  0.4807 -0.7860 -0.6291
   73MOL   C28230666   6.075   3.906   2.172  0.4749  0.2539 -0.0986
   73MOL   C28330667   5.976   3.984   2.094  0.0094 -0.0932  0.3833
   73MOL   H28430668   6.368   3.425   2.603  0.1071  0.6709  1.5039
   73MOL   H28530669   6.448   3.467   2.465  1.2654  1.1591 -0.2956
   73MOL   H28630670   6.282   3.671   2.621  1.2246  0.4012 -1.0122
   73MOL   H28730671   6.335   3.875   2.238  0.4510  0.4619  0.1139
   73MOL   H28830672   6.354   3.992   2.368  0.8316 -0.0291 -1.6641
   73MOL   H28930673   6.095   4.029   2.353  0.1500 -0.7620 -0.8866
   73MOL   H29030674   6.189   4.080   2.217 -1.4742  1.1268  1.2082
   73MOL   H29130675   6.020   3.827   2.224  2.8566  0.7827  3.4026
   73MOL   H29230676   6.140   3.849   2.106 -1.6680  0.8423 -2.7888
   73MOL   H29330677   6.024   4.041   2.014  0.3222 -0.6282  0.1887
   73MOL   H29430678   5.898   4.044   2.141  1.5531  2.4079 -0.1538
   73MOL   H29530679   5.917   3.910   2.041 -0.2652 -1.1229  2.1094
   73MOL   C29630680   6.163   3.532   2.503  0.6901  0.2810  0.0997
   73MOL   C29730681   6.041   3.625   2.495 -0.3615  1.0233  0.3828
   73MOL   C29830682   5.915   3.553   2.441  0.3746 -0.6408 -0.0337
   73MOL   O29930683   5.853   3.608   2.353  0.5545 -0.1088 -0.1038
   73MOL   O30030684   5.859   3.456   2.519 -0.2227  0.0899  0.2918
   73MOL   C30130685   5.738   3.398   2.478  0.2017 -0.2428 -0.1070
   73MOL   C30230686   5.608   3.473   2.514 -0.6918 -0.0032 -0.5414
   73MOL   C30330687   5.588   3.493   2.662 -0.0221  0.3152 -0.0116
   73MOL   C30430688   5.447   3.548   2.704  0.2183 -0.7272 -0.4092
   73MOL   H30530689   6.145   3.456   2.579 -0.0218  0.7502  0.4012
   73MOL   H30630690   6.165   3.470   2.413 -3.5734  0.5765 -0.2805
   73MOL   H30730691   6.061   3.696   2.415 -0.1649  1.6222  0.9539
   73MOL   H30830692   5.735   3.297   2.519  0.5139 -1.0158 -1.9317
   73MOL   H30930693   5.737   3.371   2.372  1.2552  0.0817 -0.2101
   73MOL   H31030694   5.603   3.564   2.455 -1.2415 -0.9697 -2.0021
   73MOL   H31130695   5.518   3.425   2.475 -0.9953  1.2610 -1.4058
   73MOL   H31230696   5.661   3.562   2.703  0.1498 -0.7597  1.5277
   73MOL   H31330697   5.606   3.401   2.718  2.1665 -0.9416 -2.6556
   73MOL   H31430698   5.416   3.641   2.655 -0.4621  0.5545  2.3499
   73MOL   H31530699   5.454   3.564   2.811  1.5955 -1.1774 -0.4281
   73MOL   H31630700   5.380   3.465   2.679 -2.1029  0.7367  0.8133
   73MOL   C31730701   6.003   3.677   2.629 -0.9801  0.4091  0.3607
   73MOL   C31830702   5.876   3.772   2.642  0.5031 -0.1267 -0.0542
   73MOL   C31930703   5.836   3.806   2.791 -0.0428 -0.0943  1.0422
   73MOL   O32030704   5.719   3.815   2.823 -0.3252  0.9059 -0.4432
   73MOL   O32130705   5.941   3.818   2.869  0.1644 -0.2536  0.4818
   73MOL   C32230706   5.921   3.854   3.008 -0.2603  0.5398  0.5539
   73MOL   C32330707   5.931   3.724   3.098  0.5794 -0.1645 -0.0944
   73MOL   C32430708   6.062   3.655   3.074 -0.5536 -0.2081 -0.6101
   73MOL   C32530709   6.103   3.553   3.179  0.0588  0.5377 -0.4282
   73MOL   H32630710   6.087   3.721   2.682 -1.0214 -0.3192  1.0303
   73MOL   H32730711   5.981   3.594   2.696 -0.3905  0.1437  0.2213
   73MOL   H32830712   5.792   3.713   2.605  0.2499 -0.8309  1.6057
   73MOL   H32930713   5.830   3.911   3.023 -1.0002  0.1694 -2.3539
   73MOL   H33030714   5.999   3.925   3.036 -1.8630  1.9532  1.5136
   73MOL   H33130715   5.922   3.771   3.196 -0.5547  1.1590 -0.7976
   73MOL   H33230716   5.847   3.662   3.064 -1.2176  0.0133  3.7153
   73MOL   H33330717   6.137   3.733   3.069  1.2735 -1.7070  2.2712
   73MOL   H33430718   6.062   3.598   2.981 -0.0236  0.9264 -1.3166
   73MOL   H33530719   6.153   3.606   3.260 -0.7458 -0.9030  1.0420
   73MOL   H33630720   6.156   3.465   3.143  0.2247  0.8814 -1.0296
   73MOL   H33730721   6.015   3.505   3.221  0.6844 -1.3425 -1.2014
   73MOL   C33830722   5.890   3.903   2.552  0.5952 -0.2428  0.5506
   73MOL   C33930723   5.754   3.983   2.539  0.5186 -0.5880 -0.7580
   73MOL   C34030724   5.779   4.134   2.499  0.3692 -0.0899  1.0776
   73MOL   O34130725   5.892   4.177   2.468  0.3143  0.5625 -0.0463
   73MOL   O34230726   5.678   4.215   2.532 -0.3097  0.2041  0.1497
   73MOL   C34330727   5.693   4.356   2.558  0.6556  0.2840 -0.6767
   73MOL   C34430728   5.564   4.428   2.580 -0.2643 -0.3190  0.2313
   73MOL   C34530729   5.471   4.400   2.454  0.9147 -0.2341  0.2743
   73MOL   C34630730   5.335   4.464   2.457 -0.0829  0.1965  1.1275
   73MOL   H34730731   5.922   3.870   2.453 -1.3738 -0.6080  0.0213
   73MOL   H34830732   5.977   3.960   2.584  0.2357  0.4967  0.2142
   73MOL   H34930733   5.709   4.002   2.636  2.0320  1.2392 -0.3866
   73MOL   H35030734   5.740   4.387   2.464 -1.1896  0.2732 -1.6292
   73MOL   H35130735   5.761   4.377   2.641  1.5304  2.1210 -1.8159
   73MOL   H35230736   5.513   4.384   2.666 -2.1576 -0.9022 -1.1421
   73MOL   H35330737   5.579   4.533   2.605  1.8315  0.0683 -2.3780
   73MOL   H35430738   5.460   4.293   2.438 -2.3286 -0.2566  2.2114
   73MOL   H35530739   5.536   4.433   2.373  0.0708  0.6631 -0.0518
   73MOL   H35630740   5.326   4.565   2.496  1.5979  0.4734  0.8428
   73MOL   H35730741   5.266   4.417   2.526 -0.0506  0.6638  1.4829
   73MOL   H35830742   5.290   4.477   2.358 -0.9303 -2.0954  1.1817
   73MOL   C35930743   5.650   3.907   2.456  0.8333 -0.5040 -0.2872
   73MOL   C36030744   5.508   3.943   2.481  0.2143  0.3533 -0.8223
   73MOL   C36130745   5.406   3.887   2.376  0.1004  0.2201  0.1263
   73MOL   O36230746   5.352   3.963   2.289 -0.0114 -0.2747  0.2735
   73MOL   O36330747   5.396   3.753   2.393  0.2194 -0.4906 -0.4003
   73MOL   C36430748   5.304   3.669   2.327 -0.1799 -0.2290 -0.3318
   73MOL   C36530749   5.193   3.593   2.403  0.2088  0.1878 -0.2776
   73MOL   C36630750   5.081   3.530   2.313 -0.2905 -0.1969  0.3138
   73MOL   C36730751   4.979   3.460   2.397  0.4116  0.4088  0.5608
   73MOL   H36830752   5.666   3.802   2.479  2.0033  0.0817  1.6560
   73MOL   H36930753   5.670   3.914   2.349 -0.1487  0.3958 -0.4265
   73MOL   H37030754   5.498   4.050   2.465  2.0219  0.5121 -1.0426
   73MOL   H37130755   5.368   3.591   2.286  0.3799  1.2088 -2.2778
   73MOL   H37230756   5.260   3.731   2.249  0.0376 -0.6739 -0.8140
   73MOL   H37330757   5.237   3.524   2.475 -0.3345  1.5619  1.4030
   73MOL   H37430758   5.137   3.657   2.472 -0.1825  0.8829 -1.2421
   73MOL   H37530759   5.128   3.456   2.248 -0.3930  0.4763 -0.5271
   73MOL   H37630760   5.017   3.590   2.250  1.0632  1.8455  0.8170
   73MOL   H37730761   4.908   3.414   2.328  1.3116  2.0295 -1.5141
   73MOL   H37830762   4.918   3.520   2.463 -2.9013 -0.5423 -1.4976
   73MOL   H37930763   5.022   3.382   2.460 -1.0609 -1.8323 -1.1199
   73MOL   C38030764   5.458   3.926   2.627  0.2704 -0.3477  0.1068
   73MOL   C38130765   5.309   3.931   2.657  0.4797 -0.0028 -0.8641
   73MOL   C38230766   5.277   3.904   2.813  0.4893 -0.5002  1.0972
   73MOL   O38330767   5.284   4.000   2.892  0.3723 -0.2317  0.1639
   73MOL   O38430768   5.254   3.777   2.840  0.2313  0.4053 -0.1385
   73MOL   C38530769   5.241   3.737   2.971 -0.2813 -0.4050 -0.6748
   73MOL   C38630770   5.103   3.674   2.974  0.2968 -0.0932 -0.0353
   73MOL   C38730771   5.096   3.532   2.916  1.3600 -0.9079  0.6858
   73MOL   C38830772   5.093   3.528   2.760  0.7951 -0.2006  0.3243
   73MOL   H38930773   5.512   4.002   2.684  1.0869 -1.3600  0.7125
   73MOL   H39030774   5.492   3.830   2.668 -1.8210 -1.3763 -0.5277
   73MOL   H39130775   5.261   3.845   2.611  0.4490  0.1786 -1.1676
   73MOL   H39230776   5.239   3.822   3.040  0.4988 -2.9114  2.6062
   73MOL   H39330777   5.326   3.678   3.005  0.5558  1.2351  0.1262
   73MOL   H39430778   5.065   3.676   3.076  1.9206 -0.7299  0.6012
   73MOL   H39530779   5.026   3.731   2.922  0.4282  0.5983  0.5249
   73MOL   H39630780   5.014   3.471   2.954  0.5684 -0.2472  0.0542
   73MOL   H39730781   5.186   3.478   2.945  0.7406 -2.3281 -0.0219
   73MOL   H39830782   4.993   3.543   2.720  0.9754 -3.3085 -1.4782
   73MOL   H39930783   5.105   3.423   2.732  1.2697  0.2832 -1.3802
   73MOL   H40030784   5.160   3.594   2.704 -2.6878  1.3825 -2.1842
   73MOL   C40130785   5.232   4.053   2.609  0.0210  0.1664 -0.3268
   73MOL   C40230786   5.089   4.034   2.561  0.3048 -0.2649  1.0532
   73MOL   C40330787   4.977   3.993   2.662  0.1840  0.0675 -1.1857
   73MOL   O40430788   4.953   4.063   2.765 -0.2256 -0.3540  0.0325
   73MOL   O40530789   4.924   3.875   2.626  0.1505 -0.4237  0.5252
   73MOL   C40630790   4.811   3.825   2.702 -0.1291  0.4605  0.0447
   73MOL   C40730791   4.731   3.713   2.636 -0.7654  0.1545 -1.0126
   73MOL   C40830792   4.709   3.741   2.484 -0.0540 -0.2100 -0.2770
   73MOL   C40930793   4.645   3.630   2.404 -0.5238  0.6792 -0.2792
   73MOL   H41030794   5.288   4.096   2.527  0.0827 -0.4469 -0.6120
   73MOL   H41130795   5.224   4.125   2.690 -1.7790 -1.3178  0.8599
   73MOL   H41230796   5.080   3.952   2.491 -2.2081 -1.4963  2.7435
   73MOL   H41330797   4.745   3.912   2.700 -0.0634  0.5366  1.1195
   73MOL   H41430798   4.839   3.791   2.802 -1.1894 -1.6254 -0.3465
   73MOL   H41530799   4.779   3.616   2.632  0.0614  0.6125 -3.0605
   73MOL   H41630800   4.645   3.700   2.702 -0.2056  1.0301 -0.0840
   73MOL   H41730801   4.803   3.771   2.438  0.0814  0.5467  0.4713
   73MOL   H41830802   4.646   3.830   2.482  0.1032 -0.0416  1.5299
   73MOL   H41930803   4.540   3.643   2.429 -1.0131 -3.1942  0.0260
   73MOL   H42030804   4.677   3.531   2.437  1.4526  1.4479  0.1793
   73MOL   H42130805   4.664   3.638   2.297  2.0479 -0.4753  0.0542
   73MOL   H42230806   5.053   4.120   2.504 -1.9710 -1.8883  0.0094
   74MOL     C130807   0.129   6.050   4.943 -0.4495 -0.8697 -0.0711
   74MOL     C230808   7.841   6.100   4.949  0.5819 -0.4434  0.5083
   74MOL     C330809   7.783   6.085   4.811 -0.1720 -1.2042 -0.2654
   74MOL     O430810   7.835   6.020   4.722  0.1485 -0.1149  0.1109
   74MOL     O530811   7.669   6.165   4.786  0.6003 -0.8245 -0.1151
   74MOL     C630812   7.601   6.156   4.660 -0.2179  0.2311 -0.7342
   74MOL     C730813   7.521   6.022   4.644  0.7853 -0.6062 -0.1028
   74MOL     C830814   7.437   6.014   4.521 -0.2520  0.6715 -0.0638
   74MOL     C930815   7.357   5.881   4.508  0.4969  0.0041  0.5356
   74MOL    H1030816   0.173   6.044   5.043 -0.3197  0.7567 -0.0288
   74MOL    H1130817   0.144   5.950   4.900 -1.7388  0.0121 -2.6882
   74MOL    H1230818   7.841   6.207   4.971 -1.1629  0.0720 -1.8323
   74MOL    H1330819   7.673   6.176   4.580  0.5741  0.9889  0.1672
   74MOL    H1430820   7.533   6.241   4.650  0.2093  1.1939  3.6577
   74MOL    H1530821   7.604   5.952   4.654  0.7624 -0.2887  3.0744
   74MOL    H1630822   7.449   6.007   4.724  0.5274  1.5852  0.1316
   74MOL    H1730823   7.513   6.026   4.443  1.4594  1.9683  1.7540
   74MOL    H1830824   7.376   6.104   4.522 -0.7729  0.3609 -1.9845
   74MOL    H1930825   7.346   5.862   4.401 -1.5717  0.4443  0.6405
   74MOL    H2030826   7.256   5.886   4.550  0.2273  2.1463 -0.3094
   74MOL    H2130827   7.422   5.802   4.546  0.3058 -1.4250 -1.9779
   74MOL    H2230828   0.192   6.114   4.882 -0.0637 -1.5057 -0.3487
   74MOL    C2330829   7.748   6.039   5.049  0.0133  0.6008  0.2056
   74MOL    C2430830   7.725   5.882   5.036 -0.0260 -0.4057  0.0417
   74MOL    C2530831   7.839   5.814   5.105 -0.4146 -0.3429 -0.9150
   74MOL    O2630832   0.004   5.824   5.224  0.0417  0.1496 -0.6827
   74MOL    O2730833   0.059   5.745   5.021 -0.1967  0.7088  0.3034
   74MOL    C2830834   0.183   5.683   5.068 -0.2719  0.0454  0.2209
   74MOL    C2930835   0.167   5.543   5.125 -0.2454  0.6842  0.0193
   74MOL    C3030836   0.077   5.449   5.048  0.3479 -0.1342  0.3598
   74MOL    C3130837   0.076   5.321   5.120 -0.2819 -0.2097 -0.4698
   74MOL    H3230838   7.651   6.088   5.047 -0.4014 -0.2555 -0.5396
   74MOL    H3330839   7.789   6.051   5.150  1.5532 -2.3183 -0.0134
   74MOL    H3430840   7.723   5.843   4.934  1.4714 -0.2545 -0.0589
   74MOL    H3530841   0.237   5.736   5.146 -2.4520  0.7316  1.3246
   74MOL    H3630842   0.245   5.670   4.979  0.3283 -1.1954  0.8090
   74MOL    H3730843   0.267   5.502   5.140  0.6087  2.2511 -1.2374
   74MOL    H3830844   0.121   5.547   5.224  0.0564  1.4130  0.1350
   74MOL    H3930845   0.111   5.421   4.948  1.7391  0.8511  0.5466
   74MOL    H4030846   7.827   5.485   5.042 -0.2684 -2.1819 -3.3758
   74MOL    H4130847   0.176   5.280   5.115 -0.0775  0.3274 -0.9186
   74MOL    H4230848   7.851   5.251   5.092  0.6268 -0.6147 -2.0294
   74MOL    H4330849   0.065   5.330   5.228  1.7795  1.8171 -0.3847
   74MOL    C4430850   7.594   5.846   5.100  0.1613 -0.3199  0.0964
   74MOL    C4530851   7.530   5.716   5.048  0.7646  0.4440 -0.1690
   74MOL    C4630852   7.489   5.618   5.161  0.8316 -0.6995 -0.3772
   74MOL    O4730853   7.396   5.650   5.238  0.1552  0.1782  0.1329
   74MOL    O4830854   7.549   5.499   5.162 -0.2145  0.0907  0.1907
   74MOL    C4930855   7.495   5.400   5.246 -0.3268  0.2765  0.0043
   74MOL    C5030856   7.595   5.281   5.238 -0.2868  0.2604 -0.4705
   74MOL    C5130857   7.568   5.176   5.347  0.5521  0.1185 -0.1243
   74MOL    C5230858   7.663   5.058   5.353  0.6050 -0.3052  0.6145
   74MOL    H5330859   7.527   5.929   5.077  1.7208  0.7252 -0.7086
   74MOL    H5430860   7.606   5.859   5.207  1.0013 -0.6660  0.0459
   74MOL    H5530861   7.604   5.661   4.989  0.3568  1.6537 -1.8378
   74MOL    H5630862   7.406   5.341   5.224 -0.6216  0.2124  1.3460
   74MOL    H5730863   7.485   5.443   5.345 -1.7970 -0.0613  0.0083
   74MOL    H5830864   7.591   5.230   5.142 -0.6873  0.0826 -0.3629
   74MOL    H5930865   7.700   5.310   5.243  0.5584 -2.5093 -1.4166
   74MOL    H6030866   7.467   5.136   5.334  0.2082  1.0335 -0.3179
   74MOL    H6130867   7.565   5.231   5.441 -0.9867  0.5707 -0.4203
   74MOL    H6230868   7.757   5.079   5.301 -0.5330  1.4747 -0.7818
   74MOL    H6330869   7.616   4.982   5.291 -0.1186  1.4741 -1.0576
   74MOL    H6430870   7.673   5.022   5.456  0.6419 -1.1077  0.3342
   74MOL    C6530871   7.404   5.749   4.957  0.0090 -0.4051  0.2092
   74MOL    C6630872   7.323   5.634   4.891 -0.1511 -0.8038 -0.0782
   74MOL    C6730873   7.190   5.680   4.823 -0.6391 -0.3283 -0.0963
   74MOL    O6830874   7.113   5.753   4.883 -0.2912  0.2857 -0.6350
   74MOL    O6930875   7.163   5.624   4.705  0.5568 -0.3670 -0.1769
   74MOL    C7030876   7.045   5.673   4.637  1.0879 -0.4693  0.3811
   74MOL    C7130877   6.915   5.598   4.682  0.2471 -0.4141 -0.2095
   74MOL    C7230878   6.921   5.447   4.668 -0.5820  0.4184 -0.5959
   74MOL    C7330879   6.810   5.366   4.730  0.1725 -0.7777 -0.7400
   74MOL    H7430880   7.430   5.820   4.878  0.6422 -0.4012  0.4228
   74MOL    H7530881   7.335   5.802   5.022 -0.7374  0.7456 -1.4686
   74MOL    H7630882   7.298   5.565   4.972  0.8621 -1.8698 -0.6510
   74MOL    H7730883   7.061   5.677   4.529  0.9903  1.1722  0.4104
   74MOL    H7830884   7.038   5.777   4.668  1.3982 -0.3094 -0.0876
   74MOL    H7930885   6.885   5.608   4.787  0.2044 -2.3127 -0.0151
   74MOL    H8030886   6.829   5.630   4.624 -0.8641  1.1566  2.2255
   74MOL    H8130887   7.004   5.400   4.720 -1.4657 -0.9942 -0.4181
   74MOL    H8230888   6.935   5.426   4.562 -0.7304  1.3809 -0.8110
   74MOL    H8330889   6.709   5.398   4.704  0.2210 -0.9273 -1.1056
   74MOL    H8430890   6.824   5.375   4.838  0.6899 -0.8273 -0.8004
   74MOL    H8530891   6.832   5.260   4.714  1.0770 -0.9334  1.3769
   74MOL    C8630892   7.398   5.533   4.795 -0.3328 -0.2549  0.1079
   74MOL    C8730893   7.336   5.389   4.769  0.2461 -0.8773  0.8322
   74MOL    C8830894   7.406   5.321   4.648 -0.1784  0.2485 -0.2636
   74MOL    O8930895   7.347   5.322   4.537  0.1882 -0.5167  0.3080
   74MOL    O9030896   7.525   5.267   4.686 -0.4143 -1.0162  0.2332
   74MOL    C9130897   7.595   5.201   4.589  0.5119  0.4184  0.2277
   74MOL    C9230898   7.726   5.146   4.653 -0.3536  0.4495 -0.2336
   74MOL    C9330899   7.819   5.242   4.720 -0.7550 -0.7783 -0.0413
   74MOL    C9430900   0.119   5.196   4.751 -0.2608  0.1932  0.6481
   74MOL    H9530901   7.498   5.534   4.839 -1.7416 -0.6708  3.4312
   74MOL    H9630902   7.427   5.588   4.705 -0.5835  1.5291  1.0921
   74MOL    H9730903   7.234   5.399   4.731 -0.2003 -2.2234  1.6553
   74MOL    H9830904   7.617   5.271   4.509 -0.0872  2.1670  1.5663
   74MOL    H9930905   7.541   5.114   4.550  1.3454  0.5623 -1.2926
   74MOL   H10030906   7.707   5.061   4.718 -2.1577 -0.7552 -2.2704
   74MOL   H10130907   7.776   5.087   4.577  0.3212  0.0937  0.4735
   74MOL   H10230908   7.788   5.257   4.824  0.7754  1.3883  0.1243
   74MOL   H10330909   7.829   5.338   4.670  1.8674 -0.2986  1.3012
   74MOL   H10430910   0.178   5.274   4.798  0.4753  1.1054 -1.7444
   74MOL   H10530911   0.168   5.166   4.658  1.1271  4.5699 -0.1133
   74MOL   H10630912   0.124   5.110   4.819 -0.2289  0.7021  1.2938
   74MOL   C10730913   7.325   5.296   4.890 -0.3877 -0.4419  0.2022
   74MOL   C10830914   7.280   5.151   4.866  0.5085 -0.4214 -0.6010
   74MOL   C10930915   7.280   5.083   5.004  0.1701 -0.1243 -0.1537
   74MOL   O11030916   7.366   5.001   5.040  0.2467 -0.3788  0.3945
   74MOL   O11130917   7.179   5.123   5.084 -0.2846 -0.3328 -0.6196
   74MOL   C11230918   7.168   5.064   5.213 -0.4063  0.0798 -0.3844
   74MOL   C11330919   7.049   5.125   5.291 -0.1146 -0.0705 -0.3383
   74MOL   C11430920   6.919   5.079   5.231  0.5182  0.5034  0.9373
   74MOL   C11530921   6.801   5.113   5.321 -0.1012  0.0880  0.6207
   74MOL   H11630922   7.261   5.334   4.970 -0.0210 -1.9573  1.2102
   74MOL   H11730923   7.421   5.296   4.942 -0.2075 -2.5916 -0.0938
   74MOL   H11830924   7.351   5.099   4.803 -0.1823 -0.5311 -1.2899
   74MOL   H11930925   7.263   5.066   5.266 -2.1438 -1.2779  2.9377
   74MOL   H12030926   7.146   4.959   5.196  0.4940  0.2334 -2.5779
   74MOL   H12130927   7.043   5.106   5.398 -0.6213  0.6152 -0.2450
   74MOL   H12230928   7.054   5.234   5.289  3.8146 -0.1875 -0.7745
   74MOL   H12330929   6.935   4.972   5.219  0.0861  0.6665 -1.5494
   74MOL   H12430930   6.894   5.136   5.141  0.0940  2.6681  2.3945
   74MOL   H12530931   6.815   5.206   5.375 -0.0698 -1.1345  2.7948
   74MOL   H12630932   6.802   5.042   5.404  0.8073  0.9910  1.3897
   74MOL   H12730933   6.708   5.103   5.265 -0.4613 -0.4710  1.3113
   74MOL   C12830934   7.137   5.153   4.810  0.4275 -0.5674 -0.1191
   74MOL   C12930935   7.088   5.011   4.746  0.3192 -0.0393  0.0303
   74MOL   C13030936   6.941   4.975   4.791  0.6241  0.0348  0.2034
   74MOL   O13130937   6.870   5.047   4.860 -0.1075  0.5165  0.6818
   74MOL   O13230938   6.910   4.848   4.742 -0.0390 -0.7446 -0.0856
   74MOL   C13330939   6.794   4.791   4.780 -0.1071 -0.0227 -0.1420
   74MOL   C13430940   6.817   4.726   4.917 -0.5089  1.0752  0.8087
   74MOL   C13530941   6.709   4.627   4.941  0.0899 -0.5040 -0.3929
   74MOL   C13630942   6.753   4.516   5.033  0.6214 -0.9333  0.1637
   74MOL   H13730943   7.144   5.228   4.730  2.0288 -0.1085  0.4295
   74MOL   H13830944   7.061   5.197   4.875  1.2734  0.8784 -0.0875
   74MOL   H13930945   7.151   4.938   4.797  1.7883  1.4497  0.4287
   74MOL   H14030946   6.780   4.718   4.701  0.6849 -0.0240 -0.2795
   74MOL   H14130947   6.715   4.866   4.779 -0.6119 -0.5141  1.3010
   74MOL   H14230948   6.914   4.678   4.916 -0.9620  0.1149  1.8610
   74MOL   H14330949   6.821   4.790   5.006 -1.0724  0.0376  1.5951
   74MOL   H14430950   6.656   4.588   4.854 -0.9389  0.8018 -0.3637
   74MOL   H14530951   6.630   4.683   4.992 -0.6746 -0.4816 -1.5722
   74MOL   H14630952   6.783   4.556   5.130  2.0116  0.4593 -0.8133
   74MOL   H14730953   6.839   4.460   4.997  0.3106 -2.0678  1.1769
   74MOL   H14830954   6.667   4.452   5.051 -1.2700  1.9118  1.4616
   74MOL   C14930955   7.106   5.013   4.597 -0.0636  0.4627 -0.1628
   74MOL   C15030956   7.247   4.997   4.548  0.3312 -0.0581  0.1214
   74MOL   C15130957   7.330   4.880   4.611  0.0618 -0.0473  0.7937
   74MOL   O15230958   7.426   4.903   4.680  0.0743  0.4696  0.3092
   74MOL   O15330959   7.283   4.762   4.575  0.3406 -0.2251 -0.1575
   74MOL   C15430960   7.361   4.648   4.619 -0.1495 -0.7111 -0.4276
   74MOL   C15530961   7.340   4.602   4.762 -0.6252 -0.4282 -1.0815
   74MOL   C15630962   7.191   4.578   4.792 -0.2937 -0.4130 -0.0632
   74MOL   C15730963   7.175   4.475   4.911  0.0227  0.2276 -0.3596
   74MOL   H15830964   7.067   5.104   4.551  1.8614  0.7894 -1.1722
   74MOL   H15930965   7.060   4.924   4.555 -1.6351  1.8086 -1.3678
   74MOL   H16030966   7.300   5.089   4.575 -0.5997  0.0981  1.4886
   74MOL   H16130967   7.469   4.660   4.610 -0.0336 -0.3594  1.3716
   74MOL   H16230968   7.337   4.561   4.557 -0.6595 -0.7841 -0.1282
   74MOL   H16330969   7.401   4.520   4.798 -0.5109 -0.0657 -0.4397
   74MOL   H16430970   7.380   4.678   4.829 -1.2230  0.3400 -1.5873
   74MOL   H16530971   7.129   4.548   4.707 -1.0798  0.7972  0.0667
   74MOL   H16630972   7.145   4.671   4.824 -0.8552 -0.6290 -0.2217
   74MOL   H16730973   7.069   4.459   4.930  0.3232 -0.4944  0.7106
   74MOL   H16830974   7.228   4.512   4.998 -1.2961 -0.2563  0.6608
   74MOL   H16930975   7.216   4.375   4.894 -0.2190  0.3536 -1.7720
   74MOL   C17030976   7.253   4.986   4.392 -0.2240  0.5742 -0.0228
   74MOL   C17130977   7.396   5.024   4.334  0.9197 -0.8085  0.4404
   74MOL   C17230978   7.498   4.912   4.344  0.2066 -0.3478  0.3294
   74MOL   O17330979   7.610   4.930   4.386  0.3054 -0.0840  0.1972
   74MOL   O17430980   7.459   4.798   4.289  0.2064  0.0283 -0.1506
   74MOL   C17530981   7.549   4.686   4.301  0.3246  0.2395 -0.3203
   74MOL   C17630982   7.526   4.602   4.177  0.1637 -0.4502  0.2518
   74MOL   C17730983   7.529   4.676   4.046  0.2037  0.0400 -0.4795
   74MOL   C17830984   7.524   4.582   3.921  0.0212 -0.3051  0.1322
   74MOL   H17930985   7.174   5.041   4.342 -1.3297 -1.6546 -0.7976
   74MOL   H18030986   7.235   4.882   4.365 -1.5888  1.3155 -2.1132
   74MOL   H18130987   7.428   5.107   4.397 -0.5803 -0.4552  0.7579
   74MOL   H18230988   7.534   4.627   4.391  0.6580 -1.4619 -1.3457
   74MOL   H18330989   7.653   4.714   4.292  0.3035  1.4283  2.7688
   74MOL   H18430990   7.597   4.519   4.175  1.0904  0.3096  0.8075
   74MOL   H18530991   7.433   4.547   4.186  0.4182 -0.7146  1.3005
   74MOL   H18630992   7.619   4.736   4.037  0.3528 -0.3351 -1.4897
   74MOL   H18730993   7.450   4.751   4.049 -0.5708 -0.8077  0.7397
   74MOL   H18830994   7.457   4.497   3.934 -2.1152  1.4621  0.9243
   74MOL   H18930995   7.618   4.541   3.883 -0.8156  0.0796 -2.4914
   74MOL   H19030996   7.473   4.633   3.839  0.6095 -0.4443 -0.3265
   74MOL   C19130997   7.389   5.074   4.187  0.0127  0.0281  0.5545
   74MOL   C19230998   7.516   5.146   4.128  0.8266  0.4029  0.7555
   74MOL   C19330999   7.502   5.181   3.983 -0.0572  0.0936 -0.1048
   74MOL   O19431000   7.590   5.154   3.902 -0.1074 -0.2455 -0.2696
   74MOL   O19531001   7.376   5.251   3.955 -0.1633 -0.0926  0.5810
   74MOL   C19631002   7.365   5.318   3.829  0.3922 -0.9199  0.2938
   74MOL   C19731003   7.334   5.467   3.837 -0.0557 -0.5667 -0.0835
   74MOL   C19831004   7.443   5.545   3.891 -0.0687  0.1791 -0.8757
   74MOL   C19931005   7.386   5.685   3.915 -0.2038  0.1896  0.1019
   74MOL   H20031006   7.311   5.150   4.195  0.8878  0.8490  1.4009
   74MOL   H20131007   7.347   5.004   4.115 -0.5678 -0.0560  0.9764
   74MOL   H20231008   7.595   5.072   4.119  0.5033  0.2792 -1.3552
   74MOL   H20331009   7.288   5.271   3.769 -0.3238  1.6563 -0.8575
   74MOL   H20431010   7.463   5.314   3.782  2.0239 -0.7893  3.5324
   74MOL   H20531011   7.311   5.507   3.738  0.2625  0.2226  0.1559
   74MOL   H20631012   7.246   5.483   3.900  0.2460 -1.2362  0.5006
   74MOL   H20731013   7.523   5.547   3.818  0.9937 -2.1235  0.1592
   74MOL   H20831014   7.489   5.509   3.983  0.9639  0.2306 -1.3624
   74MOL   H20931015   7.298   5.674   3.978 -1.1752  0.8911 -1.1235
   74MOL   H21031016   7.358   5.741   3.826  2.1888  0.3435 -0.6084
   74MOL   H21131017   7.460   5.749   3.963  0.8753 -1.5397  0.8123
   74MOL   C21231018   7.561   5.282   4.190 -0.0000  0.4669  1.0858
   74MOL   C21331019   7.707   5.312   4.164  0.1658  0.4757 -0.4621
   74MOL   C21431020   7.733   5.462   4.189 -0.2379  0.3623 -0.1053
   74MOL   O21531021   7.804   5.523   4.106 -0.0102 -0.4466 -0.0448
   74MOL   O21631022   7.678   5.508   4.304  0.3799 -0.0947  0.1722
   74MOL   C21731023   7.694   5.645   4.347 -0.2225 -0.1808 -0.3743
   74MOL   C21831024   7.797   5.665   4.468  0.1818  0.5226  0.3231
   74MOL   C21931025   7.746   5.615   4.604 -0.0711  0.5042 -0.0610
   74MOL   C22031026   7.838   5.634   4.716 -0.0312 -0.5222  0.2590
   74MOL   H22131027   7.546   5.274   4.298  2.3651  0.6882  1.4731
   74MOL   H22231028   7.499   5.364   4.155 -0.4935 -0.7954 -1.0721
   74MOL   H22331029   7.732   5.294   4.060  0.1496 -2.5724  0.0208
   74MOL   H22431030   7.594   5.683   4.368  0.8831  2.3446  0.4075
   74MOL   H22531031   7.737   5.703   4.266 -2.4562  0.3797 -1.1994
   74MOL   H22631032   0.039   5.622   4.439 -0.3393 -0.8962  0.6697
   74MOL   H22731033   7.806   5.773   4.478  0.1357  0.6078 -0.5125
   74MOL   H22831034   7.703   5.516   4.588 -0.0910  0.3559  0.8776
   74MOL   H22931035   7.661   5.682   4.611  1.4239  2.3661  0.7898
   74MOL   H23031036   0.016   5.737   4.730  0.3604 -0.5742 -0.2271
   74MOL   H23131037   0.069   5.564   4.719  0.1086 -0.3082  2.1114
   74MOL   H23231038   7.778   5.616   4.805 -2.5407  0.4870 -1.1887
   74MOL   C23331039   7.791   5.215   4.260  0.1590 -0.1441 -0.7655
   74MOL   C23431040   0.093   5.203   4.230  0.2941 -0.7904  0.3088
   74MOL   C23531041   0.172   5.317   4.293  0.2277  0.6489  0.3427
   74MOL   O23631042   0.130   5.380   4.389 -0.1194  0.8983 -0.2462
   74MOL   O23731043   0.287   5.343   4.224  0.3282 -0.1666 -0.2104
   74MOL   C23831044   0.367   5.460   4.248 -0.3903  0.3226  0.0473
   74MOL   C23931045   0.319   5.593   4.175  0.0436 -0.0390 -0.3107
   74MOL   C24031046   0.333   5.599   4.027 -0.0871  0.4788  1.1709
   74MOL   C24131047   0.251   5.713   3.968  0.8699 -0.9379 -0.9289
   74MOL   H24231048   7.749   5.115   4.247  1.7414 -0.7451 -1.3453
   74MOL   H24331049   7.766   5.234   4.365 -1.0468 -1.8469 -0.7157
   74MOL   H24431050   0.112   5.221   4.124 -2.7565  1.1839  0.0532
   74MOL   H24531051   0.468   5.435   4.215 -0.3257  0.9505 -0.2358
   74MOL   H24631052   0.376   5.468   4.356 -0.1666  0.4914  0.0172
   74MOL   H24731053   0.213   5.599   4.201  0.4071 -0.2342  1.3286
   74MOL   H24831054   0.354   5.681   4.231 -1.4677  0.6615 -0.4341
   74MOL   H24931055   0.277   5.512   3.993 -0.9537  1.3458  0.3865
   74MOL   H25031056   0.438   5.590   3.999 -0.4922  0.6257 -0.4040
   74MOL   H25131057   0.144   5.697   3.979  0.3742  2.4807 -0.1612
   74MOL   H25231058   0.275   5.745   3.866 -1.5050  0.8466 -0.9647
   74MOL   H25331059   0.260   5.803   4.029 -0.6717 -0.3948 -1.4720
   74MOL   C25431060   0.167   5.073   4.269 -1.1881  0.1620  0.3469
   74MOL   C25531061   0.114   4.931   4.219 -0.2715 -0.6026 -0.7498
   74MOL   C25631062   0.089   4.937   4.067  0.4275  0.4246 -0.3371
   74MOL   O25731063   7.832   4.904   4.018 -0.1729 -0.1192  0.2586
   74MOL   O25831064   0.202   4.981   4.007 -0.0128  0.3272 -0.1418
   74MOL   C25931065   0.189   5.024   3.870  0.5250 -0.7175 -0.2296
   74MOL   C26031066   0.152   5.167   3.865  0.8173 -0.2633  0.3315
   74MOL   C26131067   0.074   5.211   3.740  0.4591 -0.1028 -0.2587
   74MOL   C26231068   0.022   5.348   3.761  0.3055 -0.4383  0.4331
   74MOL   H26331069   0.159   5.069   4.378  0.1843  1.7606  0.5155
   74MOL   H26431070   0.270   5.073   4.234 -1.0522 -0.2377  0.7311
   74MOL   H26531071   0.012   4.910   4.252 -0.3713  1.0118 -0.0162
   74MOL   H26631072   0.109   4.966   3.824  1.1546 -0.8385 -1.1705
   74MOL   H26731073   0.280   4.987   3.824  1.0755  0.2997  0.0253
   74MOL   H26831074   0.077   5.186   3.941  2.6676  0.5918  1.9664
   74MOL   H26931075   0.237   5.230   3.890  0.2452  0.5596  0.2167
   74MOL   H27031076   7.846   5.139   3.735  0.6813 -0.4924  1.4757
   74MOL   H27131077   0.122   5.199   3.642 -0.0045 -1.1265 -0.3707
   74MOL   H27231078   7.801   5.370   3.684 -1.0771  0.0095  1.8864
   74MOL   H27331079   0.092   5.431   3.750 -0.9548  0.6448  0.4667
   74MOL   H27431080   7.823   5.362   3.855  2.1421 -1.0334  1.5612
   74MOL   C27531081   0.207   4.814   4.263 -0.1364 -0.0117  0.1745
   74MOL   C27631082   0.217   4.785   4.413 -0.9337  0.0814  0.3170
   74MOL   C27731083   0.087   4.733   4.474  0.7614 -0.0285  0.1630
   74MOL   O27831084   7.851   4.680   4.407  0.6141  1.1769  0.2947
   74MOL   O27931085   0.071   4.770   4.606  0.0372  0.5634 -0.2312
   74MOL   C28031086   7.810   4.735   4.678  0.0202 -0.1063  0.4364
   74MOL   C28131087   7.813   4.807   4.806 -0.3706 -0.1693  0.4648
   74MOL   C28231088   7.682   4.786   4.888 -0.0343 -0.6896  0.0214
   74MOL   C28331089   7.701   4.789   5.043 -0.2371 -0.0692  0.6042
   74MOL   H28431090   0.307   4.831   4.225 -1.2030  1.5696 -2.0527
   74MOL   H28531091   0.186   4.719   4.213  1.2644  0.6966 -1.8117
   74MOL   H28631092   0.234   4.885   4.454 -0.9484  0.0916  0.2998
   74MOL   H28731093   7.788   4.628   4.684  1.0254 -0.1788  3.0593
   74MOL   H28831094   7.733   4.783   4.616  1.4045 -1.9464 -2.8401
   74MOL   H28931095   0.047   4.765   4.857 -1.0031 -0.9271  0.9400
   74MOL   H29031096   7.837   4.912   4.789 -1.5316  0.1402  0.6225
   74MOL   H29131097   7.638   4.690   4.858  0.7543 -1.0801  0.1008
   74MOL   H29231098   7.613   4.865   4.859 -0.0355 -0.6780  0.0561
   74MOL   H29331099   7.770   4.868   5.071  0.2581 -0.0813 -0.5473
   74MOL   H29431100   7.745   4.693   5.069 -2.2079 -0.6280  2.0443
   74MOL   H29531101   7.610   4.789   5.103 -1.2339  4.7282 -0.6803
   74MOL   C29631102   0.340   4.704   4.468 -0.4500 -0.0005 -0.3698
   74MOL   C29731103   0.356   4.555   4.423 -0.0996  0.6224 -0.4677
   74MOL   C29831104   0.414   4.542   4.286 -0.2319 -0.0375 -0.7221
   74MOL   O29931105   0.523   4.596   4.252  0.2638 -0.0422  0.1755
   74MOL   O30031106   0.347   4.466   4.205 -0.4627  0.1717 -0.3871
   74MOL   C30131107   0.386   4.433   4.073 -0.8935 -0.0606  0.0189
   74MOL   C30231108   0.388   4.280   4.056  0.0394  0.7212 -0.2316
   74MOL   C30331109   0.414   4.244   3.910  0.0549  0.0158  0.0527
   74MOL   C30431110   0.448   4.094   3.883  0.2822 -0.3597  0.6819
   74MOL   H30531111   0.338   4.698   4.576 -1.3308  0.5717 -0.3458
   74MOL   H30631112   0.436   4.748   4.440  0.6702 -2.9942 -1.3686
   74MOL   H30731113   0.254   4.523   4.405 -0.1307  0.0723  0.6811
   74MOL   H30831114   0.487   4.468   4.051 -1.1925  1.5411  1.0574
   74MOL   H30931115   0.317   4.478   4.001 -1.7756 -2.5327 -0.7430
   74MOL   H31031116   0.475   4.254   4.116 -0.1138 -0.7370 -0.6280
   74MOL   H31131117   0.291   4.238   4.084 -0.5537  0.2788 -2.8223
   74MOL   H31231118   0.501   4.301   3.879  0.1609 -0.7248 -1.0321
   74MOL   H31331119   0.322   4.276   3.860 -1.0678  0.0601  2.0659
   74MOL   H31431120   0.475   4.073   3.780  0.1638 -1.2921  0.8347
   74MOL   H31531121   0.362   4.031   3.905 -0.8618  1.0303  0.2866
   74MOL   H31631122   0.535   4.064   3.942 -0.3520 -1.5507  1.0323
   74MOL   C31731123   0.425   4.453   4.518 -0.6563 -0.3687  0.0407
   74MOL   C31831124   0.338   4.411   4.640 -0.3793  0.1369 -0.8732
   74MOL   C31931125   0.203   4.347   4.599 -0.3471  0.1586  0.2741
   74MOL   O32031126   0.100   4.363   4.655 -0.0418  0.1895 -0.7214
   74MOL   O32131127   0.224   4.250   4.514 -0.2168  0.2010  0.1717
   74MOL   C32231128   0.120   4.181   4.443  0.2356 -0.0216 -0.2116
   74MOL   C32331129   0.107   4.222   4.294  0.0742 -0.7352  0.1565
   74MOL   C32431130   0.035   4.351   4.295 -0.0582  0.1041  0.3791
   74MOL   C32531131   0.016   4.402   4.152  0.1631 -0.0657 -0.1558
   74MOL   H32631132   0.509   4.508   4.560  1.0761 -4.2879  1.9119
   74MOL   H32731133   0.468   4.371   4.460  0.3114 -0.6923  1.2056
   74MOL   H32831134   0.315   4.506   4.688  2.0027 -0.9187  2.6329
   74MOL   H32931135   0.024   4.188   4.496 -0.4255 -2.7477 -0.9896
   74MOL   H33031136   0.154   4.078   4.443  0.7160  0.1392 -0.2652
   74MOL   H33131137   0.211   4.225   4.260 -0.0868  3.6569 -0.2054
   74MOL   H33231138   0.054   4.148   4.234 -0.6862 -0.6657  0.7378
   74MOL   H33331139   0.096   4.419   4.355  0.3647 -1.4424  1.7125
   74MOL   H33431140   7.794   4.338   4.349 -0.2305  0.0316  0.0592
   74MOL   H33531141   7.777   4.369   4.105  0.6591 -0.9434 -0.5444
   74MOL   H33631142   0.099   4.390   4.082  0.7389  0.4292  0.4339
   74MOL   H33731143   0.001   4.510   4.155 -0.3940 -0.1754  2.4996
   74MOL   C33831144   0.418   4.327   4.746 -0.5923  0.0256  0.3940
   74MOL   C33931145   0.477   4.420   4.855 -0.3015 -0.3590 -0.4493
   74MOL   C34031146   0.377   4.453   4.972 -0.0548 -0.2778  0.2490
   74MOL   O34131147   0.402   4.421   5.087 -1.0589 -0.4396  0.6816
   74MOL   O34231148   0.262   4.501   4.925  0.0841 -0.4621  0.3833
   74MOL   C34331149   0.153   4.526   5.014  0.6539  0.0281  0.0109
   74MOL   C34431150   0.052   4.409   5.031 -0.2621 -0.0480  0.2807
   74MOL   C34531151   0.106   4.278   5.085 -0.7860 -0.8934 -0.5241
   74MOL   C34631152   7.842   4.184   5.113 -0.5871 -0.7123  0.6157
   74MOL   H34731153   0.491   4.263   4.696  1.7692  0.9398  2.6058
   74MOL   H34831154   0.339   4.263   4.785  2.8620 -3.2121  2.5259
   74MOL   H34931155   0.490   4.511   4.796  1.1144 -0.4134 -0.2497
   74MOL   H35031156   0.092   4.603   4.967  0.3031 -0.2271  0.0525
   74MOL   H35131157   0.190   4.559   5.111 -0.4735  1.1057  0.0875
   74MOL   H35231158   7.827   4.448   5.096  0.2417  3.2481 -0.9709
   74MOL   H35331159   7.848   4.395   4.939  2.0563 -1.9814 -0.9159
   74MOL   H35431160   0.162   4.292   5.178  2.2320 -2.9015 -1.9239
   74MOL   H35531161   0.176   4.242   5.009 -1.5523 -1.3278 -1.0266
   74MOL   H35631162   0.019   4.092   5.162 -1.3416 -0.5693  1.3684
   74MOL   H35731163   7.783   4.160   5.025 -1.6203 -0.1602  1.1368
   74MOL   H35831164   7.761   4.216   5.179  1.1607  1.9422  1.5940
   74MOL   C35931165   0.621   4.378   4.898  0.5117  0.2028 -0.0078
   74MOL   C36031166   0.732   4.377   4.791 -0.1515 -0.2941 -0.1885
   74MOL   C36131167   0.781   4.520   4.759  0.9503 -1.0555 -0.0746
   74MOL   O36231168   0.881   4.571   4.807  0.3923  0.6005  0.3014
   74MOL   O36331169   0.694   4.592   4.677 -0.4820 -0.0697 -0.1487
   74MOL   C36431170   0.722   4.724   4.622 -0.0757  0.0228  0.9427
   74MOL   C36531171   0.809   4.713   4.494  0.1736  0.6086  0.1948
   74MOL   C36631172   0.850   4.851   4.430 -0.4502  0.5126  0.5494
   74MOL   C36731173   0.926   4.838   4.291 -0.3562 -0.4589 -0.2859
   74MOL   H36831174   0.606   4.276   4.933  2.3378 -0.5101 -1.2137
   74MOL   H36931175   0.655   4.436   4.984  2.6675 -2.0871  0.7447
   74MOL   H37031176   0.688   4.332   4.702  1.0318 -0.9807 -0.4315
   74MOL   H37131177   0.772   4.794   4.690 -0.7863  1.8099 -0.3470
   74MOL   H37231178   0.628   4.766   4.586  0.6591  0.3642 -0.6117
   74MOL   H37331179   0.896   4.648   4.507 -0.9787 -1.6751 -2.8931
   74MOL   H37431180   0.745   4.650   4.432 -0.2714 -1.0278  2.2600
   74MOL   H37531181   0.903   4.910   4.505 -1.2962  0.8629  0.8812
   74MOL   H37631182   0.765   4.917   4.416 -1.4676 -0.9650 -0.3815
   74MOL   H37731183   0.865   4.808   4.206 -1.6199 -0.7307  0.7034
   74MOL   H37831184   1.015   4.777   4.309  2.1873  2.2891 -2.9280
   74MOL   H37931185   0.974   4.930   4.260  0.5760 -0.6231  0.6318
   74MOL   C38031186   0.841   4.290   4.852  0.2716  0.0879  0.7478
   74MOL   C38131187   0.808   4.135   4.844 -0.7309  0.1707 -0.5080
   74MOL   C38231188   0.840   4.074   4.709  0.1601 -0.2891  0.7192
   74MOL   O38331189   0.945   4.105   4.658 -0.5979 -0.1930 -0.0361
   74MOL   O38431190   0.746   3.997   4.664  0.0080 -0.2441  0.2872
   74MOL   C38531191   0.765   3.966   4.521 -0.6965  0.2755 -0.5837
   74MOL   C38631192   0.635   3.914   4.452  0.1356 -0.4940 -0.3632
   74MOL   C38731193   0.520   4.011   4.453  0.0025  0.6454 -0.4885
   74MOL   C38831194   0.477   4.056   4.312  0.4997 -0.9845 -0.2409
   74MOL   H38931195   0.867   4.322   4.953 -0.7170  0.3294  0.9277
   74MOL   H39031196   0.936   4.317   4.805  0.8232 -0.4284  1.5683
   74MOL   H39131197   0.701   4.117   4.858 -0.6110  0.1328  0.3236
   74MOL   H39231198   0.849   3.896   4.515 -0.4719  0.3940  0.9860
   74MOL   H39331199   0.815   4.045   4.465 -0.2606  1.3899  1.3445
   74MOL   H39431200   0.669   3.895   4.350 -0.1062 -0.9171 -0.3671
   74MOL   H39531201   0.609   3.815   4.491 -0.5037  0.2624  1.1330
   74MOL   H39631202   0.562   4.100   4.499  1.0947 -0.0298 -0.1631
   74MOL   H39731203   0.436   3.980   4.516 -0.5109 -0.0281 -1.4795
   74MOL   H39831204   0.431   4.154   4.327  1.1075 -0.4326 -1.8812
   74MOL   H39931205   0.401   3.982   4.288 -0.9549  0.3878  0.0613
   74MOL   H40031206   0.548   4.058   4.229 -0.8206 -0.9977 -1.3698
   74MOL   C40131207   0.892   4.054   4.942  0.2119  0.0312 -0.1134
   74MOL   C40231208   0.854   4.072   5.090 -0.9499 -0.0779  0.4771
   74MOL   C40331209   0.718   4.022   5.128 -0.2530 -0.0882 -0.1914
   74MOL   O40431210   0.655   3.940   5.064  0.0130  1.0967  0.0981
   74MOL   O40531211   0.677   4.086   5.239  0.1143 -0.0054 -0.0928
   74MOL   C40631212   0.543   4.075   5.275  0.1693 -0.0732 -0.4530
   74MOL   C40731213   0.525   4.148   5.411 -0.0232 -0.1814 -0.0913
   74MOL   C40831214   0.380   4.162   5.449 -0.2264 -0.0591  0.1268
   74MOL   C40931215   0.362   4.209   5.596  0.3536 -0.7055 -0.2941
   74MOL   H41031216   0.997   4.085   4.945  0.3273 -0.2272 -1.1087
   74MOL   H41131217   0.875   3.950   4.915  2.3450 -0.2242 -0.5887
   74MOL   H41231218   0.872   4.176   5.119  0.2611 -0.6289  1.7910
   74MOL   H41331219   0.529   3.968   5.290 -0.0505  0.1772  1.3008
   74MOL   H41431220   0.477   4.123   5.203  1.7436 -0.4565 -2.1767
   74MOL   H41531221   0.580   4.086   5.481  1.8914  0.0623 -1.3310
   74MOL   H41631222   0.569   4.248   5.409  1.3385 -0.7601  0.9046
   74MOL   H41731223   0.332   4.067   5.426  0.5142 -0.6352  0.9528
   74MOL   H41831224   0.336   4.230   5.376 -2.6466 -2.0689 -0.3654
   74MOL   H41931225   0.432   4.161   5.666  1.7044  0.8764 -0.5217
   74MOL   H42031226   0.259   4.186   5.622  0.3498 -1.1839 -0.7245
   74MOL   H42131227   0.382   4.316   5.599  0.0885 -0.6600 -0.1622
   74MOL   H42231228   0.935   4.017   5.139  1.3126  0.9182 -2.0258
   75MOL     C131229   0.030   0.740   7.403  0.7775 -0.5003 -0.3939
   75MOL     C231230   7.795   0.612   7.422  0.0132  0.2773 -0.5717
   75MOL     C331231   7.681   0.632   7.530 -0.2126 -0.4321 -0.2006
   75MOL     O431232   7.644   0.537   7.594  0.2278  0.2121 -0.0194
   75MOL     O531233   7.636   0.759   7.546  0.6193  0.1501  0.9226
   75MOL     C631234   7.513   0.780   7.611 -0.1049  0.9431 -0.2028
   75MOL     C731235   7.440   0.908   7.571  0.1555  0.2266  0.2590
   75MOL     C831236   7.291   0.917   7.611 -0.4597  0.0917  0.5759
   75MOL     C931237   7.215   1.046   7.565 -0.0905  0.0541  0.3603
   75MOL    H1031238   0.099   0.744   7.488 -0.6914  1.3440  0.7719
   75MOL    H1131239   0.081   0.727   7.308 -0.7900 -0.8851 -1.2067
   75MOL    H1231240   0.019   0.542   7.454  0.4962  0.6620 -0.8829
   75MOL    H1331241   7.536   0.799   7.716  0.9941  2.2049 -0.6604
   75MOL    H1431242   7.453   0.689   7.609 -1.3658  1.7510 -3.1536
   75MOL    H1531243   7.500   0.998   7.580  0.4121  0.1929 -1.0072
   75MOL    H1631244   7.438   0.892   7.463  0.7377 -1.0649  0.4254
   75MOL    H1731245   7.288   0.919   7.720 -0.1792 -2.1955  0.6343
   75MOL    H1831246   7.236   0.827   7.584 -0.2043 -0.1361  0.8195
   75MOL    H1931247   7.233   1.128   7.634  1.6510  0.0404 -0.0429
   75MOL    H2031248   7.108   1.032   7.549  0.0183 -0.7820  0.3331
   75MOL    H2131249   7.249   1.064   7.463  0.9502 -2.4355  0.2344
   75MOL    H2231250   7.825   0.832   7.419 -1.6577 -1.9220 -0.8241
   75MOL    C2331251   7.742   0.561   7.287  0.0375 -0.3793 -0.7103
   75MOL    C2431252   7.628   0.637   7.210  0.0392 -0.6441 -0.0941
   75MOL    C2531253   7.683   0.755   7.135  0.0687  0.0732 -0.3608
   75MOL    O2631254   7.771   0.742   7.044  0.1621  0.6861 -0.2339
   75MOL    O2731255   7.620   0.869   7.173  0.2321 -0.1398  0.2385
   75MOL    C2831256   7.653   0.986   7.102  0.1506 -0.9390  0.1058
   75MOL    C2931257   7.666   1.100   7.208  0.3021 -0.1037  0.5325
   75MOL    C3031258   7.527   1.146   7.269 -0.1763  0.6731 -0.5376
   75MOL    C3131259   7.546   1.266   7.359  0.1690 -0.2883  0.1232
   75MOL    H3231260   7.709   0.458   7.298  0.3704 -0.8471 -3.6700
   75MOL    H3331261   7.832   0.556   7.226  0.0775 -0.2928 -0.6581
   75MOL    H3431262   7.564   0.685   7.284  1.1973  0.3461  0.2863
   75MOL    H3531263   7.572   1.012   7.033  0.7600  0.9607  0.0741
   75MOL    H3631264   7.744   0.986   7.043  0.9016  0.5269  1.2285
   75MOL    H3731265   7.745   1.080   7.281 -0.0615 -2.4557  0.3207
   75MOL    H3831266   7.703   1.181   7.146 -1.9110  2.1692  2.0830
   75MOL    H3931267   7.483   1.062   7.324  0.5539 -1.1528 -2.6638
   75MOL    H4031268   7.460   1.176   7.189 -0.7446 -0.0091 -0.3264
   75MOL    H4131269   7.610   1.343   7.316 -0.7056  0.2990 -0.1501
   75MOL    H4231270   7.594   1.227   7.449  0.8165  0.1597 -0.0223
   75MOL    H4331271   7.450   1.310   7.388  0.0843  1.5838 -2.8106
   75MOL    C4431272   7.550   0.550   7.113  0.0072  0.0111  0.1569
   75MOL    C4531273   7.413   0.502   7.163 -0.5220  0.6218 -0.1489
   75MOL    C4631274   7.299   0.598   7.131 -0.2776 -0.3799 -1.1481
   75MOL    O4731275   7.215   0.578   7.048  0.4977 -0.3954 -0.1158
   75MOL    O4831276   7.299   0.711   7.213 -0.5300 -0.1403 -0.0429
   75MOL    C4931277   7.205   0.813   7.185 -0.1390  0.5719 -0.1372
   75MOL    C5031278   7.088   0.805   7.280  0.7539  0.0676 -0.4270
   75MOL    C5131279   6.971   0.896   7.230  0.3369  0.1397 -0.1507
   75MOL    C5231280   6.829   0.868   7.283 -0.5371  0.1248  0.1077
   75MOL    H5331281   7.614   0.468   7.082 -1.1479 -0.7034 -0.3681
   75MOL    H5431282   7.535   0.597   7.016  0.2033 -1.9919 -0.8591
   75MOL    H5531283   7.414   0.489   7.272 -0.2329 -0.5565 -0.2932
   75MOL    H5631284   7.179   0.811   7.080  2.0329 -0.5978 -0.6737
   75MOL    H5731285   7.257   0.909   7.194 -2.4741  1.7045  2.0957
   75MOL    H5831286   7.044   0.705   7.283  0.0643  0.3723 -0.1235
   75MOL    H5931287   7.105   0.833   7.384 -0.6502 -1.3453  0.2118
   75MOL    H6031288   6.968   0.895   7.121  0.3727 -0.2178 -0.1484
   75MOL    H6131289   7.001   0.999   7.251 -0.9074  0.4118  0.3189
   75MOL    H6231290   6.789   0.767   7.269  0.3127 -0.2906  0.6725
   75MOL    H6331291   6.774   0.921   7.205 -0.4934 -0.5624 -0.4045
   75MOL    H6431292   6.803   0.898   7.384 -0.3089 -2.2993  0.9268
   75MOL    C6531293   7.390   0.367   7.102  0.0502  0.3622 -0.2903
   75MOL    C6631294   7.485   0.245   7.154  0.0464  0.3148 -0.2796
   75MOL    C6731295   7.434   0.177   7.284 -0.3333  0.3472 -0.1038
   75MOL    O6831296   7.487   0.174   7.394  0.0131 -0.1089 -0.1496
   75MOL    O6931297   7.314   0.126   7.263 -0.4411 -0.0287  0.1885
   75MOL    C7031298   7.244   0.051   7.366  0.5498  0.3865 -0.8224
   75MOL    C7131299   7.148   7.811   7.302 -0.1379  0.5022  0.2871
   75MOL    C7231300   7.189   7.690   7.229  0.1232 -0.1253 -0.1696
   75MOL    C7331301   7.280   7.589   7.301  0.1267  0.3040 -0.1160
   75MOL    H7431302   7.392   0.368   6.993 -0.1351 -0.2113 -0.3028
   75MOL    H7531303   7.290   0.332   7.128  0.1080  0.7147  0.4103
   75MOL    H7631304   7.587   0.284   7.156  0.3362 -0.4982  1.6472
   75MOL    H7731305   7.198   0.118   7.440  0.3799  1.0425 -1.5167
   75MOL    H7831306   7.324   7.847   7.412 -0.3025 -0.6434 -0.5940
   75MOL    H7931307   7.072   7.787   7.377 -1.0570  0.6103 -0.5874
   75MOL    H8031308   7.091   0.013   7.227 -1.1245 -0.1076  0.5712
   75MOL    H8131309   7.242   7.712   7.136  1.2238 -1.6988  0.0724
   75MOL    H8231310   7.097   7.642   7.196  0.8245 -0.7730 -1.2037
   75MOL    H8331311   7.246   7.564   7.402  0.5598 -0.0984 -0.0735
   75MOL    H8431312   7.371   7.638   7.335 -1.8523  3.3547  1.0389
   75MOL    H8531313   7.320   7.504   7.247  2.1612 -0.1119  1.9834
   75MOL    C8631314   7.502   0.124   7.062  0.4171 -0.3096  0.2926
   75MOL    C8731315   7.559   0.145   6.913  0.7412  0.3122  0.2896
   75MOL    C8831316   7.699   0.217   6.908  0.5097 -0.3411 -0.6627
   75MOL    O8931317   7.779   0.204   7.002  0.1858  0.3204 -0.2932
   75MOL    O9031318   7.716   0.281   6.792  0.6181  0.3862 -0.5007
   75MOL    C9131319   7.838   0.338   6.746  0.2202  0.4203  0.1192
   75MOL    C9231320   0.109   0.253   6.740  0.2626  0.0831 -0.2837
   75MOL    C9331321   0.090   0.110   6.673 -0.3106 -0.2200 -1.2388
   75MOL    C9431322   0.227   0.044   6.649  0.5254 -0.1230  0.1360
   75MOL    H9531323   7.411   0.065   7.048  1.2618 -0.9562 -2.8937
   75MOL    H9631324   7.572   0.060   7.115  0.1296  0.3199  1.4452
   75MOL    H9731325   7.487   0.209   6.861  1.4138  1.4995  0.8116
   75MOL    H9831326   0.001   0.432   6.799  4.1707  0.2165 -0.5649
   75MOL    H9931327   7.827   0.367   6.641  1.7961 -1.8939 -0.7287
   75MOL   H10031328   0.186   0.298   6.678  0.1471  2.4967  1.2549
   75MOL   H10131329   0.150   0.257   6.841 -2.2452 -0.3602  0.7829
   75MOL   H10231330   0.034   0.119   6.580 -0.2423 -0.4501 -1.3026
   75MOL   H10331331   0.045   0.042   6.745  0.1947  0.3109 -0.4049
   75MOL   H10431332   0.261   0.097   6.559 -1.9455  2.4843  0.6560
   75MOL   H10531333   0.213   7.791   6.628  1.3341 -0.4399  1.1635
   75MOL   H10631334   0.308   0.056   6.721  0.7468  2.6764 -0.4794
   75MOL   C10731335   7.576   0.008   6.841 -0.8466  0.2319  0.0316
   75MOL   C10831336   7.597   0.018   6.686  0.6725  0.2765 -0.0047
   75MOL   C10931337   7.652   7.736   6.634 -0.2451 -1.0862  1.1223
   75MOL   O11031338   7.755   7.722   6.570 -0.0617 -0.1538 -0.3056
   75MOL   O11131339   7.583   7.637   6.679  0.1252 -0.1933 -0.2266
   75MOL   C11231340   7.615   7.504   6.645  0.1701 -0.0496  0.5227
   75MOL   C11331341   7.560   7.488   6.496  0.0219 -0.5344  0.3018
   75MOL   C11431342   7.546   7.331   6.463 -0.1158  0.0229  0.2871
   75MOL   C11531343   7.524   7.326   6.307 -0.2931  0.0648 -1.5789
   75MOL   H11631344   7.489   7.801   6.870 -2.2325  1.0512 -2.3483
   75MOL   H11731345   7.661   7.808   6.885  0.0669  0.2637 -1.6717
   75MOL   H11831346   7.677   0.089   6.667  0.7489  0.2090  0.0673
   75MOL   H11931347   7.566   7.444   6.722  0.7222  1.2715  1.9496
   75MOL   H12031348   7.719   7.473   6.649 -0.0048 -0.8711 -0.8990
   75MOL   H12131349   7.471   7.541   6.460 -1.4226 -2.2362  1.3178
   75MOL   H12231350   7.629   7.538   6.427 -0.4440 -0.1501  0.1093
   75MOL   H12331351   7.472   7.277   6.521  1.9819 -1.3083  1.8223
   75MOL   H12431352   7.634   7.270   6.485  0.6675  0.7888 -0.6281
   75MOL   H12531353   7.600   7.344   6.231 -0.5247 -0.9906 -2.0790
   75MOL   H12631354   7.444   7.389   6.268 -2.1954  0.3755  2.5319
   75MOL   H12731355   7.496   7.229   6.266 -1.1034 -0.8383  1.0069
   75MOL   C12831356   7.470   0.065   6.607  0.2472  0.4871 -0.6094
   75MOL   C12931357   7.497   0.096   6.459  0.2743  0.1588 -0.7141
   75MOL   C13031358   7.362   0.111   6.382  0.2266  0.3221  0.2604
   75MOL   O13131359   7.327   0.209   6.318 -0.1992 -0.2981 -0.6992
   75MOL   O13231360   7.283   7.853   6.394 -1.0359 -0.4220  0.9252
   75MOL   C13331361   7.160   7.839   6.323 -0.9170 -0.1119  0.2067
   75MOL   C13431362   7.089   7.730   6.396 -0.0321 -0.0930 -0.0336
   75MOL   C13531363   7.146   7.588   6.361 -0.2741  0.4032  0.4490
   75MOL   C13631364   7.059   7.459   6.387 -0.0369 -0.1530 -0.0342
   75MOL   H13731365   7.405   0.140   6.651 -1.4305 -0.7549 -0.9444
   75MOL   H13831366   7.409   7.828   6.609  0.0205  0.6620  0.9921
   75MOL   H13931367   7.533   0.010   6.403  0.3853  0.8367 -1.6908
   75MOL   H14031368   7.181   7.800   6.223 -2.8403  1.3668 -0.8019
   75MOL   H14131369   7.103   0.079   6.322  0.7753  0.9901  2.0914
   75MOL   H14231370   7.070   7.753   6.501 -0.5722 -1.8901  0.2873
   75MOL   H14331371   6.984   7.723   6.366  0.0791 -2.6425  0.0466
   75MOL   H14431372   7.226   7.579   6.435  0.6811 -0.3356 -0.6423
   75MOL   H14531373   7.183   7.593   6.258  0.1494  0.0319  0.5782
   75MOL   H14631374   6.979   7.463   6.313  0.5482  0.6907 -0.6401
   75MOL   H14731375   7.026   7.461   6.490 -1.6315 -0.4104 -0.5263
   75MOL   H14831376   7.114   7.368   6.366  1.4259  0.5754  0.5661
   75MOL   C14931377   7.579   0.228   6.444 -0.5682  0.8214 -1.0062
   75MOL   C15031378   7.637   0.239   6.299  0.6537 -0.1133 -0.4542
   75MOL   C15131379   7.681   0.379   6.268 -0.1374 -0.2081  0.2187
   75MOL   O15231380   7.726   0.451   6.354  0.4423 -0.1463 -0.6892
   75MOL   O15331381   7.671   0.410   6.135  0.2166 -0.1401 -0.0859
   75MOL   C15431382   7.695   0.546   6.098  0.7834  0.4509 -0.6328
   75MOL   C15531383   7.831   0.550   6.025 -0.5857 -0.4253  0.0033
   75MOL   C15631384   0.033   0.689   5.991  0.4023  0.7923  0.3282
   75MOL   C15731385   0.173   0.685   5.917 -0.0378 -0.9263 -0.0493
   75MOL   H15831386   7.668   0.219   6.507 -0.2872 -3.7076 -1.8474
   75MOL   H15931387   7.533   0.322   6.474  1.3047  1.0592  1.3254
   75MOL   H16031388   7.559   0.216   6.227  2.3834  0.4136 -2.5401
   75MOL   H16131389   7.703   0.612   6.184 -0.7664  1.2970 -1.1238
   75MOL   H16231390   7.615   0.576   6.031 -2.3873 -4.0599  0.8947
   75MOL   H16331391   0.046   0.501   6.095 -0.2007  1.7299  1.1734
   75MOL   H16431392   7.830   0.504   5.926  2.0811  2.4439 -1.4185
   75MOL   H16531393   0.039   0.744   6.085  0.8086 -2.1052  2.0519
   75MOL   H16631394   7.811   0.731   5.924  0.1010 -0.5623 -0.2022
   75MOL   H16731395   0.242   0.628   5.980 -1.3172 -1.5989  0.7600
   75MOL   H16831396   0.202   0.788   5.897 -1.4823 -0.5158 -0.1000
   75MOL   H16931397   0.166   0.640   5.818  0.2735 -1.6300  0.2372
   75MOL   C17031398   7.751   0.132   6.272  0.4085  0.0380 -0.0187
   75MOL   C17131399   7.752   0.079   6.127 -0.2868 -0.6880 -0.1238
   75MOL   C17231400   7.829   0.168   6.039 -0.5811  0.1966 -0.0656
   75MOL   O17331401   0.085   0.215   6.072  0.4427 -0.0661  0.2324
   75MOL   O17431402   7.767   0.190   5.921  0.1781 -0.0062  0.1969
   75MOL   C17531403   0.001   0.230   5.810  0.1009  0.0170 -0.1889
   75MOL   C17631404   0.025   0.102   5.731 -0.5613  0.6349  0.6538
   75MOL   C17731405   7.758   0.019   5.684  0.7916 -0.1099  0.0584
   75MOL   C17831406   7.781   7.743   5.599  1.0654 -0.2527  0.1408
   75MOL   H17931407   7.764   0.054   6.347  1.5160 -0.4286 -0.6855
   75MOL   H18031408   7.839   0.190   6.298  0.6008  0.8245 -2.3366
   75MOL   H18131409   7.647   0.078   6.098 -0.0847  1.6128 -1.0135
   75MOL   H18231410   0.099   0.269   5.841 -0.1056  1.4433 -1.2963
   75MOL   H18331411   7.799   0.307   5.757  0.7342  0.5085 -0.1379
   75MOL   H18431412   0.100   0.130   5.657 -2.0577  0.2599 -1.0480
   75MOL   H18531413   0.081   0.038   5.798  1.1024  1.4301  0.0412
   75MOL   H18631414   7.685   0.087   5.638 -1.1907 -0.8275  2.0451
   75MOL   H18731415   7.707   7.845   5.776  0.3316 -0.5793 -0.3286
   75MOL   H18831416   0.008   7.748   5.525 -0.4879  0.3355 -1.5321
   75MOL   H18931417   7.688   7.715   5.551 -1.0266  1.9352  2.6988
   75MOL   H19031418   7.803   7.662   5.668 -2.0189 -1.6717 -0.4698
   75MOL   C19131419   7.817   7.787   6.122 -0.7077  0.3326 -0.2841
   75MOL   C19231420   7.737   7.675   6.200 -0.3533  0.0312 -0.0442
   75MOL   C19331421   7.589   7.658   6.151 -0.0873 -0.2610 -0.5289
   75MOL   O19431422   7.491   7.667   6.230 -0.5692  0.0543 -0.3777
   75MOL   O19531423   7.578   7.605   6.023 -0.2829  0.2308 -0.3539
   75MOL   C19631424   7.453   7.543   5.971 -0.1163 -0.4034  0.4132
   75MOL   C19731425   7.351   7.644   5.926 -0.1246 -0.5631  0.0574
   75MOL   C19831426   7.398   7.735   5.811 -0.3329 -0.5635 -0.0047
   75MOL   C19931427   7.438   7.667   5.684 -0.3061  0.0134 -0.2166
   75MOL   H20031428   0.065   7.789   6.165 -0.0167  0.0212 -1.8767
   75MOL   H20131429   7.825   7.754   6.019 -1.2969 -1.1977  0.1575
   75MOL   H20231430   7.730   7.704   6.305 -0.8504 -1.1358  0.2525
   75MOL   H20331431   7.389   7.505   6.050 -3.2700  2.1929 -0.7805
   75MOL   H20431432   7.474   7.460   5.904 -2.0147 -1.2383  0.8198
   75MOL   H20531433   7.256   7.598   5.898 -0.3024 -0.3774  0.3471
   75MOL   H20631434   7.322   7.696   6.017  0.2323 -0.6815  0.2372
   75MOL   H20731435   7.486   7.793   5.835 -2.0015  1.9704  0.1454
   75MOL   H20831436   7.316   7.804   5.791  0.6490  0.6364  0.0581
   75MOL   H20931437   7.353   7.607   5.654 -0.1122  0.4262 -1.6571
   75MOL   H21031438   7.528   7.611   5.707 -1.3758 -1.5315  0.2436
   75MOL   H21131439   7.467   7.741   5.609  0.9309  0.1962  0.4259
   75MOL   C21231440   7.817   7.540   6.206 -0.0163  0.1397  0.5447
   75MOL   C21331441   7.845   7.462   6.071 -0.3089 -0.0483  0.0114
   75MOL   C21431442   0.113   7.518   5.998 -0.6080 -0.4969 -0.4084
   75MOL   O21531443   0.095   7.561   5.886 -0.6550  0.2178  0.2567
   75MOL   O21631444   0.222   7.507   6.071  0.2547  0.6778  0.5254
   75MOL   C21731445   0.346   7.565   6.024  0.1954 -0.6645 -0.8282
   75MOL   C21831446   0.406   7.628   6.154  0.0411 -0.1022  0.0455
   75MOL   C21931447   0.420   7.534   6.270  0.4616  0.6409  0.0256
   75MOL   C22031448   0.443   7.597   6.406 -0.0751 -0.0044  0.3480
   75MOL   H22131449   7.762   7.472   6.272  1.6009 -2.4164 -0.6436
   75MOL   H22231450   0.055   7.558   6.262  0.5922 -1.2477  0.0186
   75MOL   H22331451   7.763   7.482   6.002 -0.3888 -2.0670 -0.5185
   75MOL   H22431452   0.331   7.647   5.954 -0.6823 -0.6728 -0.6531
   75MOL   H22531453   0.403   7.484   5.978  0.8185 -0.4274 -0.4814
   75MOL   H22631454   0.498   7.684   6.136  0.3916 -0.4749  0.6445
   75MOL   H22731455   0.330   7.703   6.178 -2.7874 -2.7861 -0.1616
   75MOL   H22831456   0.508   7.471   6.253  0.2692  0.3852 -0.0309
   75MOL   H22931457   0.333   7.472   6.292 -0.0522  1.6962  0.9873
   75MOL   H23031458   0.519   7.671   6.383  0.5166 -0.1379  1.8509
   75MOL   H23131459   0.481   7.513   6.464  0.2930  0.7286  1.1726
   75MOL   H23231460   0.354   7.646   6.444 -1.4371 -0.0174 -2.6647
   75MOL   C23331461   7.848   7.304   6.090 -0.2131 -0.0638  0.3316
   75MOL   C23431462   7.812   7.231   5.951  0.0388  0.8679  0.5338
   75MOL   C23531463   0.027   7.097   5.935 -0.4040  0.1570  0.1573
   75MOL   O23631464   0.022   7.013   6.026 -0.2171 -0.1732 -0.5950
   75MOL   O23731465   0.073   7.072   5.807 -0.4905  0.1095  0.6479
   75MOL   C23831466   0.128   6.947   5.769 -0.5046 -0.2896  0.2874
   75MOL   C23931467   0.019   6.845   5.754  0.1917 -0.9727 -0.3105
   75MOL   C24031468   0.070   6.708   5.711  0.3814  0.4094 -0.1844
   75MOL   C24131469   7.818   6.596   5.722 -0.2658 -0.7254 -0.0786
   75MOL   H24231470   7.786   7.259   6.167  0.4790 -0.4825  0.6459
   75MOL   H24331471   0.098   7.281   6.118 -1.0064 -1.5836  2.0739
   75MOL   H24431472   7.852   7.294   5.871  2.0906 -0.6459  0.3234
   75MOL   H24531473   0.212   6.916   5.831  0.1050  0.8529  0.0319
   75MOL   H24631474   0.169   6.964   5.670 -0.8611  0.2652  0.2350
   75MOL   H24731475   7.813   6.833   5.845 -0.1470 -1.6022 -0.6083
   75MOL   H24831476   7.796   6.877   5.684  2.5796  1.3822 -1.8817
   75MOL   H24931477   0.156   6.672   5.767  0.0138  0.9541  0.7412
   75MOL   H25031478   0.104   6.713   5.608 -0.3545  2.4871 -0.3538
   75MOL   H25131479   7.726   6.626   5.672  0.1772 -0.7515 -0.9122
   75MOL   H25231480   7.790   6.577   5.826 -0.6956 -0.9397 -0.2333
   75MOL   H25331481   0.002   6.503   5.677 -1.0161 -1.2938  0.4619
   75MOL   C25431482   7.655   7.217   5.938  0.7322  0.0201  0.2620
   75MOL   C25531483   7.587   7.179   5.804  0.1337  0.0451 -0.4331
   75MOL   C25631484   7.450   7.108   5.825 -0.2142  0.2727  0.0536
   75MOL   O25731485   7.428   6.999   5.777  0.8706 -0.4838 -0.3541
   75MOL   O25831486   7.366   7.181   5.901  0.0416 -0.1030 -0.1418
   75MOL   C25931487   7.237   7.114   5.910 -0.1293 -0.0717  0.2407
   75MOL   C26031488   7.133   7.207   5.972 -0.4265 -0.3489 -0.0578
   75MOL   C26131489   7.080   7.316   5.885 -0.2847 -0.0532  0.0159
   75MOL   C26231490   7.017   7.430   5.957 -0.4510  0.3063 -0.2245
   75MOL   H26331491   7.614   7.314   5.964 -0.6261 -0.6609  0.7062
   75MOL   H26431492   7.616   7.164   6.025 -0.2528 -2.1633 -1.4516
   75MOL   H26531493   7.648   7.103   5.754  1.6310  1.0733 -0.2187
   75MOL   H26631494   7.260   7.029   5.974  0.9784 -0.4620 -0.6669
   75MOL   H26731495   7.203   7.084   5.811 -1.5714 -0.0396  0.7190
   75MOL   H26831496   7.049   7.147   6.006  0.3148 -1.3858 -0.0213
   75MOL   H26931497   7.176   7.245   6.064 -0.9002  1.9030 -0.7382
   75MOL   H27031498   7.005   7.272   5.819  0.8506  1.0251 -2.0621
   75MOL   H27131499   7.165   7.357   5.830  0.0064 -1.3835 -0.5243
   75MOL   H27231500   6.940   7.413   6.032  0.7848 -0.8587  0.7928
   75MOL   H27331501   6.971   7.491   5.879  0.4239  0.7020 -0.4454
   75MOL   H27431502   7.100   7.490   5.996 -0.2473 -0.5310  0.6421
   75MOL   C27531503   7.576   7.304   5.712  0.0692 -0.1482  0.2563
   75MOL   C27631504   7.586   7.281   5.561  0.6989 -0.2979 -0.1843
   75MOL   C27731505   7.449   7.214   5.513 -0.3983  0.9345  0.0402
   75MOL   O27831506   7.446   7.094   5.474  0.0823  0.3195 -0.4680
   75MOL   O27931507   7.347   7.294   5.528  0.5825  0.0786  0.1896
   75MOL   C28031508   7.217   7.253   5.493  0.4685  0.8815 -0.0116
   75MOL   C28131509   7.151   7.380   5.448 -0.2140 -0.1585 -0.3408
   75MOL   C28231510   7.004   7.365   5.404 -0.1442  0.0067  0.1808
   75MOL   C28331511   6.915   7.293   5.502 -0.5429 -0.3650 -0.1392
   75MOL   H28431512   7.648   7.379   5.744  0.4894 -0.9717  1.2952
   75MOL   H28531513   7.483   7.351   5.741 -0.1057  1.7809 -3.1459
   75MOL   H28631514   7.667   7.213   5.540  0.6343 -0.1307 -0.9631
   75MOL   H28731515   7.181   7.220   5.590  0.7688 -0.7153 -0.4320
   75MOL   H28831516   7.227   7.173   5.420  1.3932 -0.0965  1.1714
   75MOL   H28931517   7.157   7.439   5.539  1.1356  0.5340 -0.8522
   75MOL   H29031518   7.219   7.426   5.375  0.8643 -0.9948  0.1124
   75MOL   H29131519   7.014   7.308   5.311 -0.0669 -3.2738  2.1164
   75MOL   H29231520   6.950   7.456   5.376 -1.5279  0.0730  2.9123
   75MOL   H29331521   6.910   7.346   5.598  0.5806 -0.9377  0.2448
   75MOL   H29431522   6.967   7.198   5.520 -0.8878 -1.1487 -3.1250
   75MOL   H29531523   6.809   7.290   5.477 -0.7189  1.2302  0.3952
   75MOL   C29631524   7.616   7.413   5.488  0.0086 -0.2705 -0.4725
   75MOL   C29731525   7.700   7.390   5.355 -0.9610 -0.4214 -0.6334
   75MOL   C29831526   7.620   7.321   5.244  0.5565  0.5454 -0.2680
   75MOL   O29931527   7.660   7.219   5.192  0.4205  0.0819 -0.5477
   75MOL   O30031528   7.510   7.389   5.214 -0.5343  0.0743 -0.0359
   75MOL   C30131529   7.427   7.330   5.122  0.0241 -0.1287  0.6586
   75MOL   C30231530   7.387   7.437   5.023 -0.3804 -0.5876 -0.6699
   75MOL   C30331531   7.331   7.563   5.081 -0.1706 -1.6165  0.8895
   75MOL   C30431532   7.283   7.665   4.974  0.3072 -0.2547 -0.7128
   75MOL   H30531533   7.678   7.475   5.553 -0.8943  1.7281 -1.4796
   75MOL   H30631534   7.528   7.472   5.462  0.0926 -0.4948 -1.2581
   75MOL   H30731535   7.771   7.312   5.378  0.8867  1.6308  0.8693
   75MOL   H30831536   7.338   7.300   5.178 -0.3577 -1.0351 -0.4200
   75MOL   H30931537   7.467   7.238   5.079  2.7581  1.4140 -0.1550
   75MOL   H31031538   7.467   7.459   4.953  1.0405 -1.8685  0.5307
   75MOL   H31131539   7.302   7.395   4.970 -2.1893  0.0336  1.6371
   75MOL   H31231540   7.405   7.608   5.147 -0.7376  0.3131  0.2713
   75MOL   H31331541   7.253   7.545   5.155  0.8498 -0.8196  2.1862
   75MOL   H31431542   7.290   7.771   4.997 -0.5103  0.1431 -2.2520
   75MOL   H31531543   7.179   7.649   4.945  0.2014 -3.7179  1.3114
   75MOL   H31631544   7.348   7.652   4.887  0.7886 -0.5796 -0.3123
   75MOL   C31731545   7.772   7.513   5.311  0.0789 -0.3449  0.6871
   75MOL   C31831546   7.834   7.520   5.169  0.4896  0.3348 -0.7470
   75MOL   C31931547   0.001   7.672   5.144  1.0024  0.1634 -0.5060
   75MOL   O32031548   0.110   7.725   5.175  0.1904  0.5423 -0.0312
   75MOL   O32131549   7.746   7.730   5.092  0.7248  0.3753  0.2240
   75MOL   C32231550   7.737   0.015   5.082 -0.6117 -0.8002  0.5537
   75MOL   C32331551   7.596   0.052   5.121 -0.1445  0.1630  0.6427
   75MOL   C32431552   7.552   0.198   5.094  0.3101 -0.3323  0.0299
   75MOL   C32531553   7.429   0.255   5.170  0.0771  1.5268 -0.3057
   75MOL   H32631554   0.003   7.528   5.380  0.7106 -1.6887  0.2388
   75MOL   H32731555   7.703   7.595   5.326 -1.5354 -1.5526 -0.0200
   75MOL   H32831556   7.772   7.502   5.082 -1.1515  0.2220  0.4080
   75MOL   H32931557   7.772   0.035   4.980 -0.1363 -0.7268  0.7265
   75MOL   H33031558   7.809   0.063   5.148 -1.8457  0.1151  1.2576
   75MOL   H33131559   7.525   7.831   5.084 -0.6088  0.5464  0.7463
   75MOL   H33231560   7.592   0.025   5.227 -1.5196  0.8121  0.7684
   75MOL   H33331561   7.514   0.209   4.993  1.1312 -0.4724 -0.2921
   75MOL   H33431562   7.640   0.262   5.097 -0.0971  0.2218  0.3202
   75MOL   H33531563   7.414   0.363   5.166 -2.8016  1.1122 -1.9980
   75MOL   H33631564   7.453   0.228   5.273 -1.3564  3.5443  0.5961
   75MOL   H33731565   7.335   0.205   5.145  2.4279 -2.3176 -1.9427
   75MOL   C33831566   0.109   7.427   5.155  0.1350  0.1467 -0.0105
   75MOL   C33931567   0.171   7.449   5.018 -0.6278 -0.0170 -0.5095
   75MOL   C34031568   0.313   7.500   5.023  0.1202 -0.0560  0.7341
   75MOL   O34131569   0.352   7.577   4.940 -0.0101  0.2445 -0.1198
   75MOL   O34231570   0.383   7.450   5.114  0.5992 -0.2083 -0.1232
   75MOL   C34331571   0.505   7.507   5.136  0.0193 -0.2313  0.0611
   75MOL   C34431572   0.590   7.391   5.193 -0.1845 -0.1581 -0.0201
   75MOL   C34531573   0.737   7.422   5.231  0.0917 -0.2195 -0.0132
   75MOL   C34631574   0.825   7.449   5.106 -0.0892  0.1806  0.1143
   75MOL   H34731575   0.090   7.322   5.175 -2.3619  0.8193  1.3619
   75MOL   H34831576   0.180   7.449   5.234 -1.3576  0.6685  1.2092
   75MOL   H34931577   0.120   7.534   4.973  0.6374  1.6812  1.1692
   75MOL   H35031578   0.495   7.583   5.213 -0.6568 -2.5513  2.3564
   75MOL   H35131579   0.558   7.546   5.049 -0.6449 -2.7683 -1.5434
   75MOL   H35231580   0.538   7.363   5.285  1.2109  0.1115  0.8670
   75MOL   H35331581   0.588   7.298   5.137 -0.6162  0.8227 -1.6494
   75MOL   H35431582   0.771   7.328   5.277 -0.0250 -0.0448  0.4385
   75MOL   H35531583   0.745   7.503   5.304 -0.6456 -1.4710  1.5058
   75MOL   H35631584   0.794   7.391   5.020 -3.4951 -0.9568  2.0097
   75MOL   H35731585   0.931   7.427   5.119 -0.2649 -1.5472 -1.1188
   75MOL   H35831586   0.826   7.554   5.077 -1.8795  0.3914  0.7560
   75MOL   C35931587   0.163   7.330   4.917 -0.1992  0.9118  0.1485
   75MOL   C36031588   0.019   7.294   4.860 -0.1151  0.2634  0.3968
   75MOL   C36131589   7.835   7.396   4.761 -0.2482  0.0425 -0.3374
   75MOL   O36231590   7.847   7.381   4.640 -0.0385  0.7378  0.0317
   75MOL   O36331591   7.795   7.504   4.835  0.5344  0.1343  0.1776
   75MOL   C36431592   7.748   7.620   4.772 -0.0875  0.6867 -0.3130
   75MOL   C36531593   7.602   7.619   4.722 -0.2528  0.1444  0.6034
   75MOL   C36631594   7.567   7.752   4.658 -0.1178 -0.0742  0.2249
   75MOL   C36731595   7.445   7.738   4.572  0.2539  0.1620  0.0232
   75MOL   H36831596   0.196   7.248   4.982 -0.5834  2.1595  1.9678
   75MOL   H36931597   0.227   7.360   4.834  1.3798 -1.7250  0.3631
   75MOL   H37031598   7.797   7.292   4.939 -1.1906 -0.5584 -0.6287
   75MOL   H37131599   7.816   7.625   4.687  0.5540  1.3330  0.2269
   75MOL   H37231600   7.762   7.704   4.840  0.8921  2.1684 -2.2802
   75MOL   H37331601   7.592   7.543   4.644  0.8507  1.1757 -0.5755
   75MOL   H37431602   7.524   7.602   4.795 -1.6353 -2.1016 -1.3014
   75MOL   H37531603   7.654   7.782   4.599  0.4509 -0.9235  0.6254
   75MOL   H37631604   7.563   7.843   4.717 -1.0805  0.7976 -1.1495
   75MOL   H37731605   7.446   7.833   4.519 -0.7039 -0.4721 -1.1507
   75MOL   H37831606   7.353   7.716   4.626 -0.4256  1.1182 -0.7315
   75MOL   H37931607   7.451   7.661   4.495  1.1594 -0.4226  0.6756
   75MOL   C38031608   0.026   7.153   4.800  0.6780  0.2837 -0.4058
   75MOL   C38131609   7.798   7.053   4.888  0.0694 -0.3319 -0.5307
   75MOL   C38231610   7.640   7.077   4.880  0.0312 -0.0242 -0.2868
   75MOL   O38331611   7.585   7.190   4.865 -0.1708 -0.3254  0.4836
   75MOL   O38431612   7.571   6.960   4.902 -0.2676  0.3447  0.1800
   75MOL   C38531613   7.429   6.970   4.889  0.3236  0.1595 -0.1640
   75MOL   C38631614   7.357   6.888   4.993 -0.6069 -0.4585  0.2162
   75MOL   C38731615   7.336   6.966   5.125 -0.7802 -0.4882  0.0184
   75MOL   C38831616   7.291   6.877   5.239 -0.0349 -0.7131 -0.4660
   75MOL   H38931617   0.130   7.123   4.789  0.2766 -0.9215 -1.0549
   75MOL   H39031618   7.824   7.152   4.706  1.7455 -0.2978 -1.0275
   75MOL   H39131619   7.831   7.060   4.991 -0.2786 -1.0129 -0.3722
   75MOL   H39231620   7.411   6.933   4.788 -0.1145 -0.3849  0.1150
   75MOL   H39331621   7.395   7.074   4.887 -0.9378 -0.2421  0.0568
   75MOL   H39431622   7.259   6.862   4.952 -0.1608 -0.1090 -1.0949
   75MOL   H39531623   7.421   6.803   5.014  2.1041  0.9441 -1.9795
   75MOL   H39631624   7.259   7.042   5.106  1.6700  2.1700  0.3997
   75MOL   H39731625   7.432   7.010   5.151 -0.9786  0.2177 -0.4320
   75MOL   H39831626   7.189   6.842   5.224 -0.3307 -0.9127  1.8174
   75MOL   H39931627   7.281   6.938   5.329 -0.8160  0.6084 -1.4378
   75MOL   H40031628   7.357   6.792   5.255  1.5103  0.1902 -1.9290
   75MOL   C40131629   7.842   6.910   4.833 -0.1838 -0.5853 -0.8392
   75MOL   C40231630   0.036   6.808   4.938  0.0237  0.0059  0.3371
   75MOL   C40331631   0.113   6.693   4.890 -0.4830 -0.7211 -0.3697
   75MOL   O40431632   0.221   6.664   4.941 -0.3811 -0.3778  0.1360
   75MOL   O40531633   0.053   6.623   4.790  0.6757  0.1563  0.8752
   75MOL   C40631634   0.120   6.505   4.755 -0.6192  0.2405  0.1304
   75MOL   C40731635   0.055   6.419   4.656  0.1258 -0.5235  0.4018
   75MOL   C40831636   0.087   6.464   4.517 -0.4464  0.1610 -0.8775
   75MOL   C40931637   7.849   6.402   4.416 -0.3580 -0.0625  0.3704
   75MOL   H41031638   0.075   6.920   4.767  0.7418  2.7092  0.7345
   75MOL   H41131639   7.765   6.863   4.771 -1.3469 -1.6208  1.3628
   75MOL   H41231640   7.798   6.777   4.989  0.5998 -1.6058  0.3859
   75MOL   H41331641   0.125   6.453   4.851 -0.9020  0.7667  0.4377
   75MOL   H41431642   0.218   6.545   4.728 -1.2686  2.6719  1.2183
   75MOL   H41531643   0.102   6.322   4.667 -2.5515 -2.0291 -1.0423
   75MOL   H41631644   7.801   6.406   4.666 -0.2578  2.0505  0.0017
   75MOL   H41731645   0.187   6.428   4.492  0.5324  2.6041 -0.5928
   75MOL   H41831646   0.081   6.573   4.517  0.3527  0.2104 -1.0560
   75MOL   H41931647   0.013   6.460   4.325 -3.9941  0.6139  0.0420
   75MOL   H42031648   7.748   6.431   4.442 -0.4050  0.6200 -0.5330
   75MOL   H42131649   0.035   6.302   4.399 -1.0041  0.0712 -2.1257
   75MOL   H42231650   0.093   6.859   5.015  0.7754  0.0650 -0.2549
   76MOL     C131651   6.851   5.672   7.522 -1.0295  0.9241  0.5300
   76MOL     C231652   6.767   5.746   7.626 -0.4332  0.1868 -0.1212
   76MOL     C331653   6.653   5.660   7.675  0.3103  0.0766 -0.0564
   76MOL     O431654   6.670   5.540   7.699 -0.3347 -0.2874 -0.5549
   76MOL     O531655   6.535   5.718   7.682  0.0652 -0.2043 -0.0176
   76MOL     C631656   6.414   5.644   7.705 -0.4201 -0.6864 -0.3109
   76MOL     C731657   6.330   5.652   7.575  0.4249 -0.3237 -0.2459
   76MOL     C831658   6.187   5.609   7.582 -0.4955 -0.0956  0.4481
   76MOL     C931659   6.104   5.609   7.457  0.5591 -0.1731  0.0243
   76MOL    H1031660   6.872   5.572   7.558  0.6830  1.1197  0.1468
   76MOL    H1131661   6.802   5.664   7.425  0.3580  0.3045 -0.1330
   76MOL    H1231662   6.729   5.833   7.574 -0.1637 -0.7350 -1.8877
   76MOL    H1331663   6.358   5.694   7.784  1.1349 -0.5712  0.7251
   76MOL    H1431664   6.429   5.538   7.724  0.9963 -0.7237 -1.4928
   76MOL    H1531665   6.336   5.754   7.536  1.0959 -0.2706 -0.0045
   76MOL    H1631666   6.382   5.589   7.502  0.5995 -0.6092  0.1259
   76MOL    H1731667   6.139   5.682   7.648 -2.1862 -0.4969 -0.3092
   76MOL    H1831668   6.178   5.512   7.630 -1.5626 -0.5575 -0.6783
   76MOL    H1931669   6.014   5.548   7.463  1.5413 -1.9321 -2.2209
   76MOL    H2031670   6.165   5.553   7.385 -1.6700 -0.8997 -1.3340
   76MOL    H2131671   6.085   5.712   7.426  3.3289  0.7171  1.1059
   76MOL    H2231672   6.942   5.724   7.490  0.0941 -0.0850  2.0489
   76MOL    C2331673   6.853   5.790   7.744 -0.7776  0.0866 -0.4487
   76MOL    C2431674   6.883   5.943   7.738 -0.7293  0.3316 -0.5835
   76MOL    C2531675   6.771   6.012   7.810 -0.3519 -0.6765  0.5460
   76MOL    O2631676   6.766   6.047   0.076  0.1730 -0.2526  0.0885
   76MOL    O2731677   6.672   6.038   7.721 -0.8830  0.1931  0.3903
   76MOL    C2831678   6.552   6.091   7.765 -0.0376 -0.1120  1.0848
   76MOL    C2931679   6.462   6.130   7.647 -0.2268 -0.0465 -0.0743
   76MOL    C3031680   6.323   6.192   7.693  0.3114  0.5730  0.1455
   76MOL    C3131681   6.222   6.199   7.587  0.6587  0.0569 -0.3971
   76MOL    H3231682   6.940   5.723   7.744  0.7300  2.0025  0.4167
   76MOL    H3331683   6.804   5.774   7.840 -2.0907  1.1562 -0.9302
   76MOL    H3431684   6.880   5.983   7.637 -1.3051  0.3832 -0.5453
   76MOL    H3531685   6.575   6.179   7.825 -0.0762 -0.1191  1.1097
   76MOL    H3631686   6.517   6.009   7.827 -1.7642 -1.0272 -1.0422
   76MOL    H3731687   6.502   6.211   7.587 -0.9502  0.9234  0.7204
   76MOL    H3831688   6.453   6.039   7.589  0.2021 -0.5290  0.5997
   76MOL    H3931689   6.336   6.288   7.743  1.8520  1.0123 -1.0871
   76MOL    H4031690   6.288   6.124   7.770 -1.2641  0.8149 -0.3287
   76MOL    H4131691   6.128   6.235   7.630  0.7572  0.6736 -0.6882
   76MOL    H4231692   6.204   6.099   7.547 -1.2400 -0.3203  1.2908
   76MOL    H4331693   6.252   6.267   7.507  1.6872 -2.7256 -2.4390
   76MOL    C4431694   7.023   5.992   7.790  0.1066 -0.2701 -0.2450
   76MOL    C4531695   7.136   5.935   7.696 -0.0160 -0.6488 -0.1666
   76MOL    C4631696   7.183   6.051   7.605 -0.0296  0.3436  0.1985
   76MOL    O4731697   7.162   6.065   7.485  0.1986 -0.0249  0.2520
   76MOL    O4831698   7.255   6.144   7.678 -0.4486  0.7599 -0.4202
   76MOL    C4931699   7.301   6.268   7.621  0.2625  0.2140 -0.8143
   76MOL    C5031700   7.273   6.385   7.709  0.2667  0.0120 -0.1396
   76MOL    C5131701   7.329   6.524   7.672 -0.3198  0.1449 -0.0452
   76MOL    C5231702   7.260   6.577   7.546  0.9152 -0.8003 -0.4616
   76MOL    H5331703   7.036   5.962   0.041 -0.4776  2.8049  0.7672
   76MOL    H5431704   7.028   6.100   7.804  1.0045 -0.5549  1.8122
   76MOL    H5531705   7.083   5.883   7.616 -1.0851  0.2585 -0.0499
   76MOL    H5631706   7.239   6.292   7.535 -0.4087 -1.3842 -0.7862
   76MOL    H5731707   7.407   6.263   7.595 -0.3407 -0.2575 -3.2531
   76MOL    H5831708   7.165   6.396   7.720  0.3139 -0.6523  1.0581
   76MOL    H5931709   7.308   6.359   7.809 -0.6110 -0.5887  0.0146
   76MOL    H6031710   7.437   6.530   7.660 -0.3879  1.3805 -0.1023
   76MOL    H6131711   7.296   6.585   7.757 -0.6103 -0.4445  0.2731
   76MOL    H6231712   7.299   6.538   7.452 -0.3616  1.7244 -2.0946
   76MOL    H6331713   7.272   6.685   7.540 -0.4185 -0.5274  1.3923
   76MOL    H6431714   7.153   6.564   7.536  0.8816 -1.1924  0.4110
   76MOL    C6531715   7.251   5.854   7.758 -0.1217 -0.2688  0.1615
   76MOL    C6631716   7.367   5.807   7.659  0.1541  0.2485  0.6905
   76MOL    C6731717   7.495   5.775   7.734 -0.3337  0.7137 -0.3510
   76MOL    O6831718   7.596   5.830   7.698  0.0170  0.6292 -0.0649
   76MOL    O6931719   7.473   5.687   7.832 -0.2549 -0.4123  0.3153
   76MOL    C7031720   7.577   5.667   0.071 -0.4018  0.0992  0.0503
   76MOL    C7131721   7.525   5.691   0.213  0.0144 -0.4712  0.2294
   76MOL    C7231722   7.429   5.586   0.267  0.1572  0.3048  0.4120
   76MOL    C7331723   7.352   5.631   0.389 -0.1700  0.5003  0.2793
   76MOL    H7431724   7.217   5.764   7.809 -0.9908  0.6612  1.2664
   76MOL    H7531725   7.292   5.917   7.837  0.6470  1.1522 -1.3229
   76MOL    H7631726   7.395   5.892   7.597  0.5266 -0.6703 -0.4112
   76MOL    H7731727   7.659   5.733   0.044  0.0705 -0.4415  0.1529
   76MOL    H7831728   7.618   5.567   0.056  2.3213  0.9874  1.2113
   76MOL    H7931729   7.603   5.719   0.285 -3.0882  2.8729  2.4925
   76MOL    H8031730   7.475   5.787   0.200 -0.8961 -1.0647 -0.6724
   76MOL    H8131731   7.479   5.492   0.289 -1.0314 -0.6586 -0.8848
   76MOL    H8231732   7.366   5.551   0.185 -1.0104  2.2145  0.4643
   76MOL    H8331733   7.330   5.737   0.377  2.5761  0.9535 -1.1022
   76MOL    H8431734   7.419   5.629   0.475  0.8614 -1.6324 -0.5270
   76MOL    H8531735   7.275   5.559   0.419  2.1042 -2.4243 -0.6224
   76MOL    C8631736   7.323   5.688   7.576  0.4756 -0.1118 -0.1093
   76MOL    C8731737   7.250   5.723   7.439 -0.4599  0.1549 -0.6698
   76MOL    C8831738   7.328   5.802   7.340  0.3175  0.1264  1.0186
   76MOL    O8931739   7.450   5.802   7.345  0.0688 -0.2083 -0.5427
   76MOL    O9031740   7.263   5.864   7.246 -0.4673 -0.2398 -0.3668
   76MOL    C9131741   7.326   5.958   7.162 -0.1906  0.0249  0.4483
   76MOL    C9231742   7.380   6.084   7.235  0.4205  0.0552 -0.9234
   76MOL    C9331743   7.454   6.182   7.138  0.0991 -0.7685  0.6026
   76MOL    C9431744   7.516   6.314   7.184  0.1572  0.3765  0.1812
   76MOL    H9531745   7.258   5.629   7.641  0.1759 -1.7679 -1.8565
   76MOL    H9631746   7.398   5.611   7.556  1.7353  0.6669  1.5066
   76MOL    H9731747   7.165   5.785   7.468  0.0318  1.6662 -2.3646
   76MOL    H9831748   7.252   5.991   7.089  0.9884  0.3027 -0.6363
   76MOL    H9931749   7.405   5.908   7.106 -2.3612 -0.7008 -2.0736
   76MOL   H10031750   7.298   6.136   7.284 -0.4409 -0.8969 -1.3295
   76MOL   H10131751   7.441   6.059   7.321 -2.0514 -0.9024  0.5947
   76MOL   H10231752   7.385   6.207   7.057 -0.1855  0.4916  1.2271
   76MOL   H10331753   7.534   6.128   7.089  0.6498 -0.0240  0.6827
   76MOL   H10431754   7.607   6.289   7.238 -0.1849  0.0535  0.6171
   76MOL   H10531755   7.443   6.366   7.247 -0.4645  2.8950 -2.5144
   76MOL   H10631756   7.552   6.374   7.101  0.4065  1.7661  1.2842
   76MOL   C10731757   7.193   5.598   7.379  0.0937 -0.2669  0.0410
   76MOL   C10831758   7.277   5.508   7.290  0.8633  0.2481 -0.1418
   76MOL   C10931759   7.365   5.416   7.381  0.7467 -0.0930  0.0898
   76MOL   O11031760   7.316   5.326   7.440  0.2797  0.1166 -0.3328
   76MOL   O11131761   7.501   5.444   7.370  0.2619 -0.4413 -0.1434
   76MOL   C11231762   7.583   5.345   7.424 -0.0015 -0.5201 -0.2481
   76MOL   C11331763   7.732   5.388   7.454 -0.1887  0.4260  0.3407
   76MOL   C11431764   7.733   5.492   7.563  0.0250 -0.5586 -0.1467
   76MOL   C11531765   0.012   5.547   7.615 -0.1063  0.4220  0.1300
   76MOL   H11631766   7.100   5.628   7.329  0.8033  1.0166 -0.5302
   76MOL   H11731767   7.147   5.539   7.459  2.9494 -1.3650  0.9316
   76MOL   H11831768   7.336   5.573   7.224 -1.5763  0.7323 -1.9161
   76MOL   H11931769   7.571   5.255   7.364  1.3972  0.3247 -1.8282
   76MOL   H12031770   7.544   5.318   7.522 -2.9995  0.1916 -1.2099
   76MOL   H12131771   7.785   5.304   7.500  2.2202  2.0583  0.6520
   76MOL   H12231772   7.781   5.435   7.369 -1.2387  2.3952  0.7901
   76MOL   H12331773   7.676   5.457   7.649 -1.2369  1.8757  0.0461
   76MOL   H12431774   7.666   5.571   7.528  1.4340 -0.1605 -2.0322
   76MOL   H12531775   7.834   5.622   7.688 -0.0841  1.1834 -0.6330
   76MOL   H12631776   0.063   5.595   7.531 -0.4773 -2.6929 -1.9355
   76MOL   H12731777   0.074   5.464   7.645 -0.4817 -0.3305 -1.1307
   76MOL   C12831778   7.197   5.416   7.192 -0.4453  0.1769  0.0734
   76MOL   C12931779   7.277   5.360   7.074  0.2950  0.2365  0.5545
   76MOL   C13031780   7.234   5.220   7.037 -0.3454 -1.4635 -0.1715
   76MOL   O13131781   7.187   5.195   6.930 -0.6756 -0.0919 -0.4806
   76MOL   O13231782   7.249   5.138   7.138 -0.4159  0.8937 -0.0379
   76MOL   C13331783   7.211   5.005   7.116  0.4339 -0.3844  0.7684
   76MOL   C13431784   7.238   4.917   7.239 -0.5814  0.4462  0.5348
   76MOL   C13531785   7.392   4.887   7.267 -0.3284 -0.8100  0.6413
   76MOL   C13631786   7.443   4.983   7.375  0.0096  0.2640 -0.0528
   76MOL   H13731787   7.114   5.475   7.154 -0.3275 -0.3490 -1.0343
   76MOL   H13831788   7.146   5.343   7.254 -0.4166  0.3288  0.2771
   76MOL   H13931789   7.380   5.350   7.109  0.1913 -0.6821  0.6188
   76MOL   H14031790   7.269   4.968   7.032 -0.4938  0.5672 -0.3116
   76MOL   H14131791   7.107   5.001   7.085  1.0706  0.0629 -1.5542
   76MOL   H14231792   7.194   4.954   7.331 -1.6993 -2.6221  1.2848
   76MOL   H14331793   7.195   4.817   7.229  0.5712 -0.0785  0.7459
   76MOL   H14431794   7.455   4.889   7.178 -0.5929  0.3833  0.4678
   76MOL   H14531795   7.396   4.788   7.311  1.9907 -0.9623  0.1590
   76MOL   H14631796   7.549   4.970   7.399  0.0234  0.0960 -0.1995
   76MOL   H14731797   7.377   4.966   7.460 -1.7912 -0.4237 -1.5586
   76MOL   H14831798   7.431   5.086   7.342  0.0209  0.6026  0.9935
   76MOL   C14931799   7.280   5.457   6.958 -0.2157  0.1295  0.3477
   76MOL   C15031800   7.390   5.448   6.845  0.1262  0.8530 -0.1186
   76MOL   C15131801   7.533   5.424   6.903  0.1271 -0.2695  0.6072
   76MOL   O15231802   7.592   5.317   6.904  0.0882  0.3404  0.7011
   76MOL   O15331803   7.577   5.532   6.962 -0.0701 -0.1868 -0.2768
   76MOL   C15431804   7.706   5.529   7.025 -0.1767  0.3345  0.0575
   76MOL   C15531805   7.744   5.650   7.112 -0.6564  0.5585 -0.4722
   76MOL   C15631806   7.765   5.782   7.045  0.0978 -0.3422  0.1248
   76MOL   C15731807   0.011   5.874   7.118  0.3602 -0.0117 -0.8176
   76MOL   H15831808   7.303   5.554   7.002  2.3075 -0.2425 -0.0521
   76MOL   H15931809   7.183   5.464   6.910 -0.0112  2.0885  0.1488
   76MOL   H16031810   7.399   5.547   6.801  0.7866  1.0489  0.4544
   76MOL   H16131811   7.778   5.516   6.945 -1.7347  0.8332 -1.4397
   76MOL   H16231812   7.724   5.441   7.088  0.4234  0.5844  0.2344
   76MOL   H16331813   7.675   5.674   7.194 -0.8373 -1.3305 -0.0407
   76MOL   H16431814   7.832   5.618   7.167 -1.1951 -0.7173 -0.3314
   76MOL   H16531815   7.671   5.836   7.033  0.8261  1.4412  2.1424
   76MOL   H16631816   7.807   5.755   6.948 -0.9039 -1.1257 -0.0935
   76MOL   H16731817   0.106   5.826   7.138  0.6615  0.5718 -0.8318
   76MOL   H16831818   7.836   5.898   7.220 -0.2669  1.4032 -1.3009
   76MOL   H16931819   0.022   5.965   7.058  0.6102  0.0985 -0.6044
   76MOL   C17031820   7.362   5.360   6.717  0.6047  0.0987 -0.6522
   76MOL   C17131821   7.220   5.379   6.655 -0.4588  0.2116  0.1886
   76MOL   C17231822   7.201   5.529   6.625  0.2887  0.2069  0.4193
   76MOL   O17331823   7.106   5.587   6.684  0.3438  0.6683  0.3360
   76MOL   O17431824   7.283   5.583   6.534  0.3798 -0.5321 -0.5003
   76MOL   C17531825   7.252   5.710   6.484 -0.1185  0.0606 -0.7233
   76MOL   C17631826   7.159   5.682   6.361  0.3609 -0.4511 -1.0172
   76MOL   C17731827   7.115   5.805   6.280  0.0844  0.0152 -0.0154
   76MOL   C17831828   7.067   5.773   6.131 -0.5146 -0.4373 -0.5137
   76MOL   H17931829   7.388   5.258   6.745 -0.9449 -0.4716 -1.2325
   76MOL   H18031830   7.439   5.375   6.642  1.3464  1.6139  0.3823
   76MOL   H18131831   7.143   5.354   6.728 -0.1307 -1.2394  0.0361
   76MOL   H18231832   7.348   5.756   6.459 -0.0207 -0.0248 -0.5041
   76MOL   H18331833   7.203   5.766   6.563  0.0312 -1.2907  0.3464
   76MOL   H18431834   7.201   5.613   6.289  0.7975  0.1604 -1.3500
   76MOL   H18531835   7.065   5.638   6.394  1.1507  0.5631  2.9256
   76MOL   H18631836   7.207   5.861   6.269 -0.2398  0.4549 -0.5370
   76MOL   H18731837   7.045   5.872   6.331  1.1141 -0.2101  1.6929
   76MOL   H18831838   7.012   5.852   6.079  0.3017 -0.5155 -1.5121
   76MOL   H18931839   7.014   5.678   6.142 -0.3951 -0.3516  0.8451
   76MOL   H19031840   7.153   5.744   6.072 -1.0422 -3.2144  0.0134
   76MOL   C19131841   7.187   5.288   6.534 -0.6537 -0.1480 -0.3036
   76MOL   C19231842   7.123   5.149   6.569  0.6374 -0.1946  0.0777
   76MOL   C19331843   7.067   5.087   6.439 -0.4768  0.0120 -0.2271
   76MOL   O19431844   6.952   5.063   6.424  0.2643 -0.2332  0.5770
   76MOL   O19531845   7.167   5.060   6.348 -0.0545 -0.0013 -0.3950
   76MOL   C19631846   7.151   4.980   6.239  0.2773 -0.2119 -0.0632
   76MOL   C19731847   7.207   4.846   6.253 -1.3972 -0.0383 -0.6613
   76MOL   C19831848   7.201   4.775   6.118 -0.0258  0.0433 -0.2074
   76MOL   C19931849   7.263   4.633   6.139  0.5336 -0.8078 -0.0567
   76MOL   H20031850   7.279   5.272   6.477  0.2183 -1.3882  1.3698
   76MOL   H20131851   7.108   5.342   6.482  0.3104  1.2709 -0.3501
   76MOL   H20231852   7.030   5.164   6.624 -0.3070 -2.0557 -0.9751
   76MOL   H20331853   7.195   5.035   6.155 -0.3308 -1.6456 -1.3530
   76MOL   H20431854   7.045   4.987   6.216 -0.1244  1.6471  2.1609
   76MOL   H20531855   7.308   4.859   6.292 -0.2118  1.0826 -3.9120
   76MOL   H20631856   7.147   4.795   6.328  0.6052 -1.8049 -0.2097
   76MOL   H20731857   7.238   4.828   6.030 -0.7231  0.5479 -0.1992
   76MOL   H20831858   7.096   4.753   6.098  0.5577 -2.7037 -0.4979
   76MOL   H20931859   7.282   4.578   6.047  1.8214  1.1388 -1.0010
   76MOL   H21031860   7.190   4.586   6.204  1.4246 -1.2535  0.6334
   76MOL   H21131861   7.354   4.645   6.199 -0.3220 -1.7821  1.4829
   76MOL   C21231862   7.227   5.046   6.636 -0.1598 -0.1335 -0.4590
   76MOL   C21331863   7.179   4.903   6.667 -0.7156  0.2478 -0.3635
   76MOL   C21431864   7.298   4.811   6.712 -0.9187 -0.3340 -0.2110
   76MOL   O21531865   7.347   4.828   6.820  0.4988 -0.0884  0.1930
   76MOL   O21631866   7.343   4.720   6.618 -0.0658  0.3390  0.0746
   76MOL   C21731867   7.426   4.615   6.665 -0.1363  0.2063 -0.8375
   76MOL   C21831868   7.486   4.542   6.543 -0.1856 -0.2691  0.9050
   76MOL   C21931869   7.396   4.466   6.443 -0.0498 -0.4716 -0.5167
   76MOL   C22031870   7.477   4.405   6.326 -0.6894 -0.4026  0.0029
   76MOL   H22131871   7.265   5.089   6.728 -2.8572  0.9944  0.1491
   76MOL   H22231872   7.311   5.038   6.566  0.2362  1.9451 -0.2355
   76MOL   H22331873   7.140   4.869   6.571 -1.8128  1.6081 -0.4134
   76MOL   H22431874   7.363   4.552   6.727  0.9589 -0.7728 -0.7048
   76MOL   H22531875   7.510   4.662   6.718 -2.6978  3.6918  0.3549
   76MOL   H22631876   7.544   4.620   6.493  0.1102  0.3540  2.1978
   76MOL   H22731877   7.565   4.471   6.568 -1.3538 -0.6056  3.8588
   76MOL   H22831878   7.332   4.540   6.394  0.0161  0.9854  1.5678
   76MOL   H22931879   7.332   4.404   6.505 -2.6729  1.8392 -0.8016
   76MOL   H23031880   7.414   4.345   6.260 -0.4925 -1.5690  0.8538
   76MOL   H23131881   7.547   4.330   6.363 -2.0634 -1.2889  0.8523
   76MOL   H23231882   7.531   4.480   6.269  1.9431 -0.7486  1.9745
   76MOL   C23331883   7.068   4.906   6.770 -0.8662  0.3944  0.2243
   76MOL   C23431884   6.951   4.812   6.722  0.8818  0.1940  0.1621
   76MOL   C23531885   6.968   4.663   6.746  0.7571  0.6251  0.2766
   76MOL   O23631886   7.000   4.583   6.653  0.1279  0.0140  0.4864
   76MOL   O23731887   6.950   4.634   6.880  0.0053  0.0875  0.0509
   76MOL   C23831888   6.977   4.501   6.931  0.0515 -1.0135  0.6371
   76MOL   C23931889   7.122   4.481   6.982 -0.5060 -0.3826  0.2158
   76MOL   C24031890   7.179   4.577   7.084 -0.3465 -0.7417 -1.1075
   76MOL   C24131891   7.328   4.553   7.106  0.6591  0.2282 -0.2402
   76MOL   H24231892   7.031   5.008   6.788 -2.0326 -0.2932  1.8591
   76MOL   H24331893   7.102   4.876   6.869  0.2585  1.0095  0.0259
   76MOL   H24431894   6.958   4.821   6.613 -1.1536  0.5047  0.0281
   76MOL   H24531895   6.959   4.418   6.862  0.2045 -0.6322  0.1341
   76MOL   H24631896   6.909   4.486   7.015  1.3700  0.9028  2.0996
   76MOL   H24731897   7.140   4.380   7.016 -0.3880 -0.7088 -0.7915
   76MOL   H24831898   7.196   4.485   6.902 -1.0739  0.3691 -0.2865
   76MOL   H24931899   7.124   4.571   7.178  1.2229 -0.5190 -0.1451
   76MOL   H25031900   7.168   4.676   7.041  2.6986 -0.0655 -0.4714
   76MOL   H25131901   7.394   4.554   7.020  0.4570  0.3398 -0.3966
   76MOL   H25231902   7.344   4.466   7.169  1.9497  0.3052 -0.4611
   76MOL   H25331903   7.343   4.638   7.173 -0.2632  0.7356 -0.6568
   76MOL   C25431904   6.815   4.860   6.768  0.1559 -0.5925  0.3761
   76MOL   C25531905   6.689   4.782   6.729  0.6990  0.8075 -0.5732
   76MOL   C25631906   6.639   4.699   6.846  0.0674  0.3395  0.0735
   76MOL   O25731907   6.631   4.574   6.837 -0.1789 -0.2700  0.1914
   76MOL   O25831908   6.599   4.774   6.950  0.7994 -0.0149 -1.1481
   76MOL   C25931909   6.553   4.700   7.065 -0.3043  0.1116  0.5703
   76MOL   C26031910   6.670   4.668   7.165 -0.3349  0.7228  0.4493
   76MOL   C26131911   6.710   4.776   7.273  0.5750  0.0756 -0.0172
   76MOL   C26231912   6.827   4.736   7.370 -0.2376 -0.0694  0.4670
   76MOL   H26331913   6.800   4.963   6.734 -2.2429 -0.7332  0.8960
   76MOL   H26431914   6.828   4.877   6.875 -1.3004  0.0250  0.4698
   76MOL   H26531915   6.708   4.717   6.643  2.0761  0.4320  0.0148
   76MOL   H26631916   6.507   4.606   7.033  1.4037 -1.0096  1.3538
   76MOL   H26731917   6.475   4.765   7.105  0.6836  2.3743 -1.0515
   76MOL   H26831918   6.646   4.574   7.214 -0.7704 -0.1439 -1.3868
   76MOL   H26931919   6.753   4.634   7.104 -1.0037  0.0766 -0.1107
   76MOL   H27031920   6.626   4.793   7.341  0.8029 -1.3914  0.6371
   76MOL   H27131921   6.738   4.870   7.225 -0.8307 -0.2131 -1.4595
   76MOL   H27231922   6.783   4.692   7.460 -0.3883  0.5430  0.7004
   76MOL   H27331923   6.873   4.827   7.409  2.4595 -1.3568  0.3664
   76MOL   H27431924   6.903   4.665   7.339  0.4294  1.4533 -1.5125
   76MOL   C27531925   6.579   4.890   6.695 -0.1917  0.0678 -0.5994
   76MOL   C27631926   6.555   4.920   6.542 -0.7413  0.7134  0.0837
   76MOL   C27731927   6.405   4.918   6.496  0.0065  0.1682 -0.1154
   76MOL   O27831928   6.304   4.913   6.568 -0.5092  0.5343  0.2401
   76MOL   O27931929   6.394   4.920   6.358  0.1400 -0.4352  0.2762
   76MOL   C28031930   6.267   4.956   6.300 -0.0673  0.6349  1.0135
   76MOL   C28131931   6.275   4.911   6.152  0.8961  0.3933  0.3185
   76MOL   C28231932   6.386   4.976   6.069  1.0213 -0.1339  0.2679
   76MOL   C28331933   6.358   5.126   6.045  0.3563 -0.5889 -0.2108
   76MOL   H28431934   6.598   4.985   6.745 -2.1899  1.5024 -2.4534
   76MOL   H28531935   6.481   4.858   6.731  0.6984 -0.2536  1.6318
   76MOL   H28631936   6.601   4.837   6.487 -1.7355  0.7485 -0.8165
   76MOL   H28731937   6.255   5.064   6.310 -0.2523  0.8809 -1.6504
   76MOL   H28831938   6.184   4.910   6.353 -0.0975  1.9882  2.1777
   76MOL   H28931939   6.272   4.803   6.141 -1.0792  0.4213  0.3760
   76MOL   H29031940   6.182   4.937   6.102  1.6502 -1.5273 -2.1589
   76MOL   H29131941   6.413   4.929   5.975 -1.2190  0.5655 -0.7594
   76MOL   H29231942   6.482   4.979   6.121  0.3416 -1.7385  1.6524
   76MOL   H29331943   6.364   5.190   6.134  2.0862 -0.5253 -0.3546
   76MOL   H29431944   6.270   5.145   5.984  0.9193 -0.7774 -1.0862
   76MOL   H29531945   6.441   5.169   5.989  2.0263 -1.2607  1.6583
   76MOL   C29631946   6.629   5.049   6.496  0.0882 -0.2654  0.3597
   76MOL   C29731947   6.563   5.184   6.542 -0.6171 -0.0148  0.7929
   76MOL   C29831948   6.677   5.283   6.585 -0.2323  0.6809  0.1364
   76MOL   O29931949   6.722   5.367   6.508 -0.1665  0.1877  0.1676
   76MOL   O30031950   6.722   5.250   6.706 -0.2024 -0.3320  0.5493
   76MOL   C30131951   6.841   5.312   6.763 -0.0427 -0.0973  0.6641
   76MOL   C30231952   6.823   5.384   6.901 -0.5180  0.3148 -0.5840
   76MOL   C30331953   6.767   5.293   7.008  0.0915 -0.3878 -0.7033
   76MOL   C30431954   6.847   5.162   7.028  0.1228  0.0271  0.6062
   76MOL   H30531955   6.643   5.043   6.388  0.0758 -2.4366  0.4583
   76MOL   H30631956   6.733   5.044   6.529 -0.0649  0.8970  1.0349
   76MOL   H30731957   6.496   5.170   6.627  1.6843  0.2041  2.7083
   76MOL   H30831958   6.872   5.401   6.707 -0.5363  1.2164  2.4010
   76MOL   H30931959   6.924   5.242   6.773 -0.4533 -0.3717  2.4719
   76MOL   H31031960   6.908   5.438   6.943 -1.7524  0.4347  1.8608
   76MOL   H31131961   6.749   5.461   6.882  0.4355  2.1408  2.6674
   76MOL   H31231962   6.663   5.275   6.980 -0.0930 -0.7975  0.2168
   76MOL   H31331963   6.764   5.348   7.102  0.9680 -0.2525 -0.7542
   76MOL   H31431964   6.830   5.096   6.943  1.4903  0.6717 -0.1703
   76MOL   H31531965   6.808   5.107   7.114 -3.0524  0.7761 -0.2594
   76MOL   H31631966   6.954   5.177   7.036  0.0004 -0.0960  2.7301
   76MOL   C31731967   6.477   5.249   6.427 -0.6790 -0.0510 -0.0155
   76MOL   C31831968   6.401   5.379   6.464  0.1484 -0.5931  0.4468
   76MOL   C31931969   6.340   5.452   6.339 -0.0469  0.2215 -0.4045
   76MOL   O32031970   6.269   5.396   6.255 -0.3449 -0.1109 -0.4768
   76MOL   O32131971   6.363   5.574   6.339 -0.0250 -0.3553  0.1067
   76MOL   C32231972   6.312   5.659   6.237  0.4115  0.5703 -0.5920
   76MOL   C32331973   6.265   5.798   6.275  0.1663  0.9781 -0.2373
   76MOL   C32431974   6.128   5.775   6.339 -0.1539 -0.8785  0.3336
   76MOL   C32531975   6.072   5.906   6.393  0.1106 -0.4124  0.7119
   76MOL   H32631976   6.411   5.174   6.383 -1.7930 -0.7555  2.7683
   76MOL   H32731977   6.545   5.284   6.349  0.7563  1.1320  1.7333
   76MOL   H32831978   6.471   5.442   6.519 -0.1651 -1.8152  2.3278
   76MOL   H32931979   6.245   5.605   6.170  0.3798  0.4153 -0.4319
   76MOL   H33031980   6.403   5.662   6.176  2.1824 -0.9405  1.8960
   76MOL   H33131981   6.342   5.830   6.346  0.7378 -1.8469  0.4645
   76MOL   H33231982   6.268   5.868   6.192 -2.6911 -1.5025 -2.5205
   76MOL   H33331983   6.140   5.697   6.415  3.8026  1.0892  1.8580
   76MOL   H33431984   6.055   5.752   6.262  0.2242 -0.8352 -0.0380
   76MOL   H33531985   5.969   5.894   6.429 -0.4702  0.4707 -0.6103
   76MOL   H33631986   6.080   5.984   6.318  2.4681  0.9213  2.3135
   76MOL   H33731987   6.134   5.944   6.474 -0.0784 -2.2334  1.7501
   76MOL   C33831988   6.282   5.344   6.558 -0.3048 -0.0853 -0.5693
   76MOL   C33931989   6.203   5.471   6.609  0.5498 -0.3978  0.4539
   76MOL   C34031990   6.084   5.426   6.696 -0.6821 -0.4813 -0.5571
   76MOL   O34131991   6.098   5.366   6.800  0.7019 -0.0170 -0.1081
   76MOL   O34231992   5.970   5.456   6.634  0.1842 -0.5446  0.1953
   76MOL   C34331993   5.847   5.392   6.681 -0.2467 -0.3272 -0.0818
   76MOL   C34431994   5.752   5.484   6.755 -0.4704 -0.2829  0.1807
   76MOL   C34531995   5.690   5.593   6.675 -0.0734 -0.6069  0.1743
   76MOL   C34631996   5.592   5.542   6.569 -0.3688 -0.1558 -0.2475
   76MOL   H34731997   6.332   5.291   6.639 -1.4992  0.6359  0.6559
   76MOL   H34831998   6.224   5.265   6.510  0.3964  0.1716 -1.8584
   76MOL   H34931999   6.162   5.511   6.517 -2.0064 -0.9880  1.3008
   76MOL   H35032000   5.869   5.304   6.741  0.6000  0.1527  0.3172
   76MOL   H35132001   5.794   5.359   6.591  0.0324 -0.9822 -0.0107
   76MOL   H35232002   5.676   5.421   6.802  0.2443 -0.7175  0.7730
   76MOL   H35332003   5.818   5.526   6.831 -0.9929 -1.1621  1.1422
   76MOL   H35432004   5.767   5.649   6.622  0.7761 -0.6693  1.3289
   76MOL   H35532005   5.646   5.665   6.744 -0.0878 -0.9721  0.5460
   76MOL   H35632006   5.504   5.488   6.603  1.1717 -2.0056  0.8854
   76MOL   H35732007   5.644   5.479   6.497  1.5193  1.2907 -0.2213
   76MOL   H35832008   5.564   5.631   6.513 -0.9510 -2.4141 -3.6670
   76MOL   C35932009   6.298   5.572   6.688 -0.1547  0.0030  0.3686
   76MOL   C36032010   6.225   5.707   6.737  0.2331  0.5632 -0.6058
   76MOL   C36132011   6.175   5.693   6.884 -0.5541 -0.5829  0.1733
   76MOL   O36232012   6.061   5.720   6.914  0.7903 -0.3680  0.1442
   76MOL   O36332013   6.280   5.681   6.968  0.0301 -0.1381 -0.4548
   76MOL   C36432014   6.251   5.689   7.106  0.5117 -0.4643  0.5675
   76MOL   C36532015   6.378   5.750   7.173  1.1532 -0.2975  0.1037
   76MOL   C36632016   6.498   5.659   7.161 -0.1895  0.0898  0.1119
   76MOL   C36732017   6.631   5.724   7.194 -0.5970 -0.7319  0.2022
   76MOL   H36832018   6.377   5.596   6.616 -0.8146  0.9587 -0.0381
   76MOL   H36932019   6.349   5.521   6.770 -1.5657 -0.7230  0.8005
   76MOL   H37032020   6.133   5.724   6.681  0.6832 -0.1826 -1.5714
   76MOL   H37132021   6.228   5.589   7.142 -1.5556  0.0132  0.6241
   76MOL   H37232022   6.163   5.749   7.128  0.3454 -1.6557  3.4544
   76MOL   H37332023   6.402   5.855   7.155 -0.9432  0.2396  0.1966
   76MOL   H37432024   6.363   5.759   7.281 -0.7630  2.1133 -0.2928
   76MOL   H37532025   6.505   5.612   7.062  3.5476 -1.5868  1.1053
   76MOL   H37632026   6.483   5.569   7.220 -1.8822  0.0755 -0.3015
   76MOL   H37732027   6.710   5.650   7.205  2.1960  1.9836 -0.6612
   76MOL   H37832028   6.617   5.768   7.294  1.5271  0.4320  0.0265
   76MOL   H37932029   6.659   5.807   7.129 -2.5005 -1.1383 -1.1691
   76MOL   C38032030   6.311   5.833   6.721 -0.0807 -1.2670  0.2525
   76MOL   C38132031   6.449   5.857   6.789 -0.3449 -0.0856 -0.6507
   76MOL   C38232032   6.553   5.760   6.730 -0.2458 -0.0458  0.4529
   76MOL   O38332033   6.604   5.674   6.799  0.4970  0.4583  0.3010
   76MOL   O38432034   6.585   5.790   6.610  0.2863 -0.2656 -1.0032
   76MOL   C38532035   6.681   5.722   6.537  0.4244  0.3794 -0.2989
   76MOL   C38632036   6.654   5.746   6.387 -0.2203 -0.4585  0.5371
   76MOL   C38732037   6.629   5.893   6.345  0.2124  0.0770 -0.2583
   76MOL   C38832038   6.614   5.902   6.193  0.6508 -0.1247  0.3140
   76MOL   H38932039   6.241   5.916   6.738  1.1042  0.2727 -2.0346
   76MOL   H39032040   6.322   5.841   6.612 -0.1887 -2.9248  0.1079
   76MOL   H39132041   6.440   5.826   6.893 -2.6160  0.3336 -0.7043
   76MOL   H39232042   6.690   5.617   6.566  0.0686  1.0834  2.5635
   76MOL   H39332043   6.779   5.756   6.570  1.1674 -1.4755 -0.5100
   76MOL   H39432044   6.745   5.720   6.334  0.0781  1.1791  0.2179
   76MOL   H39532045   6.578   5.681   6.345  1.8593 -1.3646 -1.8812
   76MOL   H39632046   6.709   5.957   6.382 -1.0578  0.5049  1.8139
   76MOL   H39732047   6.537   5.930   6.391  0.3120 -0.2656  0.2200
   76MOL   H39832048   6.695   5.852   6.140  0.6894  0.4753 -0.2061
   76MOL   H39932049   6.625   6.006   6.163  1.1102 -0.8471 -2.1728
   76MOL   H40032050   6.518   5.863   6.157 -0.1574 -0.3278  2.6304
   76MOL   C40132051   6.495   5.999   6.786  1.0332 -0.4846 -0.6082
   76MOL   C40232052   6.623   6.028   6.862 -0.3568 -0.0094  0.4961
   76MOL   C40332053   6.616   6.061   7.010 -0.3719  0.4243 -0.8078
   76MOL   O40432054   6.512   6.060   7.069 -0.4615 -0.1761 -0.4325
   76MOL   O40532055   6.726   6.094   7.067  0.2280  0.1400 -0.1339
   76MOL   C40632056   6.749   6.081   7.204  0.0876  0.1319  0.0707
   76MOL   C40732057   6.710   6.209   7.278 -1.1553 -0.3103  0.1683
   76MOL   C40832058   6.744   6.214   7.420 -0.1694 -0.1464 -0.0532
   76MOL   C40932059   6.733   6.355   7.474  0.1225 -0.2380  0.3577
   76MOL   H41032060   6.421   6.061   6.836  0.2405 -2.1305  0.2922
   76MOL   H41132061   6.527   6.029   6.686 -0.3293  0.1754 -0.8562
   76MOL   H41232062   6.674   6.110   6.811  0.8305 -1.6782 -1.0636
   76MOL   H41332063   6.854   6.055   7.220  0.8777  3.7327  1.3818
   76MOL   H41432064   6.686   6.004   7.248  2.5587 -0.8637  2.0424
   76MOL   H41532065   6.748   6.300   7.232  0.0206  0.1221  1.9669
   76MOL   H41632066   6.602   6.213   7.267 -0.8684  0.7484 -2.7343
   76MOL   H41732067   6.847   6.180   7.428  0.2996  1.0941 -0.7868
   76MOL   H41832068   6.686   6.147   7.485 -0.6004  1.0520  0.8178
   76MOL   H41932069   6.636   6.395   7.444  0.4953  1.3527  1.2312
   76MOL   H42032070   6.814   6.417   7.435 -0.7384  1.8577  1.8084
   76MOL   H42132071   6.750   6.360   7.581 -0.5535 -0.3730  0.4753
   76MOL   H42232072   6.687   5.939   6.855 -0.1779  0.0823  0.9355
   77MOL     C132073   0.562   5.262   6.011 -0.2002 -0.1973  0.0546
   77MOL     C232074   0.562   5.217   5.859 -0.2166  0.3566 -0.4520
   77MOL     C332075   0.424   5.160   5.826 -0.1742  0.2865  0.2165
   77MOL     O432076   0.334   5.152   5.912 -0.1560  0.8275 -0.3587
   77MOL     O532077   0.402   5.139   5.699 -0.5340  0.1551  0.2639
   77MOL     C632078   0.285   5.063   5.656 -0.4105 -0.3029 -0.5497
   77MOL     C732079   0.294   5.002   5.513 -0.2851  1.0023  0.4855
   77MOL     C832080   0.333   5.102   5.404 -1.4412 -0.3652  0.1583
   77MOL     C932081   0.341   5.043   5.262  0.2307  0.2136  0.8125
   77MOL    H1032082   0.475   5.323   6.034 -0.0866  0.5785 -1.4903
   77MOL    H1132083   0.552   5.178   6.080 -0.5508 -0.1605  0.0468
   77MOL    H1232084   0.626   5.130   5.852 -2.6187 -1.3863 -1.6484
   77MOL    H1332085   0.197   5.126   5.669 -0.8975 -1.0312 -0.3396
   77MOL    H1432086   0.274   4.974   5.718  3.0390 -0.7664 -0.4627
   77MOL    H1532087   0.350   4.909   5.510 -0.7905  0.7110 -3.5822
   77MOL    H1632088   0.197   4.969   5.476  0.2213  0.0417 -0.0012
   77MOL    H1732089   0.426   5.154   5.429 -0.0570 -2.3739 -0.6813
   77MOL    H1832090   0.266   5.188   5.413  0.1311  0.9937 -0.8530
   77MOL    H1932091   0.427   4.980   5.239  0.1370  0.0992  0.7713
   77MOL    H2032092   0.351   5.115   5.182  0.0151  0.7673  1.2825
   77MOL    H2132093   0.245   4.993   5.248 -0.2275  1.9525 -2.7769
   77MOL    H2232094   0.654   5.307   6.049 -0.5520  3.4114 -3.1147
   77MOL    C2332095   0.604   5.331   5.763 -0.9012 -0.4983 -0.1560
   77MOL    C2432096   0.746   5.388   5.773  0.2138 -0.3291  0.4698
   77MOL    C2532097   0.844   5.279   5.741  0.4003 -0.1379  0.5763
   77MOL    O2632098   0.897   5.262   5.629  0.4555  0.2223 -0.1458
   77MOL    O2732099   0.874   5.199   5.846  0.4917  0.3520  0.5241
   77MOL    C2832100   0.955   5.081   5.821 -0.5528  0.2838 -0.6133
   77MOL    C2932101   0.988   5.007   5.951 -0.4699 -1.0972  0.1412
   77MOL    C3032102   0.866   4.964   6.038  0.3968  0.2847 -0.1906
   77MOL    C3132103   0.907   4.862   6.148  0.3763  0.0259 -0.5377
   77MOL    H3232104   0.530   5.407   5.789  1.2923  1.5873  0.0979
   77MOL    H3332105   0.585   5.301   5.660  2.9138 -0.7769 -0.8526
   77MOL    H3432106   0.758   5.407   5.880  0.6825 -0.9720  0.5317
   77MOL    H3532107   1.039   5.111   5.758  1.1761 -2.0914  0.4774
   77MOL    H3632108   0.896   5.012   5.760 -1.1561  0.9254 -0.7631
   77MOL    H3732109   1.057   4.923   5.936  2.1392  1.1605 -1.0087
   77MOL    H3832110   1.047   5.078   6.009 -0.1452 -0.3777 -1.0503
   77MOL    H3932111   0.786   4.935   5.970 -1.1169  1.4179  1.1033
   77MOL    H4032112   0.841   5.057   6.087  3.0263  0.6049  0.6629
   77MOL    H4132113   0.969   4.906   6.226 -0.9392 -0.6116  0.9058
   77MOL    H4232114   0.967   4.782   6.104  0.9150 -1.6130  3.0279
   77MOL    H4332115   0.816   4.827   6.197  1.5392  0.5455  2.0910
   77MOL    C4432116   0.768   5.522   5.703 -0.2161  0.5334  0.2593
   77MOL    C4532117   0.693   5.641   5.773 -0.8550  0.3374 -0.4218
   77MOL    C4632118   0.760   5.697   5.899 -0.0948  0.5052 -0.1383
   77MOL    O4732119   0.703   5.735   6.000  0.0521  0.3695  0.4352
   77MOL    O4832120   0.894   5.698   5.886 -0.2553  0.1276 -0.0471
   77MOL    C4932121   0.973   5.717   6.002  0.3042 -0.4323 -0.5460
   77MOL    C5032122   0.985   5.596   6.097 -0.2773 -0.4405  0.4845
   77MOL    C5132123   1.063   5.631   6.227 -0.1937 -0.3547 -0.3144
   77MOL    C5232124   1.059   5.532   6.344  0.3028 -0.2381 -0.2131
   77MOL    H5332125   0.743   5.520   5.597  1.5575 -1.3779 -0.1548
   77MOL    H5432126   0.876   5.531   5.710 -0.3247  0.1682  3.0358
   77MOL    H5532127   0.595   5.614   5.810 -1.4055  1.6593 -0.8655
   77MOL    H5632128   0.929   5.802   6.053 -0.8321 -0.5126 -1.3836
   77MOL    H5732129   1.076   5.739   5.973  0.1245  0.6770 -0.3453
   77MOL    H5832130   0.882   5.567   6.117 -0.0315 -1.5731  0.1672
   77MOL    H5932131   1.029   5.509   6.049  1.4709 -0.4101  1.9521
   77MOL    H6032132   1.011   5.721   6.258  0.1590  0.0333 -0.8504
   77MOL    H6132133   1.163   5.663   6.200 -0.1957  0.6129  0.7951
   77MOL    H6232134   1.117   5.572   6.427 -0.8515  0.3959  0.2909
   77MOL    H6332135   1.093   5.431   6.324 -2.5245 -1.5867  1.4875
   77MOL    H6432136   0.955   5.526   6.375  1.5296 -1.0989  4.0339
   77MOL    C6532137   0.689   5.760   5.666 -0.6792 -0.6848  0.5629
   77MOL    C6632138   0.556   5.797   5.592  0.2107  0.5605  0.5199
   77MOL    C6732139   0.506   5.677   5.513 -0.1304  0.1312  0.6889
   77MOL    O6832140   0.537   5.661   5.395 -0.2678  0.4417  0.2414
   77MOL    O6932141   0.433   5.598   5.584  0.1679  0.4500  0.1126
   77MOL    C7032142   0.380   5.479   5.525 -0.4415 -0.1838  0.1407
   77MOL    C7132143   0.233   5.508   5.472  0.4327  0.0642  0.1463
   77MOL    C7232144   0.116   5.515   5.579  1.0033  0.2750 -0.0313
   77MOL    C7332145   7.826   5.556   5.523  0.5389 -0.6242  0.0931
   77MOL    H7432146   0.764   5.741   5.590  0.4843  0.8296  1.3078
   77MOL    H7532147   0.728   5.847   5.719  0.0054 -0.2913 -0.5581
   77MOL    H7632148   0.581   5.878   5.523 -0.7165 -0.3185 -0.8836
   77MOL    H7732149   0.384   5.398   5.598  1.2313  0.8283  1.2105
   77MOL    H7832150   0.447   5.457   5.441  1.1133 -0.3872  1.4026
   77MOL    H7932151   0.224   5.587   5.397  0.4020 -1.4072 -1.4379
   77MOL    H8032152   0.211   5.430   5.399 -0.5160  0.9737 -0.5504
   77MOL    H8132153   0.142   5.580   5.662 -0.0419  2.8184 -1.6371
   77MOL    H8232154   0.107   5.417   5.624  3.3504  0.4686  0.9369
   77MOL    H8332155   7.804   5.490   5.439 -2.0896 -0.1228  0.3732
   77MOL    H8432156   7.820   5.654   5.476 -2.0281 -1.0204 -0.4424
   77MOL    H8532157   7.747   5.548   5.597 -0.0891  1.2603 -0.3394
   77MOL    C8632158   0.448   5.848   5.692 -1.3134 -0.0183  0.3315
   77MOL    C8732159   0.481   5.984   5.747  0.0720 -0.6292 -0.8233
   77MOL    C8832160   0.481   6.096   5.639  0.0743  0.2643  0.9696
   77MOL    O8932161   0.415   6.083   5.534 -0.5450  0.4859 -0.0573
   77MOL    O9032162   0.563   6.204   5.669 -0.1355  0.0355 -0.7549
   77MOL    C9132163   0.583   6.300   5.570 -0.2593 -0.3871 -0.4586
   77MOL    C9232164   0.492   6.416   5.607 -0.1778  0.5871  0.6054
   77MOL    C9332165   0.486   6.522   5.498  0.2930  0.0397  0.6196
   77MOL    C9432166   0.396   6.641   5.538 -0.6573  0.6217  0.4809
   77MOL    H9532167   0.426   5.776   5.771 -0.4915 -0.3546  0.2613
   77MOL    H9632168   0.354   5.862   5.638 -0.5356  1.9649 -0.5323
   77MOL    H9732169   0.582   5.982   5.788 -0.0667  0.0067 -0.4310
   77MOL    H9832170   0.561   6.264   5.469  0.0948  0.2482 -0.7646
   77MOL    H9932171   0.686   6.334   5.571 -0.8499  1.5381  2.0537
   77MOL   H10032172   0.389   6.382   5.618 -0.0380 -0.2358 -0.4980
   77MOL   H10132173   0.527   6.451   5.704 -0.8321 -0.3884  1.1996
   77MOL   H10232174   0.452   6.498   5.397 -0.0029 -1.1432  0.9998
   77MOL   H10332175   0.588   6.548   5.471 -0.0511  0.6604 -0.1054
   77MOL   H10432176   0.421   6.719   5.465  1.0960 -0.3876 -0.0238
   77MOL   H10532177   0.417   6.681   5.637 -1.3089  1.7086  0.1981
   77MOL   H10632178   0.290   6.622   5.524 -0.6409  0.5281  0.4849
   77MOL   C10732179   0.395   6.028   5.869  0.8946 -0.6085 -0.0814
   77MOL   C10832180   0.443   5.991   6.013  0.2678  0.4610  0.0464
   77MOL   C10932181   0.579   6.053   6.053  0.1469  0.4122  0.0077
   77MOL   O11032182   0.638   6.142   5.991  0.1419 -0.2919 -0.7357
   77MOL   O11132183   0.626   5.986   6.156 -0.0950 -0.0382  0.3917
   77MOL   C11232184   0.745   6.023   6.220  0.3780  0.1979 -0.1310
   77MOL   C11332185   0.720   5.982   6.367 -0.0866 -0.2731 -0.5819
   77MOL   C11432186   0.835   6.005   6.473 -0.5740  0.3516 -0.3057
   77MOL   C11532187   0.788   5.993   6.619  0.2125  0.2382 -0.3560
   77MOL   H11632188   0.294   5.990   5.853  0.2236  0.1235  2.1998
   77MOL   H11732189   0.383   6.137   5.866  0.5431 -0.5700  1.8808
   77MOL   H11832190   0.467   5.884   6.008 -0.3531  0.4156 -3.3277
   77MOL   H11932191   0.764   6.131   6.215  0.8275  0.1985  1.2445
   77MOL   H12032192   0.818   5.960   6.170 -0.3110 -0.9072  0.2493
   77MOL   H12132193   0.633   6.037   6.404  0.4417  0.4144 -0.3400
   77MOL   H12232194   0.701   5.875   6.373  0.8685 -0.4586 -0.7269
   77MOL   H12332195   0.880   6.104   6.475 -0.6753  0.3830  0.7868
   77MOL   H12432196   0.905   5.921   6.473 -0.5018  0.4106 -0.1112
   77MOL   H12532197   0.748   5.896   6.650  0.1995  0.0714 -0.8912
   77MOL   H12632198   0.714   6.070   6.640 -0.9814 -1.0753  0.3670
   77MOL   H12732199   0.871   6.013   6.688 -0.6262  1.2808  0.3599
   77MOL   C12832200   0.343   6.003   6.127 -0.4166  0.4365  0.0606
   77MOL   C12932201   0.197   5.953   6.095 -0.3837 -0.3255 -0.2585
   77MOL   C13032202   0.199   5.809   6.049  0.8128 -0.1231  0.1007
   77MOL   O13132203   0.127   5.775   5.954  0.4039 -0.5314  0.2603
   77MOL   O13232204   0.279   5.727   6.119  0.5759  0.2959 -0.7658
   77MOL   C13332205   0.266   5.583   6.107 -0.2421 -0.2003 -0.1363
   77MOL   C13432206   0.359   5.516   6.213  0.0895 -0.6152 -0.2617
   77MOL   C13532207   0.498   5.573   6.226  0.0729  0.0203  0.4386
   77MOL   C13632208   0.567   5.477   6.322 -0.1952 -0.1319 -0.5845
   77MOL   H13732209   0.331   6.107   6.157 -0.9500  0.7096 -1.1021
   77MOL   H13832210   0.387   5.967   6.221 -0.4085  2.4408  0.8374
   77MOL   H13932211   0.158   6.015   6.014 -0.8237 -2.5388 -1.7761
   77MOL   H14032212   0.300   5.554   6.008 -0.7843  0.3904 -0.4923
   77MOL   H14132213   0.168   5.544   6.133 -0.0146  0.1907  1.3976
   77MOL   H14232214   0.298   5.515   6.303 -0.1208  1.3977 -0.3719
   77MOL   H14332215   0.361   5.413   6.176 -1.9656 -0.1251 -1.8482
   77MOL   H14432216   0.501   5.677   6.258  2.5255 -0.1506  0.8566
   77MOL   H14532217   0.560   5.570   6.137  1.3932 -0.0142  1.3452
   77MOL   H14632218   0.669   5.510   6.344 -0.2803 -1.3829  1.8380
   77MOL   H14732219   0.567   5.373   6.290 -0.3295 -0.8508  1.6530
   77MOL   H14832220   0.512   5.469   6.416 -1.5679  0.7527 -1.2882
   77MOL   C14932221   0.110   5.979   6.231 -0.5608  0.2372  0.0457
   77MOL   C15032222   7.815   6.006   6.214  0.2766 -0.9624  0.5959
   77MOL   C15132223   7.783   6.117   6.112  0.1681 -0.0699  0.4259
   77MOL   O15232224   7.693   6.105   6.030  0.2715  0.3052  0.0558
   77MOL   O15332225   0.010   6.225   6.116  0.7068  0.3902  0.2451
   77MOL   C15432226   7.836   6.329   6.028 -0.7662  0.0006  0.2042
   77MOL   C15532227   0.077   6.448   6.056 -0.3118 -0.3993  0.6422
   77MOL   C15632228   0.208   6.430   5.969  0.2805  0.4021  0.5838
   77MOL   C15732229   0.306   6.544   5.964  0.7541 -0.1144 -0.0154
   77MOL   H15832230   0.159   6.065   6.276 -0.8359  0.2841  0.2557
   77MOL   H15932231   0.126   5.896   6.300 -0.4763  1.1194  1.0999
   77MOL   H16032232   7.773   6.044   6.307 -1.0391 -1.9766  0.4422
   77MOL   H16132233   7.729   6.348   6.021 -0.7446 -0.3865 -1.4142
   77MOL   H16232234   0.007   6.293   5.928 -0.5216  1.8561 -0.4281
   77MOL   H16332235   0.039   6.546   6.027  0.0646 -0.1747  0.8975
   77MOL   H16432236   0.097   6.452   6.163 -0.6117  0.2765  0.6775
   77MOL   H16532237   0.195   6.394   5.867 -2.0829  0.0945  0.9754
   77MOL   H16632238   0.265   6.353   6.021 -1.7654 -1.3835  0.2661
   77MOL   H16732239   0.389   6.522   5.896 -0.6860  1.0333 -2.2003
   77MOL   H16832240   0.352   6.563   6.061 -1.4812  0.0129  1.0462
   77MOL   H16932241   0.261   6.640   5.939  0.4780 -1.0073 -3.2249
   77MOL   C17032242   7.724   5.884   6.182 -0.5829  0.0402 -0.0465
   77MOL   C17132243   7.718   5.767   6.286  0.3200 -0.9490  0.6016
   77MOL   C17232244   7.711   5.810   6.429 -0.1307  0.3241  0.1236
   77MOL   O17332245   7.814   5.805   6.495  0.0176 -0.4941 -0.0882
   77MOL   O17432246   7.595   5.870   6.462 -0.1989  0.1270 -0.7164
   77MOL   C17532247   7.585   5.955   6.573 -0.5191 -0.7723 -0.3509
   77MOL   C17632248   7.621   5.894   6.716  0.6875 -0.9009  0.4986
   77MOL   C17732249   7.512   5.803   6.760 -0.0902 -0.4075  0.1871
   77MOL   C17832250   7.387   5.865   6.807 -0.2075 -0.3040 -0.2286
   77MOL   H17932251   7.751   5.850   6.083 -2.3872 -2.0570  0.1407
   77MOL   H18032252   7.619   5.912   6.168 -0.5797  1.1170  1.7982
   77MOL   H18132253   7.811   5.713   6.271  0.3015 -0.7085 -0.4755
   77MOL   H18232254   7.480   5.984   6.584 -0.6105 -1.8401  1.8644
   77MOL   H18332255   7.652   6.041   6.561 -2.5268  0.8735 -0.1621
   77MOL   H18432256   7.715   5.840   6.708  1.8003  1.1835 -0.9438
   77MOL   H18532257   7.629   5.976   6.788  0.2088  0.2356 -0.7218
   77MOL   H18632258   7.554   5.771   6.856 -0.4651 -0.0800  0.4623
   77MOL   H18732259   7.500   5.713   6.699 -1.6267 -0.4191  0.4771
   77MOL   H18832260   7.339   5.915   6.723  0.6782 -0.8138 -1.0380
   77MOL   H18932261   7.399   5.932   6.893  1.6618  0.8308 -1.3369
   77MOL   H19032262   7.324   5.786   6.847  0.7494 -0.5310  0.8594
   77MOL   C19132263   7.601   5.665   6.262 -1.0140  0.2413 -0.1278
   77MOL   C19232264   7.598   5.592   6.134 -0.8766  0.1419 -0.1160
   77MOL   C19332265   7.723   5.503   6.107  0.3952  0.0813 -0.2425
   77MOL   O19432266   7.775   5.444   6.202  0.5260  0.1131 -0.3758
   77MOL   O19532267   7.752   5.482   5.978  0.0810  0.2652 -0.1624
   77MOL   C19632268   0.010   5.397   5.934  0.7647  0.2686 -0.2780
   77MOL   C19732269   7.806   5.258   5.917 -0.3060 -0.1124 -0.1806
   77MOL   C19832270   7.701   5.238   5.800 -0.1783  0.8235  0.5066
   77MOL   C19932271   7.646   5.096   5.810 -0.0512  0.1831  0.0221
   77MOL   H20032272   7.507   5.715   6.285  0.1251  2.4490 -0.1763
   77MOL   H20132273   7.604   5.593   6.344 -1.5830  0.4739  0.0969
   77MOL   H20232274   7.596   5.666   6.054 -0.2009  0.2313 -0.0521
   77MOL   H20332275   0.095   5.392   6.001 -0.3304  0.0839  1.1284
   77MOL   H20432276   0.032   5.438   5.835  3.8216 -1.8465 -0.5193
   77MOL   H20532277   0.031   5.184   5.897  1.3483  1.0167  1.8937
   77MOL   H20632278   7.760   5.228   6.011  0.5753  1.5616  0.8092
   77MOL   H20732279   7.750   5.265   5.707 -1.1792 -0.3570 -0.3755
   77MOL   H20832280   7.617   5.307   5.800 -0.9494 -0.1091 -0.3734
   77MOL   H20932281   7.723   5.022   5.830 -0.3684  0.2134  1.4165
   77MOL   H21032282   7.594   5.074   5.717  1.0392 -1.3607 -0.2451
   77MOL   H21132283   7.575   5.086   5.892 -0.9729 -0.0695 -0.8064
   77MOL   C21232284   7.455   5.521   6.129  0.5653  0.4275 -0.3998
   77MOL   C21332285   7.432   5.417   6.006 -0.1273 -0.7626  0.1118
   77MOL   C21432286   7.317   5.320   6.030  0.0413  0.4782  0.0877
   77MOL   O21532287   7.324   5.201   6.006  0.3987  0.1794 -0.3049
   77MOL   O21632288   7.203   5.384   6.056  0.4552 -0.1448  0.2864
   77MOL   C21732289   7.093   5.304   6.096 -0.0696  0.1281  0.3684
   77MOL   C21832290   6.989   5.400   6.154  0.4654 -0.0672  0.2441
   77MOL   C21932291   6.867   5.321   6.182  0.1947  0.1995  0.2590
   77MOL   C22032292   6.730   5.396   6.171  0.2541  0.0661 -0.0675
   77MOL   H22132293   7.378   5.597   6.115  0.0439 -0.3303 -1.8699
   77MOL   H22232294   7.430   5.466   6.219  0.9005  1.0784  0.0896
   77MOL   H22332295   7.528   5.364   6.008 -0.0909 -0.7837 -1.9558
   77MOL   H22432296   7.108   5.220   6.164  2.1833 -1.1587 -1.6288
   77MOL   H22532297   7.057   5.255   6.005 -0.3504 -1.2593  1.2148
   77MOL   H22632298   7.031   5.460   6.235  0.6864  0.8965 -0.5793
   77MOL   H22732299   6.966   5.474   6.078 -0.7908  0.3398  0.9988
   77MOL   H22832300   6.872   5.282   6.283  1.9745 -0.2336  0.0182
   77MOL   H22932301   6.871   5.236   6.115  0.8088  1.0789 -0.8388
   77MOL   H23032302   6.647   5.325   6.167  1.5678 -1.4776 -0.5863
   77MOL   H23132303   6.730   5.465   6.087 -0.3091  0.5156  0.2985
   77MOL   H23232304   6.719   5.453   6.263 -0.6763  0.8830 -0.6809
   77MOL   C23332305   7.429   5.485   5.870 -0.1717 -0.1319  0.5916
   77MOL   C23432306   7.348   5.612   5.855  0.0682  0.7676 -0.0430
   77MOL   C23532307   7.424   5.743   5.880  0.6048  0.1085  0.6400
   77MOL   O23632308   7.386   5.823   5.966 -0.7123  0.5403  0.0698
   77MOL   O23732309   7.526   5.762   5.796  0.0444 -0.0265 -0.1120
   77MOL   C23832310   7.588   5.887   5.809  0.3677  0.2150  0.1531
   77MOL   C23932311   7.705   5.886   5.703 -0.3726 -0.3778 -0.3154
   77MOL   C24032312   7.804   5.997   5.735  0.2417 -0.1482 -0.7104
   77MOL   C24132313   0.062   6.007   5.628  0.0075 -0.2817  0.2218
   77MOL   H24232314   7.391   5.419   5.793  0.9675  0.8118 -0.7911
   77MOL   H24332315   7.529   5.500   5.832 -0.3413 -1.3610 -0.3802
   77MOL   H24432316   7.259   5.607   5.918  0.3332 -2.0966  0.1947
   77MOL   H24532317   7.644   5.897   5.902  1.7725 -3.4959 -0.1917
   77MOL   H24632318   7.511   5.961   5.788 -0.5228 -0.9343 -0.7315
   77MOL   H24732319   7.767   5.796   5.706 -0.9040 -0.7229  0.5125
   77MOL   H24832320   7.676   5.897   5.598  1.4229 -1.1593 -0.9161
   77MOL   H24932321   7.846   5.979   5.834 -1.7186  0.2068  0.2257
   77MOL   H25032322   7.760   6.096   5.748 -0.3575 -0.7345  2.0822
   77MOL   H25132323   0.142   6.076   5.652 -2.2229  2.5529 -0.2535
   77MOL   H25232324   0.017   6.036   5.533 -0.0617 -0.7341  0.1129
   77MOL   H25332325   0.120   5.915   5.617 -0.2875 -0.3309 -1.0095
   77MOL   C25432326   7.283   5.631   5.714 -0.0400 -0.3781 -0.4577
   77MOL   C25532327   7.144   5.564   5.684  0.2011 -0.0679  0.5077
   77MOL   C25632328   7.145   5.414   5.644 -0.4946 -0.2979 -0.8975
   77MOL   O25732329   7.174   5.393   5.525 -0.9142 -0.4670  0.4146
   77MOL   O25832330   7.132   5.332   5.745 -0.3402  0.2524 -0.2105
   77MOL   C25932331   7.112   5.192   5.715  0.1083 -0.5279  0.4776
   77MOL   C26032332   7.236   5.125   5.660  0.4427  0.1093 -0.6455
   77MOL   C26132333   7.212   4.971   5.651 -0.4178 -0.0415  0.5742
   77MOL   C26232334   7.348   4.899   5.617 -0.0545 -0.0270 -0.2821
   77MOL   H26332335   7.362   5.593   5.649 -0.2707 -0.9726 -0.3890
   77MOL   H26432336   7.265   5.736   5.687 -0.0477 -0.1523  0.4039
   77MOL   H26532337   7.114   5.612   5.591 -1.3452 -0.5136  0.7584
   77MOL   H26632338   7.025   5.192   5.649  0.4285  0.6122  0.0422
   77MOL   H26732339   7.082   5.151   5.811 -0.3033 -1.0508  0.1282
   77MOL   H26832340   7.258   5.168   5.562  0.7763 -1.0695 -1.1033
   77MOL   H26932341   7.321   5.141   5.726  1.1161 -1.5151 -1.0822
   77MOL   H27032342   7.133   4.947   5.580 -0.7026 -0.2145  0.9478
   77MOL   H27132343   7.179   4.943   5.751  0.9445 -1.9779  0.5140
   77MOL   H27232344   7.421   4.922   5.694 -0.4989  0.5855 -0.0454
   77MOL   H27332345   7.390   4.935   5.524  0.3940 -2.4874 -1.0740
   77MOL   H27432346   7.348   4.790   5.610 -0.1293  0.0732 -2.0594
   77MOL   C27532347   7.027   5.587   5.789 -0.1410 -0.0628  0.3820
   77MOL   C27632348   6.890   5.617   5.733 -0.3044 -0.1850 -0.0337
   77MOL   C27732349   6.825   5.490   5.675 -0.3484 -0.6181  0.1983
   77MOL   O27832350   6.787   5.487   5.558 -0.5153 -0.5889 -0.7933
   77MOL   O27932351   6.826   5.386   5.759 -0.2648  0.1183 -0.0984
   77MOL   C28032352   6.763   5.269   5.707 -0.1304  0.3104  0.2506
   77MOL   C28132353   6.769   5.151   5.814 -0.4507  0.0173 -0.1781
   77MOL   C28232354   6.647   5.057   5.797 -0.6476 -0.9855 -0.2040
   77MOL   C28332355   6.678   4.949   5.700 -0.0825 -0.2781 -0.0552
   77MOL   H28432356   7.075   5.667   5.846 -0.9782  0.9409 -0.2945
   77MOL   H28532357   7.020   5.501   5.855 -1.7888 -1.8260 -2.0064
   77MOL   H28632358   6.893   5.691   5.653  0.1810  1.3795  1.3972
   77MOL   H28732359   6.803   5.240   5.609 -0.7581 -4.1284  1.1912
   77MOL   H28832360   6.659   5.284   5.680  0.2979  3.3887  0.1056
   77MOL   H28932361   6.861   5.094   5.824 -0.3160  0.3079  0.2703
   77MOL   H29032362   6.765   5.193   5.915 -0.9056  0.5662 -0.4207
   77MOL   H29132363   6.554   5.111   5.777 -0.8808 -0.5413  1.9668
   77MOL   H29232364   6.647   5.005   5.892  1.9233 -0.7717 -0.0594
   77MOL   H29332365   6.615   4.860   5.708  0.2451 -0.5526 -0.5161
   77MOL   H29432366   6.776   4.906   5.716  0.3953  0.4435 -0.9960
   77MOL   H29532367   6.666   4.977   5.595 -1.6684  0.0485  0.1914
   77MOL   C29632368   6.808   5.683   5.846 -0.0826 -0.0603 -0.7199
   77MOL   C29732369   6.676   5.744   5.801 -0.5571  0.2934  0.1200
   77MOL   C29832370   6.557   5.666   5.865  0.0749  0.2384  1.0254
   77MOL   O29932371   6.498   5.709   5.958  0.5560  0.1855 -0.3499
   77MOL   O30032372   6.545   5.542   5.813 -0.6078  0.1819  0.2141
   77MOL   C30132373   6.479   5.447   5.900 -0.0792 -0.5127 -0.0751
   77MOL   C30232374   6.346   5.405   5.844  0.1015  0.5611  0.4031
   77MOL   C30332375   6.259   5.524   5.810 -0.3671 -0.7591 -0.4607
   77MOL   C30432376   6.126   5.486   5.741 -0.2089  0.2029  0.2030
   77MOL   H30532377   6.861   5.762   5.899 -1.0675 -1.4170  2.3837
   77MOL   H30632378   6.795   5.620   5.934  0.2721  2.4365  1.1916
   77MOL   H30732379   6.658   5.729   5.695 -0.2824  0.0922  0.0992
   77MOL   H30832380   6.450   5.484   5.999 -1.3559 -0.4804 -0.4564
   77MOL   H30932381   6.551   5.370   5.926  1.3297  0.7490 -0.1425
   77MOL   H31032382   6.367   5.336   5.762  0.8999  1.0235  0.2238
   77MOL   H31132383   6.299   5.345   5.923 -2.2090  1.5899 -0.1447
   77MOL   H31232384   6.313   5.592   5.745 -0.5423 -0.2293 -0.0555
   77MOL   H31332385   6.234   5.566   5.907  1.6201  0.1705 -0.3372
   77MOL   H31432386   6.046   5.470   5.814 -3.9248 -0.0022 -3.7276
   77MOL   H31532387   6.127   5.400   5.674  1.8777 -1.2133  1.9822
   77MOL   H31632388   6.072   5.564   5.687 -1.3059 -0.0454  0.9153
   77MOL   C31732389   6.667   5.894   5.825  0.4727 -0.2030 -0.9730
   77MOL   C31832390   6.538   5.975   5.791  0.6348 -0.4432  0.6753
   77MOL   C31932391   6.520   6.079   5.902 -0.4443  1.2805  0.0836
   77MOL   O32032392   6.609   6.149   5.958 -0.1324  0.1576  0.3170
   77MOL   O32132393   6.391   6.117   5.922 -0.3362 -0.2496  0.2918
   77MOL   C32232394   6.369   6.228   6.011  0.9019 -0.1417 -0.6875
   77MOL   C32332395   6.217   6.263   6.009 -0.1384  0.2937 -0.1320
   77MOL   C32432396   6.136   6.162   6.092 -0.1542 -0.5125  0.4346
   77MOL   C32532397   5.986   6.193   6.084  0.1894 -0.1829 -0.0733
   77MOL   H32632398   6.750   5.938   5.771  1.1895 -1.5091 -0.9425
   77MOL   H32732399   6.700   5.913   5.928  2.3099 -1.2954 -1.3530
   77MOL   H32832400   6.458   5.901   5.796 -0.3882  0.7177  1.8404
   77MOL   H32932401   6.422   6.311   5.964 -0.3192  0.3993 -1.1535
   77MOL   H33032402   6.404   6.214   6.113  1.6086  1.5313 -0.6850
   77MOL   H33132403   6.202   6.365   6.045 -0.5990  0.4564 -0.7572
   77MOL   H33232404   6.173   6.259   5.909 -2.8938 -0.0548  1.0410
   77MOL   H33332405   6.172   6.171   6.194 -0.7890 -1.4049  0.7397
   77MOL   H33432406   6.149   6.057   6.065 -1.1396 -0.5858  0.2402
   77MOL   H33532407   5.945   6.185   5.983 -1.8825  0.0332  0.7296
   77MOL   H33632408   5.940   6.281   6.131 -0.7043 -0.7993  0.2156
   77MOL   H33732409   5.935   6.111   6.135 -0.5374 -1.6106 -3.0149
   77MOL   C33832410   6.530   6.034   5.649  0.2834 -0.0574  0.5167
   77MOL   C33932411   6.552   5.933   5.528 -0.7982 -0.3258 -0.4383
   77MOL   C34032412   6.460   5.819   5.508  0.6502  0.7538 -0.6550
   77MOL   O34132413   6.349   5.815   5.565  0.0106  0.2371  0.1293
   77MOL   O34232414   6.501   5.710   5.430  0.1051 -0.5565  0.5517
   77MOL   C34332415   6.412   5.612   5.402  0.0470  0.0160 -0.3126
   77MOL   C34432416   6.456   5.477   5.451  0.0581 -0.4447  0.1176
   77MOL   C34532417   6.357   5.374   5.400 -0.0928  0.6286  0.5992
   77MOL   C34632418   6.411   5.241   5.352  0.4515  0.1225  0.0152
   77MOL   H34732419   6.597   6.119   5.636  0.3554 -0.3346 -1.0780
   77MOL   H34832420   6.431   6.071   5.625  0.3510  0.2091  0.6475
   77MOL   H34932421   6.642   5.876   5.553 -1.6654 -0.5801  2.2877
   77MOL   H35032422   6.398   5.609   5.294 -1.1047  3.3258 -0.3230
   77MOL   H35132423   6.313   5.627   5.447 -0.0539 -1.2458 -0.0807
   77MOL   H35232424   6.556   5.471   5.409  0.0812 -0.4473  0.1724
   77MOL   H35332425   6.457   5.484   5.560 -0.1711 -1.1062  0.1664
   77MOL   H35432426   6.295   5.418   5.322 -0.3142 -2.8400 -1.2825
   77MOL   H35532427   6.285   5.361   5.481 -1.7157  0.6918 -0.8170
   77MOL   H35632428   6.466   5.251   5.258 -1.0914 -0.7819 -0.9977
   77MOL   H35732429   6.333   5.166   5.348  1.0103 -0.4827  0.3819
   77MOL   H35832430   6.481   5.200   5.424 -0.3914 -1.8621 -0.2757
   77MOL   C35932431   6.570   6.010   5.395  0.0731 -0.1999 -0.2006
   77MOL   C36032432   6.708   6.075   5.392 -1.2641  0.2305  0.1225
   77MOL   C36132433   6.819   5.967   5.389 -0.3034 -0.5015 -0.2115
   77MOL   O36232434   6.800   5.846   5.390 -0.2644 -0.6781 -0.1287
   77MOL   O36332435   6.947   6.019   5.378 -0.7859  0.1939 -0.2568
   77MOL   C36432436   7.054   5.930   5.373 -0.1739  0.5637  0.0799
   77MOL   C36532437   7.171   6.020   5.395 -0.0479 -0.4595  0.0109
   77MOL   C36632438   7.296   5.939   5.369 -0.4945  0.0640 -0.6070
   77MOL   C36732439   7.426   5.985   5.446  0.6318 -0.6417  0.1071
   77MOL   H36832440   6.495   6.089   5.402  2.2038  1.8458  0.0407
   77MOL   H36932441   6.553   5.939   5.314  0.6434  1.2460 -1.5880
   77MOL   H37032442   6.715   6.139   5.480  0.7036 -0.0847  0.2138
   77MOL   H37132443   7.054   5.881   5.275  1.1719  0.9711 -0.1374
   77MOL   H37232444   7.052   5.849   5.446 -1.0368  1.8617  1.5345
   77MOL   H37332445   7.170   6.119   5.350 -1.8485 -0.7655 -0.6342
   77MOL   H37432446   7.169   6.060   5.496 -1.1550  2.6603 -1.1786
   77MOL   H37532447   7.313   5.938   5.261  0.0188 -2.1611 -0.5220
   77MOL   H37632448   7.287   5.834   5.396 -0.9050  0.5812  1.3235
   77MOL   H37732449   7.510   5.916   5.433 -0.4391 -2.3020  1.6445
   77MOL   H37832450   7.407   5.994   5.553  1.5207  1.5099  0.1001
   77MOL   H37932451   7.456   6.087   5.424  0.0767 -0.8105 -1.5023
   77MOL   C38032452   6.716   6.164   5.268  0.1600 -0.2873  0.7896
   77MOL   C38132453   6.792   6.303   5.277  0.1787  0.4964  0.1783
   77MOL   C38232454   6.878   6.320   5.155 -0.3285  0.6340  0.0496
   77MOL   O38332455   6.859   6.419   5.087  0.4132 -0.2626  0.0528
   77MOL   O38432456   6.976   6.226   5.143  0.0454  0.3306  0.1597
   77MOL   C38532457   7.054   6.217   5.024 -0.2074  0.0079  0.7077
   77MOL   C38632458   7.146   6.091   5.024  0.4719  0.9323 -0.2468
   77MOL   C38732459   7.234   6.068   4.901 -0.1082 -0.9147  0.1892
   77MOL   C38832460   7.161   6.064   4.769 -0.0802  0.3617  0.2460
   77MOL   H38932461   6.614   6.174   5.230 -1.4010 -1.4229  4.4355
   77MOL   H39032462   6.761   6.100   5.192 -0.1292  0.2462  0.1665
   77MOL   H39132463   6.868   6.295   5.355 -0.5844  0.6502  0.9507
   77MOL   H39232464   7.113   6.309   5.016  0.2770 -0.4432 -1.1300
   77MOL   H39332465   6.982   6.208   4.942  0.8138 -0.7591 -0.1301
   77MOL   H39432466   7.196   6.083   5.120  1.7897  0.8862 -0.9341
   77MOL   H39532467   7.068   6.014   5.031  1.9506 -0.4741  1.1579
   77MOL   H39632468   7.302   5.984   4.919  0.0108 -1.3719 -2.1976
   77MOL   H39732469   7.313   6.139   4.878 -1.4457  0.5856  0.1679
   77MOL   H39832470   7.109   6.158   4.751  0.4148  1.0739  2.4024
   77MOL   H39932471   7.100   5.976   4.749  0.1924  0.2849 -0.2575
   77MOL   H40032472   7.237   6.068   4.690  2.1050  3.1905  2.3800
   77MOL   C40132473   6.692   6.424   5.307  0.0337 -0.7448  0.2341
   77MOL   C40232474   6.773   6.545   5.365 -0.6859  0.0037  0.0827
   77MOL   C40332475   6.762   6.543   5.513 -0.4922  0.2801 -0.4312
   77MOL   O40432476   6.721   6.634   5.583  0.0364  0.4904 -0.4876
   77MOL   O40532477   6.806   6.422   5.564 -0.3766 -0.1142  0.0298
   77MOL   C40632478   6.793   6.400   5.705  0.2857  0.1921 -0.5139
   77MOL   C40732479   6.852   6.258   5.732  1.0418 -0.0816  0.4661
   77MOL   C40832480   6.992   6.231   5.681  0.2949  0.1893 -0.9123
   77MOL   C40932481   7.043   6.102   5.744 -0.0111 -0.6081  0.3195
   77MOL   H41032482   6.609   6.388   5.367  1.9696 -0.1805  3.3824
   77MOL   H41132483   6.633   6.452   5.220 -2.5236 -1.4883  1.7026
   77MOL   H41232484   6.720   6.638   5.341  1.7546  1.9198  1.8619
   77MOL   H41332485   6.691   6.406   5.743 -0.0864 -2.6057 -0.9428
   77MOL   H41432486   6.846   6.480   5.756 -0.3901  1.6905 -2.0876
   77MOL   H41532487   6.852   6.259   5.841 -2.9410 -1.0440  0.5607
   77MOL   H41632488   6.786   6.173   5.714 -0.3300  0.8538  0.9957
   77MOL   H41732489   7.058   6.314   5.703 -0.1402  0.8326 -1.9767
   77MOL   H41832490   6.993   6.213   5.573  0.8212  1.3534 -1.1024
   77MOL   H41932491   7.031   6.121   5.850 -2.8573 -0.5152  0.0315
   77MOL   H42032492   7.146   6.090   5.710 -0.0411 -0.7632  0.2819
   77MOL   H42132493   6.983   6.014   5.720 -0.9216  0.3155 -0.9234
   77MOL   H42232494   6.877   6.556   5.334 -0.4626 -1.3686  0.3266
   78MOL     C132495   7.253   2.762   1.250 -0.2261  0.4270  0.4408
   78MOL     C232496   7.253   2.836   1.122 -0.7503  0.3326  0.7907
   78MOL     C332497   7.164   2.759   1.017 -0.2995  0.1527 -0.3771
   78MOL     O432498   7.219   2.705   0.913  0.3825  0.5112 -0.1020
   78MOL     O532499   7.036   2.748   1.044 -0.2040 -0.3709  0.1110
   78MOL     C632500   6.946   2.673   0.964 -0.0837  0.6158  0.3115
   78MOL     C732501   6.798   2.711   0.992 -0.2522 -0.1936 -0.0366
   78MOL     C832502   6.689   2.635   0.912  0.2159  0.1122  0.1269
   78MOL     C932503   6.669   2.485   0.956  0.8744  0.3346  0.0430
   78MOL    H1032504   7.326   2.810   1.316 -0.1923  0.9829 -0.0055
   78MOL    H1132505   7.154   2.763   1.296  0.7353  0.2985  2.6153
   78MOL    H1232506   7.352   2.833   1.077 -1.4862 -2.4620 -0.8236
   78MOL    H1332507   6.969   2.570   0.993 -1.5691  0.3108  0.4477
   78MOL    H1432508   6.972   2.673   0.858  1.9533 -0.4611  0.7660
   78MOL    H1532509   6.769   2.722   1.097 -2.4528  1.4340 -0.7798
   78MOL    H1632510   6.792   2.807   0.940  0.1450  0.3146  0.8318
   78MOL    H1732511   6.705   2.647   0.805 -1.8063  0.1363 -0.1980
   78MOL    H1832512   6.590   2.676   0.931  0.2848  0.2992  0.0815
   78MOL    H1932513   6.572   2.456   0.915  0.2528  1.6298  0.5637
   78MOL    H2032514   6.657   2.483   1.065 -0.1326  0.7774 -0.0529
   78MOL    H2132515   6.755   2.421   0.940  1.1789  0.9892 -0.9854
   78MOL    H2232516   7.293   2.662   1.236  1.8887  1.6433 -2.6822
   78MOL    C2332517   7.195   2.975   1.141 -0.1793  0.3848  0.3455
   78MOL    C2432518   7.278   3.091   1.200 -0.2546 -0.0103  0.0131
   78MOL    C2532519   7.346   3.169   1.088 -0.6647  0.1140  0.1843
   78MOL    O2632520   7.348   3.294   1.071 -0.0253 -0.4142  0.2712
   78MOL    O2732521   7.411   3.082   0.997 -0.0725  0.3444 -0.2607
   78MOL    C2832522   7.474   3.148   0.885  0.4006 -0.2716  0.1998
   78MOL    C2932523   7.371   3.156   0.772 -0.5615  0.6290  0.4644
   78MOL    C3032524   7.332   3.021   0.720 -0.0673 -0.0144  0.2252
   78MOL    C3132525   7.280   3.036   0.578 -0.3440  0.5315 -0.1967
   78MOL    H3232526   7.098   2.966   1.190 -0.8435  0.9491 -0.8237
   78MOL    H3332527   7.171   3.011   1.040  1.1813  0.2814 -0.0231
   78MOL    H3432528   7.357   3.049   1.263 -0.5290 -0.5377  0.0069
   78MOL    H3532529   7.551   3.087   0.839 -0.0551  0.1877 -1.2172
   78MOL    H3632530   7.504   3.251   0.905 -3.6307  1.6673 -3.0502
   78MOL    H3732531   7.283   3.206   0.812 -0.9088 -1.1297  1.9458
   78MOL    H3832532   7.420   3.211   0.691 -0.2278  0.0827  0.2904
   78MOL    H3932533   7.261   2.969   0.785 -0.8819  0.0486 -0.5904
   78MOL    H4032534   7.418   2.955   0.728 -0.7600 -0.9509  0.0730
   78MOL    H4132535   7.201   3.110   0.586  2.1187  3.1706  0.2628
   78MOL    H4232536   7.247   2.944   0.528  0.1716  0.7273 -0.9110
   78MOL    H4332537   7.359   3.078   0.515 -0.0081 -0.2497 -0.3080
   78MOL    C4432538   7.202   3.183   1.299 -0.2709  0.4707 -0.1607
   78MOL    C4532539   7.167   3.115   1.440 -0.1789  0.4353 -0.0912
   78MOL    C4632540   7.283   3.138   1.542 -0.0941 -0.0403  0.0643
   78MOL    O4732541   7.295   3.245   1.605  0.6041  0.5243  0.3803
   78MOL    O4832542   7.367   3.039   1.531 -0.3063  0.4616  0.3349
   78MOL    C4932543   7.499   3.054   1.596  0.3432 -0.9595  0.4972
   78MOL    C5032544   7.573   2.918   1.597 -0.1187  0.4784  0.0496
   78MOL    C5132545   7.717   2.940   1.655  0.2883  0.0390 -0.4712
   78MOL    C5232546   7.811   2.823   1.624  0.2124 -0.1023 -0.8703
   78MOL    H5332547   7.111   3.218   1.251 -0.6613 -0.5799 -0.1914
   78MOL    H5432548   7.266   3.269   1.320  2.7632 -1.6939 -0.2707
   78MOL    H5532549   7.161   3.008   1.420  0.5264  0.2314  0.7457
   78MOL    H5632550   7.476   3.084   1.698  0.6666  2.1016 -0.2783
   78MOL    H5732551   7.558   3.129   1.543 -1.2527 -0.3874 -0.4937
   78MOL    H5832552   7.523   2.839   1.653 -0.0365 -0.2628 -0.9151
   78MOL    H5932553   7.574   2.877   1.496 -0.4936 -0.3944  0.3964
   78MOL    H6032554   7.716   2.960   1.762  0.5944  0.4754 -0.5522
   78MOL    H6132555   7.773   3.021   1.609 -0.0283  0.4027 -0.2195
   78MOL    H6232556   0.059   2.858   1.647 -0.1330  0.9699 -0.9139
   78MOL    H6332557   7.813   2.800   1.517 -0.4425 -0.2887 -0.8410
   78MOL    H6432558   7.789   2.726   1.667  0.2949  0.5879  0.7668
   78MOL    C6532559   7.038   3.169   1.502  0.3293 -0.6155 -0.1957
   78MOL    C6632560   6.903   3.128   1.444 -0.2479 -0.6269  0.2165
   78MOL    C6732561   6.897   2.975   1.424  0.3254 -0.1885 -0.6103
   78MOL    O6832562   6.860   2.914   1.317 -0.3251 -0.0912 -1.0009
   78MOL    O6932563   6.931   2.912   1.541 -0.3523 -0.2103 -0.0075
   78MOL    C7032564   6.975   2.776   1.548 -0.3331 -0.0752 -0.7874
   78MOL    C7132565   7.073   2.754   1.664  0.0077 -0.9121 -0.7663
   78MOL    C7232566   7.155   2.629   1.648 -0.8333 -0.3323  0.9848
   78MOL    C7332567   7.270   2.629   1.752 -0.4560 -0.1159  0.0169
   78MOL    H7432568   7.043   3.275   1.481 -1.0115 -0.2210  1.3930
   78MOL    H7532569   7.032   3.141   1.607  0.0245  0.1489 -0.0113
   78MOL    H7632570   6.896   3.180   1.349  2.1703 -0.5707  0.0308
   78MOL    H7732571   7.025   2.748   1.456  0.8083  0.3061 -0.2905
   78MOL    H7832572   6.893   2.704   1.552  1.8956 -2.8289 -2.7544
   78MOL    H7932573   7.142   2.838   1.655 -1.1410 -0.1526 -2.5779
   78MOL    H8032574   7.018   2.757   1.758 -0.3756  1.2450 -1.0324
   78MOL    H8132575   7.187   2.617   1.544 -1.5622  0.9410  0.6014
   78MOL    H8232576   7.095   2.539   1.662 -3.1249  1.1935  1.2640
   78MOL    H8332577   7.357   2.583   1.705 -1.4987  0.0484 -2.1655
   78MOL    H8432578   7.241   2.590   1.849 -0.6730  2.5754  1.0856
   78MOL    H8532579   7.310   2.730   1.762  0.1787 -0.3500 -0.1729
   78MOL    C8632580   6.785   3.170   1.537  0.1344 -0.1810  0.0117
   78MOL    C8732581   6.641   3.146   1.486  0.1412 -0.1026 -0.1229
   78MOL    C8832582   6.542   3.122   1.595 -0.3859  0.3133  0.2727
   78MOL    O8932583   6.502   3.006   1.625 -0.4001 -0.1650 -0.3912
   78MOL    O9032584   6.510   3.236   1.656 -0.1584  0.2622 -0.0193
   78MOL    C9132585   6.419   3.241   1.773  0.2186  0.1400  0.6849
   78MOL    C9232586   6.308   3.348   1.739 -0.0125  0.1949  0.5277
   78MOL    C9332587   6.365   3.492   1.749  0.3094  0.0970  0.2582
   78MOL    C9432588   6.264   3.605   1.739  0.3495  0.9271  0.3621
   78MOL    H9532589   6.793   3.276   1.562 -2.5519  0.3807 -1.3415
   78MOL    H9632590   6.793   3.116   1.632  0.3657 -1.7967 -0.9142
   78MOL    H9732591   6.636   3.057   1.423  0.5450 -0.3645  0.2124
   78MOL    H9832592   6.465   3.262   1.869  2.1433 -3.7906  0.6745
   78MOL    H9932593   6.374   3.144   1.789  1.1692 -0.9067 -2.5229
   78MOL   H10032594   6.237   3.332   1.657  0.3854  2.2284 -0.2392
   78MOL   H10132595   6.256   3.345   1.834 -0.4499 -0.3688  0.2781
   78MOL   H10232596   6.447   3.504   1.679  0.2298  0.5906  0.2474
   78MOL   H10332597   6.428   3.493   1.838 -0.4596 -0.8325  0.8174
   78MOL   H10432598   6.170   3.586   1.792 -0.7489  3.4198 -0.5885
   78MOL   H10532599   6.222   3.615   1.639 -1.1256 -2.6808  0.5527
   78MOL   H10632600   6.305   3.703   1.764 -1.0797  1.7044 -0.2679
   78MOL   C10732601   6.598   3.258   1.386 -0.4650  0.3165  0.7977
   78MOL   C10832602   6.468   3.254   1.296 -0.2795  0.2619 -0.0118
   78MOL   C10932603   6.476   3.129   1.213 -0.0907 -0.2440  0.0513
   78MOL   O11032604   6.392   3.039   1.212 -0.5658 -0.4743  0.1422
   78MOL   O11132605   6.590   3.134   1.142  0.1930  0.9113  0.3528
   78MOL   C11232606   6.605   3.051   1.031 -0.1844  0.2827  0.1893
   78MOL   C11332607   6.520   3.097   0.910  0.0822  0.4718  0.3110
   78MOL   C11432608   6.518   2.997   0.797 -0.5474  0.7774  0.2626
   78MOL   C11532609   6.610   3.019   0.675 -0.3803 -0.2382 -0.3813
   78MOL   H11632610   6.682   3.288   1.323  0.3636  0.4691  1.9600
   78MOL   H11732611   6.585   3.354   1.436  0.1892 -0.4066  2.4183
   78MOL   H11832612   6.496   3.331   1.224 -0.5723  0.2993 -0.0848
   78MOL   H11932613   6.579   2.949   1.062 -0.0876  0.1004 -0.3290
   78MOL   H12032614   6.712   3.045   1.013 -0.3358 -1.6791 -0.2173
   78MOL   H12132615   6.416   3.105   0.939  0.1907 -0.1537  0.8867
   78MOL   H12232616   6.561   3.194   0.882 -0.2678  2.0218  4.6849
   78MOL   H12332617   6.421   2.981   0.750 -0.3634 -1.5477  0.5853
   78MOL   H12432618   6.538   2.900   0.844 -1.8729  0.9077  1.1173
   78MOL   H12532619   6.599   3.111   0.619 -0.0901  0.5850  0.8967
   78MOL   H12632620   6.590   2.936   0.606  0.1308  0.0616 -0.8942
   78MOL   H12732621   6.707   3.007   0.724  0.1335  1.8999 -0.8243
   78MOL   C12832622   6.331   3.285   1.363  0.1891 -0.6184 -0.5647
   78MOL   C12932623   6.244   3.345   1.260 -0.3671  0.5276  0.6873
   78MOL   C13032624   6.147   3.247   1.202  0.2219  0.2772 -0.0077
   78MOL   O13132625   6.132   3.241   1.083  0.1207  0.0275  0.3468
   78MOL   O13232626   6.066   3.198   1.298  0.0551 -0.3910  0.2936
   78MOL   C13332627   5.971   3.099   1.254 -0.2931 -0.2773 -0.1306
   78MOL   C13432628   5.872   3.064   1.367  0.2470  0.0321  0.0427
   78MOL   C13532629   5.777   2.948   1.337 -0.5398 -0.4491 -0.0341
   78MOL   C13632630   5.672   2.954   1.455  0.0203 -0.4706  0.2510
   78MOL   H13732631   6.355   3.359   1.439  1.3476  0.7377 -2.1930
   78MOL   H13832632   6.289   3.201   1.418  0.4814  0.8305  1.9214
   78MOL   H13932633   6.300   3.375   1.171  1.2605  0.6350  1.7301
   78MOL   H14032634   6.035   3.016   1.225 -2.4047 -1.6131 -1.0879
   78MOL   H14132635   5.925   3.139   1.163 -0.4044 -0.1180 -0.0041
   78MOL   H14232636   5.928   3.037   1.457  0.7487 -0.9385 -0.5552
   78MOL   H14332637   5.818   3.155   1.395  0.2536  0.3604 -0.9866
   78MOL   H14432638   5.820   2.851   1.314 -0.4692 -0.7226  1.2284
   78MOL   H14532639   5.729   2.977   1.243 -1.6026  1.7634  1.1413
   78MOL   H14632640   5.586   2.905   1.409 -0.7523  0.9081  0.1977
   78MOL   H14732641   5.631   3.052   1.479  1.8013  0.1851  0.6693
   78MOL   H14832642   5.687   2.900   1.549  1.1175 -1.1280 -0.2875
   78MOL   C14932643   6.176   3.475   1.292  0.6565 -0.0765 -0.1354
   78MOL   C15032644   6.282   3.593   1.305  0.1448 -0.4810 -0.1115
   78MOL   C15132645   6.375   3.622   1.186 -0.3568  0.4882  0.1445
   78MOL   O15232646   6.492   3.610   1.215 -0.0342  0.2916  0.1408
   78MOL   O15332647   6.314   3.661   1.072 -0.4957 -0.4866  1.2609
   78MOL   C15432648   6.397   3.695   0.964 -0.4642  0.3041  0.2397
   78MOL   C15532649   6.449   3.843   0.964  0.2621  0.7071 -0.2227
   78MOL   C15632650   6.338   3.947   0.957 -0.2465 -0.2735 -0.4901
   78MOL   C15732651   6.367   4.083   1.019 -0.1628 -0.4874 -0.8698
   78MOL   H15832652   6.107   3.472   1.376 -0.3281 -1.9244 -0.9785
   78MOL   H15932653   6.116   3.503   1.205  0.7845  0.7508  0.0380
   78MOL   H16032654   6.354   3.550   1.374  2.7114  1.2173 -1.6289
   78MOL   H16132655   6.329   3.678   0.881  0.8672  1.3223 -1.1135
   78MOL   H16232656   6.480   3.627   0.943 -0.1888  0.9564 -0.8925
   78MOL   H16332657   6.523   3.858   1.043  2.4615 -1.0533 -1.8739
   78MOL   H16432658   6.522   3.855   0.884 -0.1965 -0.0607 -0.7660
   78MOL   H16532659   6.249   3.919   1.013 -1.3080  1.1287 -1.4468
   78MOL   H16632660   6.302   3.973   0.858 -0.6615  0.5585 -0.1249
   78MOL   H16732661   6.384   4.073   1.126 -0.2509  1.0452 -0.7049
   78MOL   H16832662   6.287   4.156   1.002  1.1994  0.9356 -1.2843
   78MOL   H16932663   6.452   4.133   0.973 -0.2714  0.4509 -0.0711
   78MOL   C17032664   6.229   3.723   1.357 -0.5237 -0.0012 -0.0757
   78MOL   C17132665   6.328   3.846   1.373  0.0606  0.1945 -0.2717
   78MOL   C17232666   6.256   3.972   1.435 -0.0024  0.4052 -1.0197
   78MOL   O17332667   6.277   4.083   1.384  0.9323  0.4185  0.5959
   78MOL   O17432668   6.174   3.945   1.538  0.9714 -0.0099  0.1723
   78MOL   C17532669   6.106   4.053   1.595 -0.3768  0.0049  0.4834
   78MOL   C17632670   6.204   4.115   1.688 -0.1116 -0.3605  0.7198
   78MOL   C17732671   6.270   4.027   1.801 -0.3098 -0.1726 -0.0693
   78MOL   C17832672   6.359   4.112   1.898  0.0785 -0.0130  0.2235
   78MOL   H17932673   6.172   3.708   1.449  0.3540  0.3955  0.5497
   78MOL   H18032674   6.157   3.760   1.284  0.4684 -2.1245 -2.1904
   78MOL   H18132675   6.364   3.881   1.276  0.5485  1.7897  0.4664
   78MOL   H18232676   6.019   4.020   1.653 -1.6993  2.3063 -0.1009
   78MOL   H18332677   6.074   4.128   1.522  1.2749  0.5023  0.2473
   78MOL   H18432678   6.287   4.155   1.629  0.8648 -1.2011  1.5027
   78MOL   H18532679   6.161   4.198   1.745  0.4797 -0.5730  1.4849
   78MOL   H18632680   6.334   3.949   1.759  0.9937  0.5940  0.4592
   78MOL   H18732681   6.203   3.968   1.864  1.8860 -1.6647  0.9577
   78MOL   H18832682   6.296   4.191   1.939  1.5206  1.7543 -0.8712
   78MOL   H18932683   6.444   4.156   1.846  0.8597 -0.0867  1.4206
   78MOL   H19032684   6.384   4.049   1.983  0.5103  0.4378  0.4295
   78MOL   C19132685   6.456   3.811   1.458 -0.7145  0.6105 -0.1033
   78MOL   C19232686   6.591   3.858   1.396  0.3705  0.2126  0.0080
   78MOL   C19332687   6.617   4.007   1.429 -0.2766 -0.0157  0.2448
   78MOL   O19432688   6.644   4.036   1.544 -0.3145 -0.1425  0.0820
   78MOL   O19532689   6.608   4.080   1.321  0.2574  0.2815 -0.0658
   78MOL   C19632690   6.616   4.224   1.323  0.5718  0.6371  0.1137
   78MOL   C19732691   6.727   4.276   1.238 -1.0283 -0.3530 -0.4896
   78MOL   C19832692   6.682   4.289   1.089  0.0622  0.7889 -0.8627
   78MOL   C19932693   6.793   4.353   1.009  0.1889 -0.0226  0.2888
   78MOL   H20032694   6.454   3.702   1.460 -0.2024  0.6041  0.3884
   78MOL   H20132695   6.456   3.839   1.564 -0.6808  1.5871 -0.3524
   78MOL   H20232696   6.591   3.847   1.288  0.2853 -0.1927  0.0485
   78MOL   H20332697   6.606   4.262   1.425  1.9600  0.3354  0.3771
   78MOL   H20432698   6.518   4.259   1.291 -0.5276 -1.0997  1.4875
   78MOL   H20532699   6.749   4.377   1.271  2.7372 -0.6036 -1.9585
   78MOL   H20632700   6.819   4.222   1.264  0.0967  1.9719  0.4512
   78MOL   H20732701   6.587   4.339   1.069 -0.5438 -1.2017 -3.1775
   78MOL   H20832702   6.670   4.185   1.057 -1.6105  0.8740 -0.5776
   78MOL   H20932703   6.772   4.322   0.907 -0.5691 -0.4020  0.5508
   78MOL   H21032704   6.895   4.324   1.034  0.4172  0.6323  0.1421
   78MOL   H21132705   6.792   4.462   1.016  0.9887 -0.0419  0.6886
   78MOL   C21232706   6.708   3.758   1.445 -0.0358 -0.3260 -1.2676
   78MOL   C21332707   6.844   3.770   1.366 -0.1708  0.0591 -0.6172
   78MOL   C21432708   6.845   3.717   1.226 -0.0437 -0.3496 -0.5164
   78MOL   O21532709   6.869   3.786   1.128 -0.0638  0.4643  0.3632
   78MOL   O21632710   6.809   3.585   1.217 -0.4347  0.4428 -0.0132
   78MOL   C21732711   6.776   3.518   1.098 -0.4142 -0.1159  0.6596
   78MOL   C21832712   6.889   3.415   1.057 -0.0240  0.3139 -0.5778
   78MOL   C21932713   6.839   3.346   0.931 -0.4014 -0.5043  0.4708
   78MOL   C22032714   6.935   3.248   0.865  0.3655  0.6822  0.2643
   78MOL   H22132715   6.673   3.656   1.459  0.6520 -0.2185  1.6193
   78MOL   H22232716   6.718   3.790   1.549 -2.1886  1.8802 -1.7157
   78MOL   H22332717   6.914   3.709   1.424  0.9725  0.5235 -1.4784
   78MOL   H22432718   6.750   3.594   1.025  0.7773  0.3508  0.7075
   78MOL   H22532719   6.683   3.467   1.125 -0.6275 -0.1258 -0.1056
   78MOL   H22632720   6.984   3.469   1.047  0.9616 -0.8581  1.9809
   78MOL   H22732721   6.906   3.343   1.137 -2.1701  1.1808  0.6805
   78MOL   H22832722   6.810   3.420   0.856  2.1305 -0.7087 -0.7632
   78MOL   H22932723   6.751   3.285   0.951 -0.6443  0.5774  2.9191
   78MOL   H23032724   6.967   3.158   0.917 -0.3313 -0.0102 -0.4832
   78MOL   H23132725   7.030   3.292   0.833  0.1174  0.4276 -0.8665
   78MOL   H23232726   6.883   3.215   0.775  0.3348 -1.1876  0.9496
   78MOL   C23332727   6.930   3.903   1.371  0.5015 -0.4456  0.3472
   78MOL   C23432728   7.080   3.872   1.356 -1.0928  0.0019  0.3163
   78MOL   C23532729   7.166   3.994   1.315  0.3924 -0.1655  0.6083
   78MOL   O23632730   7.210   4.005   1.203  0.0827  0.0789 -0.3932
   78MOL   O23732731   7.187   4.075   1.413  0.1631 -0.0457 -0.3697
   78MOL   C23832732   7.220   4.209   1.400  0.3009 -0.2887  0.2043
   78MOL   C23932733   7.097   4.295   1.367 -0.1631 -1.4314 -0.2545
   78MOL   C24032734   7.127   4.452   1.375  0.1564 -0.8542  0.8966
   78MOL   C24132735   7.004   4.528   1.342  0.0452 -0.7514 -0.3895
   78MOL   H24232736   6.897   3.957   1.459  0.1611 -1.0721  0.6067
   78MOL   H24332737   6.898   3.975   1.296 -0.6906 -1.4285 -0.1092
   78MOL   H24432738   7.084   3.796   1.278 -0.3342  0.5592 -0.1925
   78MOL   H24532739   7.316   4.214   1.349  1.3387 -0.0787  2.1605
   78MOL   H24632740   7.254   4.229   1.501 -2.4493 -1.5493  1.4512
   78MOL   H24732741   7.051   4.265   1.273  0.9046 -1.4392 -0.7778
   78MOL   H24832742   7.026   4.274   1.447 -0.5343  1.5908  0.2413
   78MOL   H24932743   7.211   4.473   1.308 -1.9091 -0.1870 -1.5479
   78MOL   H25032744   7.155   4.482   1.476 -1.6638  0.0083  1.1653
   78MOL   H25132745   7.015   4.636   1.351 -2.9847 -0.6090  2.9928
   78MOL   H25232746   6.914   4.500   1.397 -0.3325 -0.6541 -0.9552
   78MOL   H25332747   6.982   4.494   1.241 -1.3540 -2.8828  0.5874
   78MOL   C25432748   7.145   3.802   1.481 -0.0896  0.2521  0.1550
   78MOL   C25532749   7.180   3.655   1.462 -0.6429 -0.4867  0.4281
   78MOL   C25632750   7.286   3.634   1.351  0.0442 -1.1162 -0.2343
   78MOL   O25732751   7.270   3.555   1.264 -0.6649  0.6371  0.6441
   78MOL   O25832752   7.395   3.707   1.377  0.7098  0.0715 -0.0636
   78MOL   C25932753   7.501   3.711   1.278  0.3580 -0.4543 -0.0245
   78MOL   C26032754   7.626   3.790   1.325  0.2032 -0.3039  0.2783
   78MOL   C26132755   7.694   3.735   1.455  0.0169  0.0316  0.1080
   78MOL   C26232756   7.820   3.813   1.501  0.8729  0.3904  0.1173
   78MOL   H26332757   7.065   3.811   1.555 -0.6763 -1.9809 -0.1585
   78MOL   H26432758   7.236   3.852   1.514 -0.6132  0.6934  0.9485
   78MOL   H26532759   7.098   3.600   1.417 -1.4269  1.4974 -0.6248
   78MOL   H26632760   7.462   3.756   1.186 -2.2995  0.4826  1.4770
   78MOL   H26732761   7.533   3.612   1.246  0.3803 -1.0481  1.7727
   78MOL   H26832762   7.695   3.785   1.242 -0.9631 -0.9499 -0.6670
   78MOL   H26932763   7.609   3.895   1.349  1.8480  0.3215 -1.2000
   78MOL   H27032764   7.716   3.629   1.443  0.2645  0.0053  0.7767
   78MOL   H27132765   7.623   3.733   1.537 -0.0757  1.7042  0.0953
   78MOL   H27232766   0.001   3.782   1.599  1.4170 -0.1740 -0.2520
   78MOL   H27332767   7.800   3.920   1.510  1.8984  0.8552 -2.6205
   78MOL   H27432768   0.042   3.802   1.423 -0.5175  0.2710 -1.2518
   78MOL   C27532769   7.227   3.584   1.588 -0.3677  0.3738 -0.0349
   78MOL   C27632770   7.141   3.586   1.721 -0.4038  0.0288 -0.3387
   78MOL   C27732771   6.993   3.544   1.699  0.1594  0.9836 -0.6481
   78MOL   O27832772   6.953   3.490   1.592  0.5279 -0.4274  0.0491
   78MOL   O27932773   6.919   3.573   1.806  0.7123  0.0339  0.2891
   78MOL   C28032774   6.779   3.548   1.822 -0.1170  0.0651  0.1065
   78MOL   C28132775   6.703   3.630   1.927 -0.3479 -0.0702 -0.2583
   78MOL   C28232776   6.667   3.768   1.873 -0.2235  0.6591  0.0732
   78MOL   C28332777   6.575   3.841   1.968  0.6542  0.2291  0.2177
   78MOL   H28432778   7.329   3.616   1.608 -0.6140  0.8053  0.5450
   78MOL   H28532779   7.232   3.478   1.563  1.2573  0.6754 -1.0527
   78MOL   H28632780   7.140   3.682   1.773  0.1794  0.1312 -0.5121
   78MOL   H28732781   6.769   3.447   1.861 -2.2055 -0.2252 -1.1018
   78MOL   H28832782   6.714   3.550   1.735 -2.6680  1.3112  1.9666
   78MOL   H28932783   6.608   3.590   1.962 -0.2912  0.8436  0.9382
   78MOL   H29032784   6.762   3.636   2.018 -1.0457  1.3989  0.1076
   78MOL   H29132785   6.617   3.753   1.778  2.1684 -1.3097 -0.9379
   78MOL   H29232786   6.754   3.825   1.841 -1.7406  2.6887 -0.5265
   78MOL   H29332787   6.476   3.795   1.968  1.2739 -1.2646  3.6093
   78MOL   H29432788   6.560   3.948   1.952 -1.5681  0.1082  1.2213
   78MOL   H29532789   6.607   3.824   2.070 -2.0915  0.7813  1.2140
   78MOL   C29632790   7.199   3.488   1.826  0.0748 -0.3423  0.1360
   78MOL   C29732791   7.349   3.486   1.839  0.1082 -0.4341 -0.2186
   78MOL   C29832792   7.404   3.609   1.911  0.9164 -0.4822  0.0756
   78MOL   O29932793   7.351   3.652   2.016 -0.1121  0.4103  0.4729
   78MOL   O30032794   7.521   3.656   1.863 -0.0856  0.1266  0.3032
   78MOL   C30132795   7.585   3.772   1.921  0.1409  0.0964 -0.1295
   78MOL   C30232796   7.583   3.886   1.829  0.1310 -0.3230  0.5452
   78MOL   C30332797   7.442   3.936   1.789  0.3354  0.1984  0.4653
   78MOL   C30432798   7.442   4.061   1.703  0.5451 -0.1246  0.0875
   78MOL   H30532799   7.166   3.391   1.789  1.1673 -0.7136  0.1345
   78MOL   H30632800   7.158   3.501   1.927 -0.8672 -1.3515 -0.1146
   78MOL   H30732801   7.397   3.474   1.743 -0.3604 -1.3085 -0.3473
   78MOL   H30832802   7.686   3.750   1.956 -0.1855  0.4647  1.0675
   78MOL   H30932803   7.536   3.800   2.014  0.1166 -1.9739  0.5190
   78MOL   H31032804   7.650   3.959   1.874  0.1399 -1.4005  2.3431
   78MOL   H31132805   7.630   3.870   1.732  2.2452  1.5317  1.2158
   78MOL   H31232806   7.392   3.960   1.883  1.9538 -1.8915  1.9080
   78MOL   H31332807   7.387   3.863   1.731 -1.6977  1.4871  0.7136
   78MOL   H31432808   7.348   4.116   1.710 -0.0651 -1.1550 -0.0477
   78MOL   H31532809   7.463   4.024   1.603 -1.2869  1.4206 -0.8994
   78MOL   H31632810   7.536   4.110   1.731  0.8067  0.0798 -1.1263
   78MOL   C31732811   7.391   3.355   1.897  0.2319  0.5316 -0.5566
   78MOL   C31832812   7.541   3.345   1.932  0.9116 -0.0801 -0.1916
   78MOL   C31932813   7.561   3.213   2.012  0.1328  0.2174  0.2279
   78MOL   O32032814   7.518   3.101   1.974  0.2987  0.4547  0.2695
   78MOL   O32132815   7.615   3.235   2.129  0.1043  0.6616 -0.5727
   78MOL   C32232816   7.623   3.134   2.236 -0.3316 -0.5098 -0.3746
   78MOL   C32332817   7.765   3.085   2.251  0.0743  0.6596 -0.1807
   78MOL   C32432818   7.846   3.183   2.325  0.7491 -0.4241  0.3159
   78MOL   C32532819   0.141   3.142   2.317 -0.2249 -0.4181  0.0153
   78MOL   H32632820   7.364   3.267   1.840 -0.3888 -1.0323  2.0556
   78MOL   H32732821   7.333   3.342   1.989  0.9712  0.5940 -0.0818
   78MOL   H32832822   7.568   3.417   2.010 -0.1480  0.2128 -0.0943
   78MOL   H32932823   7.557   3.056   2.199 -0.0335 -0.8639 -0.1689
   78MOL   H33032824   7.582   3.180   2.326 -0.7802 -2.9601  0.7046
   78MOL   H33132825   7.761   2.982   2.289 -0.7345  0.1816 -1.4968
   78MOL   H33232826   7.818   3.073   2.156  1.4811  1.4949  0.5033
   78MOL   H33332827   7.812   3.196   2.428 -1.1546 -1.2483 -0.1870
   78MOL   H33432828   7.837   3.279   2.276  2.4274 -0.3799  0.0600
   78MOL   H33532829   0.171   3.141   2.212  1.1810  0.0751  0.4118
   78MOL   H33632830   0.163   3.045   2.362  1.4345  0.4519  1.1427
   78MOL   H33732831   0.199   3.220   2.366 -1.2747  1.7385 -2.1161
   78MOL   C33832832   7.633   3.353   1.810  0.4568 -0.4817 -0.1998
   78MOL   C33932833   7.785   3.349   1.833 -0.3812 -0.6957  0.3073
   78MOL   C34032834   0.009   3.322   1.702 -1.1963 -0.0023  0.1205
   78MOL   O34132835   0.058   3.209   1.689  0.1725 -0.0302 -0.4479
   78MOL   O34232836   0.021   3.417   1.608 -0.3363 -0.0206  0.2913
   78MOL   C34332837   0.066   3.391   1.477 -0.4672  0.0072  0.2214
   78MOL   C34432838   7.822   3.306   1.386 -0.6849 -0.6254 -0.2620
   78MOL   C34532839   7.692   3.375   1.356 -0.0639 -0.6168 -0.5548
   78MOL   C34632840   7.593   3.294   1.277 -0.3747 -0.0223  0.4729
   78MOL   H34732841   7.611   3.449   1.763  1.8557 -0.2322 -0.3494
   78MOL   H34832842   7.598   3.279   1.739 -0.2191 -2.3988  2.0737
   78MOL   H34932843   7.810   3.257   1.886  0.5656 -0.7175 -0.1647
   78MOL   H35032844   0.153   3.330   1.500  0.1711  1.1873  1.0293
   78MOL   H35132845   0.099   3.483   1.429 -3.5903  3.0220  3.4501
   78MOL   H35232846   0.018   3.284   1.291 -0.6142  0.3936 -0.4636
   78MOL   H35332847   7.805   3.208   1.431 -0.4669 -0.9663 -0.9031
   78MOL   H35432848   7.708   3.463   1.293 -2.0300  0.0122 -0.2076
   78MOL   H35532849   7.642   3.408   1.447  0.5031 -0.9827 -0.1109
   78MOL   H35632850   7.625   3.269   1.176  0.7682 -0.9432  1.0476
   78MOL   H35732851   7.498   3.348   1.274 -0.3938 -0.0562  0.4600
   78MOL   H35832852   7.575   3.199   1.328  1.0886  0.6607  2.3283
   78MOL   C35932853   7.833   3.474   1.907 -0.7399  0.1511  0.0845
   78MOL   C36032854   0.129   3.484   1.957  0.6424 -0.6767 -0.0195
   78MOL   C36132855   0.235   3.499   1.844  0.7604  0.4046 -0.2288
   78MOL   O36232856   0.323   3.416   1.829  0.2147 -0.1927 -0.0190
   78MOL   O36332857   0.217   3.619   1.774 -0.0972 -0.2565  0.4137
   78MOL   C36432858   0.313   3.642   1.670 -0.3108  0.0103 -0.1418
   78MOL   C36532859   0.433   3.721   1.728 -0.0565  0.3719  0.1170
   78MOL   C36632860   0.553   3.750   1.631  0.3272 -0.2646  0.6621
   78MOL   C36732861   0.596   3.619   1.555  0.6157  0.0296 -0.5321
   78MOL   H36832862   7.769   3.490   1.993  0.8029  2.6398  0.7911
   78MOL   H36932863   7.815   3.559   1.842  0.6052 -1.3286 -2.3244
   78MOL   H37032864   0.131   3.389   2.011 -2.2236 -1.4384 -1.1514
   78MOL   H37132865   0.263   3.686   1.584 -2.4574  0.8541  1.4935
   78MOL   H37232866   0.333   3.549   1.617 -2.6006 -0.0569 -0.9652
   78MOL   H37332867   0.403   3.817   1.770 -1.4006  0.1849 -0.3651
   78MOL   H37432868   0.473   3.663   1.811 -0.2031 -0.3221 -0.2863
   78MOL   H37532869   0.642   3.783   1.683 -0.2817  0.7127  1.0941
   78MOL   H37632870   0.533   3.834   1.565  1.4280 -1.0375 -0.6865
   78MOL   H37732871   0.513   3.588   1.491 -0.0019  1.5055 -0.4708
   78MOL   H37832872   0.633   3.542   1.622  2.0387 -0.4547 -1.8306
   78MOL   H37932873   0.676   3.649   1.487 -0.5597  0.2580 -1.8425
   78MOL   C38032874   0.143   3.600   2.064  0.2791 -0.0257  0.0768
   78MOL   C38132875   0.270   3.597   2.151  0.4010  0.9859 -0.1820
   78MOL   C38232876   0.328   3.738   2.160  0.2604 -0.1387  1.0353
   78MOL   O38332877   0.436   3.767   2.102  0.0808  0.2398  0.0420
   78MOL   O38432878   0.246   3.825   2.232 -0.0836  0.2848  0.2269
   78MOL   C38532879   0.288   3.957   2.251 -0.5258 -0.6429 -0.3374
   78MOL   C38632880   0.205   4.060   2.171 -0.1262  0.0611  0.9657
   78MOL   C38732881   0.255   4.198   2.204  0.8169 -0.1882 -0.2342
   78MOL   C38832882   0.186   4.319   2.128  0.6452 -0.1790 -0.3634
   78MOL   H38932883   0.056   3.601   2.129  0.1541  0.1431 -0.0925
   78MOL   H39032884   0.131   3.692   2.007  0.4975 -0.2129 -0.2717
   78MOL   H39132885   0.354   3.541   2.109  0.6398  0.1986  1.3206
   78MOL   H39232886   0.392   3.963   2.217  0.1685  1.2472  2.0112
   78MOL   H39332887   0.289   3.988   2.355 -1.2609  0.2661 -0.5993
   78MOL   H39432888   0.207   4.035   2.065  1.0826  0.3340  0.9242
   78MOL   H39532889   0.101   4.061   2.205 -0.1032 -1.7537  1.1506
   78MOL   H39632890   0.361   4.212   2.181  0.3787  3.5006 -0.1687
   78MOL   H39732891   0.251   4.218   2.311  1.6736  1.7783 -0.5573
   78MOL   H39832892   0.080   4.333   2.154  0.5506  0.5562 -1.1211
   78MOL   H39932893   0.192   4.303   2.020 -0.4092 -2.8499 -0.0686
   78MOL   H40032894   0.243   4.408   2.151 -0.1057  0.1432  0.2815
   78MOL   C40132895   0.250   3.510   2.281  0.5347  0.6042 -0.1744
   78MOL   C40232896   0.188   3.581   2.404 -0.6789  0.5550 -0.0973
   78MOL   C40332897   0.116   3.484   2.502  0.1911 -0.2375  0.0149
   78MOL   O40432898   7.849   3.485   2.521  0.4802  0.6243  0.2513
   78MOL   O40532899   0.208   3.404   2.566 -0.2419  0.2781  0.4827
   78MOL   C40632900   0.167   3.295   2.637  0.3051 -0.0385 -0.3816
   78MOL   C40732901   0.148   3.337   2.788  0.1555  0.1428  0.5534
   78MOL   C40832902   0.274   3.351   2.871  0.2720 -0.7547  0.2932
   78MOL   C40932903   0.257   3.289   3.010  0.5529  0.2584 -0.1765
   78MOL   H41032904   0.345   3.470   2.317 -0.0649 -1.3555 -0.6777
   78MOL   H41132905   0.196   3.417   2.258  1.2253 -0.7460  3.3091
   78MOL   H41232906   0.101   3.636   2.370 -0.3434 -0.1327 -2.1540
   78MOL   H41332907   0.252   3.229   2.617 -1.0351 -2.7094  2.3850
   78MOL   H41432908   0.078   3.245   2.598  0.5252 -1.0883  0.4214
   78MOL   H41532909   0.099   3.434   2.777  1.9219  1.0646  0.4639
   78MOL   H41632910   0.093   3.261   2.842 -0.3221  0.1740  0.1122
   78MOL   H41732911   0.288   3.458   2.887 -3.0043 -0.1748 -0.4816
   78MOL   H41832912   0.359   3.323   2.807  1.8512  2.6924  0.7887
   78MOL   H41932913   0.177   3.345   3.059  0.1606  1.0114 -1.6598
   78MOL   H42032914   0.352   3.294   3.064 -0.0715 -2.9582  1.3879
   78MOL   H42132915   0.230   3.185   2.993  0.4020  0.5716 -1.8777
   78MOL   H42232916   0.261   3.645   2.453  0.4377  0.2900 -1.3681
   79MOL     C132917   0.921   7.618   1.733 -0.9308 -0.4120 -0.3459
   79MOL     C232918   0.922   7.566   1.873  0.0279 -0.4789  0.7960
   79MOL     C332919   0.872   7.420   1.876  0.2072 -0.4227  0.0689
   79MOL     O432920   0.763   7.398   1.926  0.1067  0.2344 -0.2169
   79MOL     O532921   0.960   7.337   1.803  0.1498  0.2659  0.0094
   79MOL     C632922   0.905   7.216   1.758 -0.6156  0.1555 -0.7752
   79MOL     C732923   0.892   7.225   1.602  0.2206  0.2350 -0.1072
   79MOL     C832924   0.831   7.100   1.538  0.2291 -0.4896 -0.3099
   79MOL     C932925   0.789   7.113   1.389 -0.0382 -0.0081  0.2313
   79MOL    H1032926   1.024   7.636   1.701 -0.4160 -1.1250  0.8695
   79MOL    H1132927   0.869   7.550   1.665  3.4850 -2.6239 -1.7164
   79MOL    H1232928   0.848   7.624   1.928  0.6588 -0.5405  1.7258
   79MOL    H1332929   0.809   7.193   1.803 -0.6867  1.0230 -0.4754
   79MOL    H1432930   0.967   7.131   1.787 -1.9122 -0.5685 -0.0923
   79MOL    H1532931   0.826   7.310   1.583 -0.0842  0.1748  0.6418
   79MOL    H1632932   0.986   7.234   1.549 -1.6713  1.4649 -3.4408
   79MOL    H1732933   0.748   7.061   1.596  0.1829 -1.2459 -0.8669
   79MOL    H1832934   0.915   7.033   1.557  1.1462  0.1037 -2.1562
   79MOL    H1932935   0.735   7.028   1.347  0.1769  0.0800 -0.2251
   79MOL    H2032936   0.869   7.122   1.315 -2.3529 -1.0488 -2.5181
   79MOL    H2132937   0.726   7.202   1.384 -3.7088 -2.2746  2.8938
   79MOL    H2232938   0.876   7.717   1.737 -0.0961  0.0263 -1.6265
   79MOL    C2332939   1.059   7.586   1.949 -1.1322  0.5668 -0.6192
   79MOL    C2432940   1.121   7.730   1.970 -0.1028 -0.7367  0.9856
   79MOL    C2532941   1.034   7.815   2.062 -0.3750  0.9059  0.5420
   79MOL    O2632942   1.015   7.797   2.185 -0.6060  0.0964  0.6879
   79MOL    O2732943   0.960   0.054   1.994  0.4668  0.5675  0.6301
   79MOL    C2832944   0.860   0.129   2.065  0.4096 -0.3292  0.5556
   79MOL    C2932945   0.773   0.194   1.964  0.1757 -0.2156 -0.0860
   79MOL    C3032946   0.673   0.294   2.025  0.7117  0.0982 -0.2450
   79MOL    C3132947   0.600   0.362   1.904 -1.0903 -0.5467 -0.3322
   79MOL    H3232948   1.135   7.515   1.916  0.5716  0.7171  2.7720
   79MOL    H3332949   1.045   7.550   2.051  2.2757  1.1489  0.1200
   79MOL    H3432950   1.124   7.779   1.873  0.3616 -0.8730  0.9315
   79MOL    H3532951   0.907   0.210   2.122  0.4473  1.3477 -1.7935
   79MOL    H3632952   0.809   0.062   2.135 -0.5983 -0.4555 -0.2988
   79MOL    H3732953   0.833   0.253   1.894 -2.4333  1.6540 -0.8041
   79MOL    H3832954   0.732   0.119   1.896  1.0888  0.2045 -1.1231
   79MOL    H3932955   0.711   0.353   2.108 -1.9425  0.2561  0.9222
   79MOL    H4032956   0.592   0.238   2.072 -0.4307  2.2271  0.4108
   79MOL    H4132957   0.543   0.299   1.835  0.8210 -1.5576 -1.0287
   79MOL    H4232958   0.664   0.434   1.853 -1.3806 -0.9224 -1.2412
   79MOL    H4332959   0.524   0.425   1.949  1.0820  1.1248  1.0936
   79MOL    C4432960   1.265   7.726   2.024 -0.2753 -0.2258  0.0795
   79MOL    C4532961   1.340   0.012   2.054 -1.2563 -0.4503 -0.5158
   79MOL    C4632962   1.341   0.112   1.928  0.1084 -0.8060  0.3940
   79MOL    O4732963   1.438   0.121   1.857 -0.3766 -0.0668 -0.3315
   79MOL    O4832964   1.221   0.178   1.902 -0.0679  0.4927  0.2532
   79MOL    C4932965   1.208   0.264   1.790 -0.0291 -0.3030  0.3360
   79MOL    C5032966   1.195   0.181   1.656  0.9406  0.3348  0.3560
   79MOL    C5132967   1.040   0.142   1.638 -0.1423  0.0002 -0.3440
   79MOL    C5232968   1.027   0.039   1.529  0.3978 -0.3754 -0.2669
   79MOL    H5332969   1.330   7.664   1.962  0.2919 -1.0639  1.4994
   79MOL    H5432970   1.272   7.680   2.122 -1.8796  0.2845  0.4382
   79MOL    H5532971   1.444   7.834   2.058 -1.2288 -0.4058 -0.8849
   79MOL    H5632972   1.300   0.322   1.788  0.5647 -1.2592 -1.9604
   79MOL    H5732973   1.128   0.335   1.808 -0.0368  0.1482 -1.4224
   79MOL    H5832974   1.225   0.243   1.571  1.2268 -2.1161 -1.3800
   79MOL    H5932975   1.258   0.092   1.668  1.4697  0.8941  1.8214
   79MOL    H6032976   0.976   0.228   1.617 -2.4113 -1.5702 -0.0832
   79MOL    H6132977   0.998   0.107   1.732 -2.5241  1.4382 -0.8164
   79MOL    H6232978   1.080   7.801   1.556  0.6438 -0.4976 -1.1523
   79MOL    H6332979   1.057   0.075   1.431 -1.5528  0.1367 -0.6972
   79MOL    H6432980   0.919   0.024   1.530  0.3384  0.0583  0.0003
   79MOL    C6532981   1.307   0.082   2.188 -0.1169 -0.7326 -0.5346
   79MOL    C6632982   1.335   7.848   2.320 -0.1169  0.4922 -0.2221
   79MOL    C6732983   1.448   7.739   2.313  0.1253 -0.2182  1.3816
   79MOL    O6832984   1.418   7.623   2.299 -0.1750  0.1427 -0.2722
   79MOL    O6932985   1.574   7.789   2.299 -0.3134 -0.5603 -0.1261
   79MOL    C7032986   1.692   7.712   2.297 -0.4930  0.2974 -0.5843
   79MOL    C7132987   1.783   7.774   2.403 -0.1145  0.0441  0.1406
   79MOL    C7232988   1.920   7.710   2.386  0.0287 -0.1052  0.1377
   79MOL    C7332989   2.023   7.771   2.485 -0.2984  0.1407  0.3755
   79MOL    H7432990   1.204   0.117   2.182 -1.6497 -4.9538 -0.2435
   79MOL    H7532991   1.373   0.169   2.191 -1.0337 -0.0509  0.1804
   79MOL    H7632992   1.242   7.801   2.351 -0.0919  1.2765  1.0650
   79MOL    H7732993   1.734   7.710   2.197  1.8275 -0.1602  0.3666
   79MOL    H7832994   1.660   7.612   2.324  0.2668  0.0883 -0.4684
   79MOL    H7932995   1.792   0.028   2.387  0.9449 -0.1590 -0.6303
   79MOL    H8032996   1.736   7.771   2.502  0.3252  0.2678  0.3543
   79MOL    H8132997   1.966   7.741   2.291  3.2625 -0.7499  1.4234
   79MOL    H8232998   1.899   7.603   2.381  1.7833 -0.5119  1.1202
   79MOL    H8332999   1.996   7.756   2.589 -1.8942 -2.7788 -0.4062
   79MOL    H8433000   2.037   0.025   2.470 -1.3766 -0.2644 -4.1968
   79MOL    H8533001   2.121   7.728   2.464  0.4121  1.3910  1.0420
   79MOL    C8633002   1.376   0.086   2.437 -0.5013 -0.1837 -0.4767
   79MOL    C8733003   1.261   0.149   2.521 -0.1970 -0.3355  0.4423
   79MOL    C8833004   1.194   0.041   2.614  0.6534  0.0941  0.2688
   79MOL    O8933005   1.219   0.026   2.732  0.4792  0.5980 -0.0760
   79MOL    O9033006   1.113   7.813   2.550  0.6288  0.2552 -0.7258
   79MOL    C9133007   1.062   7.698   2.626 -0.4577 -0.5621 -0.7615
   79MOL    C9233008   1.126   7.566   2.583  0.2961  0.8949 -0.0585
   79MOL    C9333009   1.083   7.518   2.445 -0.4162  0.4068  0.2265
   79MOL    C9433010   0.929   7.505   2.410  0.5326  0.2058  0.3615
   79MOL    H9533011   1.427   0.174   2.399 -1.7173  1.3738  1.4229
   79MOL    H9633012   1.434   0.026   2.506 -2.2363 -0.7857  0.4965
   79MOL    H9733013   1.181   0.176   2.452 -0.7267 -2.0127  0.3781
   79MOL    H9833014   0.955   7.694   2.602 -0.5791  0.4315 -0.4381
   79MOL    H9933015   1.068   7.708   2.734 -1.9598  2.2040 -0.8704
   79MOL   H10033016   1.235   7.565   2.589  0.2518 -1.5507  0.7976
   79MOL   H10133017   1.103   7.489   2.657 -2.0534 -0.2092 -1.8925
   79MOL   H10233018   1.129   7.425   2.413 -2.2762 -0.2856 -0.5203
   79MOL   H10333019   1.123   7.592   2.375  1.5097 -0.3496  0.4994
   79MOL   H10433020   0.929   7.476   2.305 -0.3415 -3.5524  1.3445
   79MOL   H10533021   0.873   7.597   2.425  0.2229 -0.1239  1.2475
   79MOL   H10633022   0.886   7.431   2.477 -3.2231  0.6432 -1.4568
   79MOL   C10733023   1.320   0.272   2.605  0.0780  0.4266  0.1095
   79MOL   C10833024   1.217   0.362   2.674 -0.0660  0.2678  0.4636
   79MOL   C10933025   1.279   0.474   2.766 -0.4895 -1.1872  0.2455
   79MOL   O11033026   1.401   0.494   2.763 -0.0753  0.0150  0.5985
   79MOL   O11133027   1.187   0.533   2.848  0.0582 -0.3464  0.5252
   79MOL   C11233028   1.233   0.607   2.958  0.2370 -0.6404  0.0101
   79MOL   C11333029   1.124   0.589   3.059  0.5757 -0.4077 -0.3182
   79MOL   C11433030   1.108   0.450   3.108 -0.2001 -0.1644 -0.4845
   79MOL   C11533031   1.024   0.446   3.236  0.0380 -0.2142  0.3116
   79MOL   H11633032   1.368   0.343   2.537  2.6724 -1.2015  0.1872
   79MOL   H11733033   1.398   0.242   2.675  0.8084  1.7308 -0.1270
   79MOL   H11833034   1.172   0.300   2.752 -2.1774  0.2061 -0.7893
   79MOL   H11933035   1.251   0.712   2.932  2.9279 -1.9029 -3.5484
   79MOL   H12033036   1.323   0.564   3.002 -0.7881 -0.6403  2.1667
   79MOL   H12133037   1.153   0.654   3.141  0.9693  2.1191 -2.3892
   79MOL   H12233038   1.032   0.629   3.016  1.0678  0.2992 -0.7181
   79MOL   H12333039   1.205   0.409   3.135 -0.6962 -1.3625 -0.4833
   79MOL   H12433040   1.063   0.387   3.032 -0.5790  0.7527 -1.0320
   79MOL   H12533041   0.968   0.354   3.253 -1.2544  0.0460 -2.2758
   79MOL   H12633042   0.943   0.517   3.225 -0.0287 -0.5053 -1.2465
   79MOL   H12733043   1.079   0.477   3.325  3.1318 -2.4595 -0.7159
   79MOL   C12833044   1.100   0.410   2.591  0.0411  0.1410 -0.3013
   79MOL   C12933045   1.127   0.528   2.490 -0.4589  0.1926 -0.1058
   79MOL   C13033046   1.150   0.464   2.347  0.2766  0.2506 -0.4317
   79MOL   O13133047   1.086   0.374   2.304  0.2032 -0.2100 -0.6171
   79MOL   O13233048   1.235   0.543   2.277  0.4295 -0.4241  0.4938
   79MOL   C13333049   1.271   0.509   2.141 -0.0517  0.2350  0.0791
   79MOL   C13433050   1.407   0.561   2.116 -0.2345 -0.0276 -0.5562
   79MOL   C13533051   1.456   0.516   1.973 -0.5024  0.4363 -0.4168
   79MOL   C13633052   1.566   0.597   1.907  0.1460  0.3262  0.2173
   79MOL   H13733053   1.036   0.458   2.665 -1.7244  0.3814 -1.9111
   79MOL   H13833054   1.049   0.328   2.538 -1.8602 -1.1255  3.3358
   79MOL   H13933055   1.215   0.590   2.507 -1.7678  2.4751 -1.3612
   79MOL   H14033056   1.204   0.536   2.060 -0.3051  1.1127  0.5790
   79MOL   H14133057   1.281   0.400   2.134  0.5740  0.4325 -2.3324
   79MOL   H14233058   1.408   0.670   2.120  0.3934 -0.0676  0.4398
   79MOL   H14333059   1.473   0.531   2.197  1.3116  2.0206 -1.0160
   79MOL   H14433060   1.368   0.537   1.911  0.1723 -1.1533 -1.9628
   79MOL   H14533061   1.488   0.412   1.980  0.2421  0.7215  0.4836
   79MOL   H14633062   1.662   0.591   1.958 -0.0820  0.4902  0.6643
   79MOL   H14733063   1.535   0.702   1.917 -2.8540 -0.5886  1.1934
   79MOL   H14833064   1.578   0.577   1.801  1.5806 -0.5072  0.5286
   79MOL   C14933065   1.011   0.629   2.483 -0.1393  0.5883  0.7787
   79MOL   C15033066   0.988   0.725   2.601  0.5002  0.4116  0.1800
   79MOL   C15133067   1.103   0.828   2.620  0.0674 -0.3747  0.1840
   79MOL   O15233068   1.186   0.811   2.710 -0.0825 -0.0503  0.3294
   79MOL   O15333069   1.105   0.928   2.529  0.1816  0.1680 -0.0959
   79MOL   C15433070   1.196   1.032   2.545 -0.1495 -0.4706 -0.0222
   79MOL   C15533071   1.246   1.074   2.408 -0.1945 -0.5257  0.6813
   79MOL   C15633072   1.342   0.975   2.345 -0.7570  0.1127 -0.3685
   79MOL   C15733073   1.374   1.014   2.198  0.4726 -0.5383 -0.7316
   79MOL   H15833074   0.920   0.583   2.445  0.8125 -1.3709  0.8497
   79MOL   H15933075   1.038   0.696   2.401  0.4751  1.1617  1.4415
   79MOL   H16033076   0.989   0.669   2.695  0.1438 -1.7983 -1.0814
   79MOL   H16133077   1.279   1.003   2.608 -0.0013  2.3173  1.1729
   79MOL   H16233078   1.150   1.120   2.590  0.2482  0.8477 -2.1027
   79MOL   H16333079   1.170   1.093   2.332 -0.3306 -0.3202  0.8689
   79MOL   H16433080   1.295   1.172   2.414 -2.2043  0.5424  0.3181
   79MOL   H16533081   1.299   0.874   2.346  0.3491 -0.3668 -0.1599
   79MOL   H16633082   1.431   0.965   2.406 -1.7068  2.4901  1.4505
   79MOL   H16733083   1.457   1.084   2.206 -0.4201  0.9334 -3.5485
   79MOL   H16833084   1.291   1.046   2.134 -0.2313  1.4538  1.1073
   79MOL   H16933085   1.418   0.927   2.150  0.8920 -0.2555 -0.8643
   79MOL   C17033086   0.850   0.787   2.581 -0.0539 -0.2865 -0.1358
   79MOL   C17133087   0.729   0.694   2.633 -0.0847  0.1402 -0.3061
   79MOL   C17233088   0.735   0.679   2.783  0.0210  0.8897 -1.2376
   79MOL   O17333089   0.763   0.565   2.828 -0.7981  0.0903  0.5553
   79MOL   O17433090   0.717   0.785   2.858  0.1305 -0.2316  0.6328
   79MOL   C17533091   0.700   0.772   2.995 -0.6623  0.1078  0.1904
   79MOL   C17633092   0.569   0.700   3.020 -0.3210 -0.1915  0.0003
   79MOL   C17733093   0.521   0.734   3.158  0.0018  0.2596 -0.0038
   79MOL   C17833094   0.382   0.679   3.192  0.2513 -0.2246 -0.6605
   79MOL   H17933095   0.840   0.823   2.479  0.1591  4.0246  1.2755
   79MOL   H18033096   0.847   0.872   2.649 -0.6224  0.6822 -1.3471
   79MOL   H18133097   0.743   0.592   2.598 -2.3706  0.3988 -2.0358
   79MOL   H18233098   0.702   0.874   3.034 -1.1145  0.1561  0.0939
   79MOL   H18333099   0.788   0.727   3.040  0.3751 -0.6834 -2.5397
   79MOL   H18433100   0.497   0.738   2.947 -0.3454  0.0234  0.1354
   79MOL   H18533101   0.567   0.592   3.005  0.7418 -0.6422  2.8105
   79MOL   H18633102   0.516   0.838   3.190  0.0930 -0.5855  2.8294
   79MOL   H18733103   0.598   0.697   3.225 -0.7096 -1.0652  0.0992
   79MOL   H18833104   0.299   0.722   3.135 -0.8167 -1.9355 -0.4295
   79MOL   H18933105   0.351   0.710   3.292 -1.0949  0.2824 -1.2152
   79MOL   H19033106   0.384   0.571   3.197  2.7766 -0.1879  0.0310
   79MOL   C19133107   0.596   0.755   2.600  0.0533 -0.3100  0.2797
   79MOL   C19233108   0.539   0.744   2.455 -0.0895  0.5034  0.2146
   79MOL   C19333109   0.561   0.612   2.387 -0.3691  0.2773 -0.2540
   79MOL   O19433110   0.634   0.597   2.286  0.5024 -0.0213 -0.3449
   79MOL   O19533111   0.501   0.508   2.446  0.8642 -0.5350  0.0428
   79MOL   C19633112   0.520   0.376   2.404  0.0148  0.5309  0.8223
   79MOL   C19733113   0.658   0.315   2.442  0.7154  0.3455  0.3851
   79MOL   C19833114   0.658   0.160   2.440 -0.7245 -0.3829 -0.2531
   79MOL   C19933115   0.780   0.105   2.487 -1.3544  0.6142 -0.2095
   79MOL   H20033116   0.604   0.861   2.624 -0.7402  0.2093 -1.6837
   79MOL   H20133117   0.528   0.715   2.675  0.8609  0.5411  1.4894
   79MOL   H20233118   0.586   0.820   2.393  0.0960  0.3143  0.1181
   79MOL   H20333119   0.512   0.362   2.296  0.7573 -1.1658  0.9617
   79MOL   H20433120   0.441   0.316   2.449 -0.3323  0.0738 -0.3759
   79MOL   H20533121   0.731   0.361   2.374  0.6793  0.3291  0.3349
   79MOL   H20633122   0.680   0.358   2.539  2.2810  0.1238  0.1544
   79MOL   H20733123   0.628   0.110   2.348  0.2537 -2.2728  0.4279
   79MOL   H20833124   0.582   0.137   2.514 -3.3221  1.3324 -2.2888
   79MOL   H20933125   0.779   7.849   2.497 -0.1333  0.4407 -1.7209
   79MOL   H21033126   0.798   0.156   2.581  2.6992 -0.2055 -0.4331
   79MOL   H21133127   0.861   0.120   2.415 -0.0618  1.2685  1.3414
   79MOL   C21233128   0.390   0.779   2.435 -0.0077 -0.1503  0.3156
   79MOL   C21333129   0.346   0.927   2.462  0.4284 -0.0257  0.4625
   79MOL   C21433130   0.407   1.029   2.362 -0.2251 -0.0716 -0.6025
   79MOL   O21533131   0.421   1.004   2.243 -0.3860  0.5483 -0.0644
   79MOL   O21633132   0.435   1.152   2.437 -0.3074  0.0330 -0.3818
   79MOL   C21733133   0.504   1.256   2.376 -0.4111  0.2739 -0.0817
   79MOL   C21833134   0.660   1.228   2.363 -0.1989 -0.0591 -0.5123
   79MOL   C21933135   0.735   1.266   2.491  0.3561 -0.2682  0.2616
   79MOL   C22033136   0.884   1.223   2.496  0.3525 -0.6342  0.2086
   79MOL   H22133137   0.333   0.699   2.482  2.2573 -2.5351 -0.8987
   79MOL   H22233138   0.359   0.748   2.335  0.1611 -0.4800  0.3663
   79MOL   H22333139   0.384   0.937   2.564 -1.0457 -1.4182  1.1899
   79MOL   H22433140   0.467   1.346   2.425 -1.1728 -0.5993  0.9737
   79MOL   H22533141   0.470   1.256   2.272 -0.6512  1.4365 -0.0079
   79MOL   H22633142   0.677   1.122   2.346  0.4289 -0.1871  0.8398
   79MOL   H22733143   0.712   1.266   2.275  2.0891 -0.2115  0.7415
   79MOL   H22833144   0.686   1.217   2.576 -1.9401  0.1525 -0.7716
   79MOL   H22933145   0.742   1.372   2.513  2.1551 -0.2995 -0.1153
   79MOL   H23033146   0.945   1.264   2.417 -0.9779  0.9953  0.0038
   79MOL   H23133147   0.886   1.114   2.505 -1.1152 -0.5850  1.3579
   79MOL   H23233148   0.933   1.250   2.590 -3.7693  3.5958  1.3240
   79MOL   C23333149   0.190   0.920   2.485 -0.0480 -0.1312  0.2698
   79MOL   C23433150   0.134   1.030   2.575  0.0067 -0.1907 -0.8734
   79MOL   C23533151   0.090   1.161   2.509 -0.7524  0.5308  0.7534
   79MOL   O23633152   0.053   1.159   2.390 -0.2316  0.2467  0.3647
   79MOL   O23733153   0.092   1.270   2.588  0.3200 -0.0813 -0.0459
   79MOL   C23833154   0.050   1.390   2.534  0.2383 -0.0662  0.5238
   79MOL   C23933155   0.089   1.502   2.624 -0.8249 -0.6292 -0.3286
   79MOL   C24033156   0.235   1.539   2.635 -0.2475 -0.7974  0.3003
   79MOL   C24133157   0.322   1.432   2.695 -0.2194  0.2320  0.1157
   79MOL   H24233158   0.162   0.822   2.524  1.8323 -0.6111  0.4658
   79MOL   H24333159   0.151   0.932   2.384 -0.0858  0.1589  0.3175
   79MOL   H24433160   0.212   1.057   2.647 -0.8866 -1.6690  0.7017
   79MOL   H24533161   7.795   1.394   2.534  0.1663 -1.2090 -1.2691
   79MOL   H24633162   0.094   1.417   2.438  2.2671 -1.4760  1.0125
   79MOL   H24733163   0.044   1.591   2.579 -0.6413 -1.3150 -1.9072
   79MOL   H24833164   0.043   1.486   2.721 -0.9818 -0.5130 -0.3833
   79MOL   H24933165   0.233   1.628   2.698  0.1054  0.3063 -1.1987
   79MOL   H25033166   0.266   1.571   2.535  0.8313 -3.5398 -0.2911
   79MOL   H25133167   0.421   1.466   2.723  0.1405 -0.5898 -0.1318
   79MOL   H25233168   0.328   1.334   2.649 -1.0519 -0.3518  1.2272
   79MOL   H25333169   0.277   1.394   2.787 -0.3201 -1.3019 -0.5562
   79MOL   C25433170   0.015   0.969   2.659 -0.0687  0.5075 -0.2504
   79MOL   C25533171   0.024   0.949   2.810  0.0286  0.0820  0.3678
   79MOL   C25633172   0.118   0.827   2.841  0.3047 -0.2543 -0.7361
   79MOL   O25733173   0.207   0.833   2.928 -0.0065  0.6604  0.1452
   79MOL   O25833174   0.083   0.712   2.781 -0.8918 -0.3780 -0.4030
   79MOL   C25933175   0.150   0.592   2.815 -0.1860 -0.4351 -0.0658
   79MOL   C26033176   0.279   0.570   2.736  0.3950 -0.6760  0.2035
   79MOL   C26133177   0.339   0.432   2.764 -0.2670  0.4033 -0.0895
   79MOL   C26233178   0.264   0.314   2.706 -0.0845 -0.1222  0.2133
   79MOL   H26333179   7.835   0.872   2.621  0.6340 -0.3319  1.2131
   79MOL   H26433180   7.786   1.039   2.650 -0.3855  0.2932  0.8574
   79MOL   H26533181   7.781   0.901   2.828 -1.4518  2.0660 -1.9601
   79MOL   H26633182   0.083   0.508   2.794  1.7060 -1.5928 -1.6551
   79MOL   H26733183   0.184   0.586   2.918  0.8754  2.4160 -0.1993
   79MOL   H26833184   0.254   0.581   2.631  0.6191 -0.8780  0.1288
   79MOL   H26933185   0.340   0.657   2.761 -1.2184  0.4748  0.2259
   79MOL   H27033186   0.375   0.418   2.865 -2.0830 -0.0498  0.5198
   79MOL   H27133187   0.439   0.419   2.722  0.1012 -2.4401  1.5215
   79MOL   H27233188   0.323   0.228   2.675  1.4268  1.0800 -0.2454
   79MOL   H27333189   0.199   0.338   2.622  0.8759 -1.6561 -0.9904
   79MOL   H27433190   0.202   0.276   2.788  1.7458 -0.5385  1.4208
   79MOL   C27533191   0.043   1.072   2.909 -0.1923  0.6942 -0.3609
   79MOL   C27633192   7.794   1.080   3.019 -0.0030  0.2626  0.8627
   79MOL   C27733193   7.785   0.970   3.129  0.0867 -0.5488  0.1180
   79MOL   O27833194   7.677   0.912   3.152  0.3341  0.4274  0.0272
   79MOL   O27933195   0.034   0.961   3.213 -0.1610  0.6314  0.1532
   79MOL   C28033196   0.025   0.889   3.344  0.2432  0.5653  0.2215
   79MOL   C28133197   7.845   0.982   3.463 -0.3816  0.1591  0.6988
   79MOL   C28233198   0.115   1.066   3.515  0.1613  0.4733 -0.3585
   79MOL   C28333199   0.086   1.130   3.651 -0.3406  0.4615  0.3851
   79MOL   H28433200   0.029   1.156   2.842  0.3846  1.8110  0.9072
   79MOL   H28533201   0.143   1.086   2.948 -0.7870  0.6936  1.1919
   79MOL   H28633202   7.704   1.063   2.960  1.7045 -1.4345 -1.3493
   79MOL   H28733203   0.112   0.825   3.361 -0.6331 -0.5412  0.6036
   79MOL   H28833204   7.801   0.812   3.340  1.2196 -0.4505  0.5445
   79MOL   H28933205   7.761   1.050   3.445  1.8476  2.4012 -1.6886
   79MOL   H29033206   7.816   0.923   3.550 -2.4824 -1.6087 -1.1374
   79MOL   H29133207   0.141   1.141   3.441  0.1146  1.3818  0.5235
   79MOL   H29233208   0.196   0.994   3.522  2.8392  3.5188  1.6520
   79MOL   H29333209   0.063   1.059   3.730 -0.9191 -0.8838 -0.9805
   79MOL   H29433210   0.004   1.202   3.644 -1.2096 -0.6093 -0.4825
   79MOL   H29533211   0.169   1.189   3.691 -0.7459  1.4776 -0.2563
   79MOL   C29633212   7.778   1.224   3.076 -0.3629  0.7182  0.2851
   79MOL   C29733213   7.627   1.277   3.066 -0.2502 -0.7236 -0.1481
   79MOL   C29833214   7.575   1.323   2.929  0.9966  0.7163  0.0638
   79MOL   O29933215   7.570   1.443   2.894  0.1672 -0.1148  0.3281
   79MOL   O30033216   7.548   1.221   2.853 -0.4116 -0.1242  0.6490
   79MOL   C30133217   7.514   1.249   2.714 -0.1050 -0.1496  0.2993
   79MOL   C30233218   7.367   1.249   2.693 -0.9462 -0.3576 -0.0700
   79MOL   C30333219   7.298   1.110   2.726 -0.5573  0.4098 -0.0278
   79MOL   C30433220   7.146   1.119   2.720 -0.1073  0.2991  0.0299
   79MOL   H30533221   7.843   1.283   3.012 -0.4113  0.6392  0.1632
   79MOL   H30633222   7.815   1.216   3.179  0.3275 -1.7927 -0.1264
   79MOL   H30733223   7.631   1.371   3.120 -0.0311 -0.8238  0.0103
   79MOL   H30833224   7.559   1.167   2.657 -0.8611  0.1657 -0.7540
   79MOL   H30933225   7.566   1.338   2.679 -0.2460  0.0463  0.5856
   79MOL   H31033226   7.328   1.324   2.762  3.3761  1.4670  0.5794
   79MOL   H31133227   7.350   1.271   2.588  2.3629  1.1572 -0.3315
   79MOL   H31233228   7.323   1.072   2.825 -0.2621  4.2880  1.4774
   79MOL   H31333229   7.332   1.034   2.657  2.3470  0.6519  1.0763
   79MOL   H31433230   7.114   1.163   2.815  2.2900  2.0098  0.0995
   79MOL   H31533231   7.106   1.019   2.703 -1.8221  0.9304  0.2288
   79MOL   H31633232   7.118   1.184   2.637  2.5226  2.2457  0.5888
   79MOL   C31733233   7.525   1.215   3.162 -0.1486 -0.0833  0.0621
   79MOL   C31833234   7.385   1.279   3.157  0.2798  0.8352  0.4005
   79MOL   C31933235   7.274   1.181   3.196 -0.6509  0.4875  0.6505
   79MOL   O32033236   7.181   1.157   3.118 -0.5163 -0.0598  0.6569
   79MOL   O32133237   7.293   1.129   3.323 -0.5102 -0.1051  0.3017
   79MOL   C32233238   7.220   1.005   3.346 -0.0708 -0.3838  0.0166
   79MOL   C32333239   7.311   0.892   3.306  0.6215  0.4309  0.3440
   79MOL   C32433240   7.247   0.766   3.358  1.0121 -0.5592  0.1660
   79MOL   C32533241   7.282   0.639   3.269  0.3739 -0.5252  0.3365
   79MOL   H32633242   7.546   1.214   3.268  1.2782 -3.0295 -0.1901
   79MOL   H32733243   7.524   1.107   3.145  0.4647 -0.1208  0.2716
   79MOL   H32833244   7.367   1.308   3.053 -0.8390  1.9256  0.9025
   79MOL   H32933245   7.125   0.991   3.294 -0.6538 -1.0462  1.2136
   79MOL   H33033246   7.197   1.000   3.453 -0.2727 -0.6876 -0.0402
   79MOL   H33133247   7.305   0.889   3.198 -2.2634 -0.0436  0.4791
   79MOL   H33233248   7.414   0.909   3.337 -0.2315  4.1072  1.5215
   79MOL   H33333249   7.138   0.767   3.365  0.7749 -0.1426 -2.7702
   79MOL   H33433250   7.283   0.744   3.458  0.3398 -0.2615  0.4803
   79MOL   H33533251   7.242   0.660   3.170  1.6052  1.8431  0.3181
   79MOL   H33633252   7.232   0.547   3.298 -0.3277 -0.0653  0.6016
   79MOL   H33733253   7.390   0.631   3.260  0.8829  3.6634  1.5642
   79MOL   C33833254   7.375   1.411   3.239 -0.4766  0.7365  0.0441
   79MOL   C33933255   7.399   1.546   3.164  0.1693  0.5273 -0.3083
   79MOL   C34033256   7.270   1.592   3.097  0.6553 -0.2390 -0.5904
   79MOL   O34133257   7.178   1.635   3.170  0.3862  0.4096 -0.6928
   79MOL   O34233258   7.264   1.558   2.965  0.1330 -0.1243 -0.3253
   79MOL   C34333259   7.152   1.595   2.888  0.1934 -0.2264  0.2797
   79MOL   C34433260   7.064   1.475   2.866 -0.3398  0.6531  0.1581
   79MOL   C34533261   6.930   1.516   2.802 -0.8101 -0.0654 -0.1217
   79MOL   C34633262   6.842   1.394   2.765  0.4210 -0.0237  0.8123
   79MOL   H34733263   7.428   1.403   3.334 -0.2945 -0.6898 -0.1620
   79MOL   H34833264   7.276   1.411   3.286 -0.9727 -1.8326 -0.9232
   79MOL   H34933265   7.472   1.535   3.084 -0.8472 -0.1967 -1.1514
   79MOL   H35033266   7.183   1.633   2.791 -0.1082 -1.4391 -0.2996
   79MOL   H35133267   7.099   1.676   2.938 -0.6611 -0.7511  0.2390
   79MOL   H35233268   7.122   1.409   2.802 -0.5335  0.6725 -0.0391
   79MOL   H35333269   7.053   1.421   2.960  0.7099  2.5536  1.4298
   79MOL   H35433270   6.945   1.599   2.733 -0.5899 -0.9168 -1.1044
   79MOL   H35533271   6.882   1.574   2.881  2.3842 -0.9119  2.5490
   79MOL   H35633272   6.841   1.322   2.846 -1.1043  0.1768  0.9874
   79MOL   H35733273   6.894   1.337   2.687 -0.2139 -0.9805  1.0867
   79MOL   H35833274   6.740   1.420   2.737 -0.9088 -4.4352  1.2160
   79MOL   C35933275   7.443   1.647   3.272 -0.1779 -0.0605 -0.2852
   79MOL   C36033276   7.585   1.634   3.346 -0.0025  0.8019 -1.1261
   79MOL   C36133277   7.695   1.689   3.247 -0.3534  0.0663 -0.0711
   79MOL   O36233278   7.733   1.807   3.257  0.4193 -0.3266  0.7604
   79MOL   O36333279   7.732   1.605   3.150 -0.3950 -0.5875 -0.0295
   79MOL   C36433280   7.827   1.652   3.057 -0.4680  0.7108 -0.4678
   79MOL   C36533281   7.742   1.721   2.947 -0.4595 -0.2395  0.6791
   79MOL   C36633282   7.828   1.790   2.841 -0.7317  0.1631 -0.4847
   79MOL   C36733283   7.755   1.826   2.712 -0.7524 -0.2836  0.2002
   79MOL   H36833284   7.361   1.671   3.340 -1.8668 -0.6477 -2.0718
   79MOL   H36933285   7.455   1.740   3.216 -0.2403 -0.4408 -0.9376
   79MOL   H37033286   7.604   1.531   3.377 -1.2017 -0.1600 -3.4180
   79MOL   H37133287   0.032   1.566   3.024  0.0012  0.0340  2.0039
   79MOL   H37233288   0.040   1.723   3.106 -1.7249  0.8521  1.0370
   79MOL   H37333289   7.683   1.643   2.899 -0.0359 -0.8290  1.0899
   79MOL   H37433290   7.666   1.793   2.976 -1.6467 -0.6027 -1.4537
   79MOL   H37533291   0.062   1.730   2.817 -1.2124 -0.7555  0.0325
   79MOL   H37633292   0.010   1.880   2.890 -0.1000 -0.4900  0.2642
   79MOL   H37733293   7.733   1.747   2.639  3.1857  0.0196 -1.4132
   79MOL   H37833294   7.811   1.902   2.658 -2.1466  0.8039  0.2449
   79MOL   H37933295   7.663   1.881   2.734 -1.4626 -1.1169 -0.6102
   79MOL   C38033296   7.579   1.709   3.482  0.4129  0.1314 -0.0681
   79MOL   C38133297   7.479   1.649   3.586 -0.1692  0.0762  0.2349
   79MOL   C38233298   7.541   1.518   3.628  0.3537  0.1907  0.4864
   79MOL   O38333299   7.486   1.415   3.597 -0.2285  0.1975 -0.2879
   79MOL   O38433300   7.649   1.526   3.712  0.4531 -0.4077 -0.1585
   79MOL   C38533301   7.674   1.404   3.780  0.2347 -0.2145 -0.1214
   79MOL   C38633302   7.771   1.420   3.898  0.5018  0.1247  0.1290
   79MOL   C38733303   7.728   1.518   4.005 -0.3608  0.2038 -1.1626
   79MOL   C38833304   7.805   1.509   4.137  0.0557  0.1475 -0.7380
   79MOL   H38933305   7.558   1.814   3.461 -1.0303  0.1705  1.4044
   79MOL   H39033306   7.681   1.706   3.522 -0.2668 -1.1178  1.6429
   79MOL   H39133307   7.383   1.633   3.536  0.0438 -0.4666  0.0013
   79MOL   H39233308   7.712   1.328   3.711 -1.1377 -0.8147 -0.2283
   79MOL   H39333309   7.576   1.364   3.807 -0.5850 -0.8840 -3.8724
   79MOL   H39433310   7.781   1.324   3.948  0.1330  1.2553  2.4667
   79MOL   H39533311   0.010   1.461   3.857  0.7960 -2.0789 -1.5374
   79MOL   H39633312   7.620   1.531   4.014 -0.2528  0.9083 -0.8830
   79MOL   H39733313   7.750   1.617   3.966  0.1304  0.5952  0.1043
   79MOL   H39833314   7.760   1.552   4.227  1.3930 -0.4940  0.2623
   79MOL   H39933315   0.050   1.556   4.147 -0.4221  0.9193  0.5768
   79MOL   H40033316   7.829   1.404   4.154  1.6497  0.1520 -2.7975
   79MOL   C40133317   7.448   1.745   3.707  0.6122  0.2114  0.0507
   79MOL   C40233318   7.391   1.883   3.665 -0.3346  0.4925  0.4331
   79MOL   C40333319   7.245   1.874   3.624 -0.5764 -0.0781 -0.0860
   79MOL   O40433320   7.153   1.875   3.708 -0.1581 -0.6098  0.2838
   79MOL   O40533321   7.239   1.860   3.490 -0.1122 -0.1933 -0.4655
   79MOL   C40633322   7.115   1.860   3.426  0.2578  0.2097 -0.5576
   79MOL   C40733323   7.127   1.953   3.296  0.7966  0.7045 -0.7068
   79MOL   C40833324   6.995   1.956   3.211 -0.5478  0.0667 -0.0497
   79MOL   C40933325   6.999   2.064   3.103  0.5310  0.1657 -0.3092
   79MOL   H41033326   7.535   1.765   3.770  0.9131  2.4134 -1.0437
   79MOL   H41133327   7.381   1.688   3.772  1.7200 -1.1733  0.0200
   79MOL   H41233328   7.449   1.933   3.587 -1.4818  1.4998  0.2085
   79MOL   H41333329   7.036   1.902   3.488 -0.0497  0.0905 -0.8691
   79MOL   H41433330   7.092   1.756   3.405 -1.6118  0.6527 -0.7671
   79MOL   H41533331   7.157   2.055   3.321  1.5207 -0.4544  3.4321
   79MOL   H41633332   7.206   1.917   3.229  0.7233  1.6176 -1.2988
   79MOL   H41733333   6.910   1.967   3.279 -0.8267  0.3948 -0.4475
   79MOL   H41833334   7.002   1.860   3.160  0.6957 -0.1373  0.4912
   79MOL   H41933335   7.084   2.052   3.034 -0.3599 -0.3294 -1.3429
   79MOL   H42033336   7.006   2.167   3.137  0.5669  0.5385 -1.4144
   79MOL   H42133337   6.906   2.047   3.049  0.0748  1.3391  0.0963
   79MOL   H42233338   7.389   1.945   3.755  3.3580  1.3462  0.0086
   80MOL     C133339   4.333   5.308   7.584  0.1742  0.6325 -0.0766
   80MOL     C233340   4.432   5.211   7.521  0.3516  0.3472  0.4383
   80MOL     C333341   4.418   5.075   7.587  0.7480  0.5636  0.0985
   80MOL     O433342   4.509   4.996   7.574 -0.5269  0.3019  0.6239
   80MOL     O533343   4.297   5.049   7.641 -0.3765 -0.2175 -0.8035
   80MOL     C633344   4.250   4.918   7.658 -0.0836  0.4249 -0.2580
   80MOL     C733345   4.170   4.877   7.534 -0.4390  0.5513  0.2554
   80MOL     C833346   4.049   4.965   7.516 -0.3373  0.1529 -0.0278
   80MOL     C933347   3.981   4.934   7.381 -0.3895  0.4309 -0.4840
   80MOL    H1033348   4.231   5.305   7.544  1.0132  0.9209 -2.3129
   80MOL    H1133349   4.321   5.305   7.692 -0.6207  0.5875 -0.1608
   80MOL    H1233350   4.533   5.241   7.549  0.3682 -0.5132  1.3387
   80MOL    H1333351   4.189   4.911   7.748 -2.3072 -0.6769 -1.7983
   80MOL    H1433352   4.328   4.842   7.663  0.5062  1.0677  0.5724
   80MOL    H1533353   4.225   4.866   7.440  0.5990  1.9237  0.7002
   80MOL    H1633354   4.123   4.781   7.557 -0.4959  0.3861 -0.5233
   80MOL    H1733355   4.075   5.071   7.524 -2.8334  0.6922  1.3958
   80MOL    H1833356   3.964   4.952   7.583 -2.4110  2.4294 -2.0968
   80MOL    H1933357   4.057   4.938   7.303 -0.0792 -4.1079 -0.5114
   80MOL    H2033358   3.919   5.022   7.367  0.3124  0.8963 -0.7186
   80MOL    H2133359   3.921   4.843   7.380  0.6889 -0.2893 -1.4564
   80MOL    H2233360   4.373   5.407   7.562  1.7950  0.1279  0.5461
   80MOL    C2333361   4.420   5.196   7.365  0.0477  0.3190  0.2704
   80MOL    C2433362   4.478   5.324   7.287 -1.0323  0.2726  0.0145
   80MOL    C2533363   4.615   5.372   7.336 -0.0067  0.2057  0.1238
   80MOL    O2633364   4.638   5.481   7.394  0.2234  0.3492  0.5532
   80MOL    O2733365   4.712   5.276   7.321 -0.3124 -0.3096  0.4057
   80MOL    C2833366   4.844   5.297   7.367 -0.3373 -0.2835  0.0092
   80MOL    C2933367   4.852   5.265   7.515  0.4688 -0.2592 -0.4373
   80MOL    C3033368   4.832   5.119   7.545  0.9913  0.5627 -0.3895
   80MOL    C3133369   4.948   5.022   7.510 -0.0957  0.2972 -0.3626
   80MOL    H3233370   4.315   5.190   7.338  0.3984  2.5881 -1.9010
   80MOL    H3333371   4.472   5.107   7.329  2.5550  1.4781  0.8824
   80MOL    H3433372   4.407   5.404   7.302 -0.9775  0.2468  0.4289
   80MOL    H3533373   4.866   5.401   7.342  2.2536 -0.5347  1.1356
   80MOL    H3633374   4.921   5.242   7.314  0.4543  0.3043  0.5465
   80MOL    H3733375   4.948   5.300   7.553  0.1948 -0.2137  0.2146
   80MOL    H3833376   4.770   5.310   7.571  0.9832 -0.9542  0.8918
   80MOL    H3933377   4.740   5.089   7.494  0.0163  1.5341  0.7621
   80MOL    H4033378   4.817   5.099   7.651  1.0089 -1.6791 -0.7898
   80MOL    H4133379   5.040   5.055   7.557 -0.3253 -0.4682  0.6328
   80MOL    H4233380   4.957   5.015   7.401  0.5512 -1.7655 -0.2000
   80MOL    H4333381   4.919   4.923   7.544  1.1341  0.2280  0.4910
   80MOL    C4433382   4.496   5.293   7.136  0.6464  0.3430  0.1991
   80MOL    C4533383   4.371   5.240   7.055 -0.7362  0.3352 -0.2584
   80MOL    C4633384   4.239   5.313   7.079  0.1999  0.2551  0.1993
   80MOL    O4733385   4.226   5.427   7.036  0.4995 -0.3089  0.4985
   80MOL    O4833386   4.148   5.234   7.148 -0.2046  0.1906  0.4199
   80MOL    C4933387   4.018   5.277   7.178 -0.0533  0.2950 -1.1592
   80MOL    C5033388   4.014   5.333   7.323 -0.3495  0.1517 -0.0943
   80MOL    C5133389   3.872   5.371   7.368 -0.5695  1.0433  0.6618
   80MOL    C5233390   3.892   5.432   7.507 -0.3281  0.4313 -0.7176
   80MOL    H5333391   4.577   5.221   7.123  1.9009  2.1656 -2.4906
   80MOL    H5433392   4.534   5.379   7.081  1.1057  0.2445  0.3621
   80MOL    H5533393   4.357   5.141   7.100 -0.8999 -0.2848 -1.6661
   80MOL    H5633394   3.948   5.197   7.153 -1.8409  1.2801  0.4748
   80MOL    H5733395   3.996   5.361   7.111  0.2234  1.3654  0.0625
   80MOL    H5833396   4.067   5.264   7.389  1.0754 -0.4487 -1.8302
   80MOL    H5933397   4.074   5.424   7.318 -0.5381  0.2549 -0.4904
   80MOL    H6033398   3.802   5.288   7.378  1.6409 -0.9449  0.0294
   80MOL    H6133399   3.828   5.446   7.302 -1.7196 -0.0183  0.1887
   80MOL    H6233400   3.797   5.478   7.533  0.1668  1.0597  0.0129
   80MOL    H6333401   3.968   5.509   7.499 -1.0022  1.0304 -1.4487
   80MOL    H6433402   3.917   5.352   7.577  0.2052  0.2632 -1.0920
   80MOL    C6533403   4.386   5.214   6.895  0.0522  1.3042 -1.0659
   80MOL    C6633404   4.399   5.069   6.837  0.4527 -0.7043  0.4113
   80MOL    C6733405   4.261   5.003   6.841 -0.3110 -0.1520  0.2381
   80MOL    O6833406   4.244   4.897   6.903  0.2234  0.4599  0.8397
   80MOL    O6933407   4.175   5.048   6.750  0.0467  0.2272 -0.3460
   80MOL    C7033408   4.052   4.995   6.752 -0.2054  0.2312  0.5063
   80MOL    C7133409   3.967   5.045   6.637 -0.0536 -0.7750 -0.2637
   80MOL    C7233410   3.832   5.001   6.657  0.0051  0.3914 -0.2805
   80MOL    C7333411   3.808   4.853   6.612 -0.5560  0.0232 -0.1729
   80MOL    H7433412   4.476   5.268   6.867  1.0569 -0.6088 -1.5735
   80MOL    H7533413   4.307   5.268   6.841 -0.3705  0.3957 -1.3694
   80MOL    H7633414   4.472   5.014   6.896  3.0224  1.2668 -0.8339
   80MOL    H7733415   4.010   5.029   6.847  0.9749  0.0965  1.0910
   80MOL    H7833416   4.066   4.887   6.753  2.8307  0.5231 -1.3620
   80MOL    H7933417   3.970   5.153   6.624  0.6824 -0.9574 -1.7226
   80MOL    H8033418   4.015   5.020   6.542 -0.2498 -2.1387 -0.0143
   80MOL    H8133419   3.766   5.064   6.596  0.4169  1.4609  0.3726
   80MOL    H8233420   3.800   5.024   6.759  0.0952  0.4927 -0.2762
   80MOL    H8333421   3.852   4.821   6.518 -0.0319  0.4836 -0.0863
   80MOL    H8433422   3.700   4.842   6.615 -0.8895  1.8185 -3.1725
   80MOL    H8533423   3.858   4.794   6.688  2.8084  2.1711 -0.6085
   80MOL    C8633424   4.444   5.082   6.696  0.7012  0.3681  0.9256
   80MOL    C8733425   4.471   4.950   6.621 -0.1725 -0.0907  0.0515
   80MOL    C8833426   4.435   4.961   6.477 -0.4972 -0.3528  0.1448
   80MOL    O8933427   4.361   4.889   6.415  0.8949  0.0243  0.1455
   80MOL    O9033428   4.509   5.057   6.416 -0.1159 -0.1140  0.0907
   80MOL    C9133429   4.476   5.117   6.295 -0.2601  0.0921  0.0710
   80MOL    C9233430   4.565   5.232   6.259  0.5128  0.3999  0.5793
   80MOL    C9333431   4.567   5.352   6.354  0.5350 -0.3331 -0.5522
   80MOL    C9433432   4.657   5.468   6.317 -0.7257  0.0225 -0.4047
   80MOL    H9533433   4.539   5.135   6.685  0.3228  0.5017 -2.3972
   80MOL    H9633434   4.377   5.144   6.636  0.3625 -0.5227  0.3759
   80MOL    H9733435   4.401   4.878   6.662 -0.0194 -0.3267 -0.1039
   80MOL    H9833436   4.372   5.147   6.296  0.1217  1.4978 -0.6079
   80MOL    H9933437   4.478   5.035   6.223 -0.3318  1.3723 -1.4153
   80MOL   H10033438   4.671   5.206   6.257  0.4727  0.1510  1.5867
   80MOL   H10133439   4.539   5.258   6.156 -1.8661 -2.0714  0.5094
   80MOL   H10233440   4.580   5.328   6.460 -1.4173  2.0065  0.2689
   80MOL   H10333441   4.466   5.393   6.344  0.6781 -0.1580 -1.3111
   80MOL   H10433442   4.636   5.555   6.379  1.7028 -0.4116  1.0729
   80MOL   H10533443   4.644   5.492   6.211  1.5343 -0.3163 -0.7671
   80MOL   H10633444   4.761   5.447   6.339  0.0794  1.1455 -2.9205
   80MOL   C10733445   4.612   4.882   6.639  0.3798 -0.3491 -0.1347
   80MOL   C10833446   4.638   4.795   6.766 -0.0876  0.1542  0.5002
   80MOL   C10933447   4.540   4.680   6.769  0.5508  0.3758  0.7024
   80MOL   O11033448   4.509   4.638   6.877 -0.2754  0.1068  0.1336
   80MOL   O11133449   4.490   4.637   6.651  0.0781  0.2263 -0.0421
   80MOL   C11233450   4.379   4.540   6.638 -0.1335  0.0414 -0.2475
   80MOL   C11333451   4.238   4.589   6.673  0.2233  0.1778  0.0910
   80MOL   C11433452   4.180   4.647   6.542  0.1445 -0.0217  0.5136
   80MOL   C11533453   4.041   4.599   6.509  0.4345 -0.5930 -0.0387
   80MOL   H11633454   4.684   4.963   6.640 -1.8811  1.6980 -0.4014
   80MOL   H11733455   4.625   4.824   6.547  0.8318 -2.6096  1.2957
   80MOL   H11833456   4.619   4.858   6.853  0.1854  1.6861 -0.5135
   80MOL   H11933457   4.408   4.453   6.697 -0.2612  1.7242  2.3522
   80MOL   H12033458   4.380   4.494   6.539  0.8002 -2.5857  0.9300
   80MOL   H12133459   4.171   4.513   6.714  0.6777  0.6217  1.7287
   80MOL   H12233460   4.249   4.668   6.748 -0.0226  0.1785  0.1257
   80MOL   H12333461   4.241   4.623   6.456  0.9412  1.4509  0.6535
   80MOL   H12433462   4.174   4.756   6.543 -0.4048  0.0180 -2.5126
   80MOL   H12533463   3.997   4.663   6.432  2.1569  0.1217 -0.4558
   80MOL   H12633464   3.973   4.600   6.594  2.2960 -0.9043  1.5022
   80MOL   H12733465   4.042   4.497   6.470 -0.1045 -0.1921 -1.1280
   80MOL   C12833466   4.780   4.737   6.771  0.1570 -0.0043  0.2298
   80MOL   C12933467   4.884   4.843   6.819  0.3305 -0.1147 -0.4659
   80MOL   C13033468   4.839   4.952   6.922 -1.0897  0.2123  1.0513
   80MOL   O13133469   4.860   5.071   6.901  0.4596 -0.3485  0.2357
   80MOL   O13233470   4.778   4.891   7.023  0.1782  0.2742 -0.3993
   80MOL   C13333471   4.724   4.960   7.134  0.4189  0.4713  0.1151
   80MOL   C13433472   4.657   4.861   7.231 -0.0290  0.4714  0.1151
   80MOL   C13533473   4.530   4.789   7.177  0.0245 -0.2819 -0.2390
   80MOL   C13633474   4.449   4.705   7.275 -0.0491  0.3361 -0.4620
   80MOL   H13733475   4.799   4.701   6.670  1.8011 -1.1783  0.9328
   80MOL   H13833476   4.777   4.651   6.838 -2.5835 -0.0878  0.0370
   80MOL   H13933477   4.908   4.905   6.732 -1.3264 -0.5817 -1.2603
   80MOL   H14033478   4.649   5.030   7.099  1.0573  1.1891  0.1617
   80MOL   H14133479   4.796   5.018   7.192 -0.9550  1.0325  1.2997
   80MOL   H14233480   4.740   4.792   7.244  1.5429  2.3681  0.5304
   80MOL   H14333481   4.633   4.900   7.330  3.2934  1.4426  0.5973
   80MOL   H14433482   4.555   4.746   7.081  1.0474 -1.1411  0.4005
   80MOL   H14533483   4.450   4.855   7.145 -0.4460 -0.3130  0.8572
   80MOL   H14633484   4.503   4.615   7.304  0.8165  1.1028  0.2829
   80MOL   H14733485   4.359   4.675   7.221  0.9382  0.8794 -2.4573
   80MOL   H14833486   4.417   4.764   7.361 -2.9404 -1.5749 -0.1552
   80MOL   C14933487   5.020   4.771   6.871  0.4182 -0.6100  0.0576
   80MOL   C15033488   5.149   4.815   6.794  0.1154  0.3362 -0.6606
   80MOL   C15133489   5.173   4.967   6.794 -0.3408 -0.1247  0.3297
   80MOL   O15233490   5.167   5.043   6.697  0.3013 -0.4012 -0.6213
   80MOL   O15333491   5.205   5.003   6.925 -0.0658 -0.0276  0.4802
   80MOL   C15433492   5.189   5.138   6.964 -0.1478 -0.2491 -0.3974
   80MOL   C15533493   5.309   5.183   7.049  0.5564 -0.0614 -0.9214
   80MOL   C15633494   5.435   5.186   6.965 -0.4273  0.2833  0.4208
   80MOL   C15733495   5.554   5.241   7.048  0.4481 -0.6584  0.2087
   80MOL   H15833496   5.005   4.664   6.860 -1.2161 -0.2655 -1.2394
   80MOL   H15933497   5.037   4.783   6.978  0.9228 -0.7394 -0.0073
   80MOL   H16033498   5.117   4.793   6.692 -2.3351  0.6313  0.0229
   80MOL   H16133499   5.088   5.153   7.003  0.7025 -0.4272  1.9534
   80MOL   H16233500   5.188   5.194   6.871 -2.9260 -0.2642 -0.4184
   80MOL   H16333501   5.297   5.288   7.073 -1.8506 -0.6845  0.7644
   80MOL   H16433502   5.302   5.129   7.143  0.1433  0.9265 -0.3800
   80MOL   H16533503   5.416   5.251   6.880 -0.7561  0.4696  0.6388
   80MOL   H16633504   5.457   5.086   6.928 -0.2494  0.8119 -0.9168
   80MOL   H16733505   5.632   5.243   6.972 -0.9477 -2.1756 -1.3267
   80MOL   H16833506   5.574   5.183   7.138  0.3055 -1.1494 -0.0740
   80MOL   H16933507   5.533   5.341   7.085 -0.8003 -0.5002 -0.8746
   80MOL   C17033508   5.271   4.745   6.853 -0.4625 -0.4952 -0.0022
   80MOL   C17133509   5.398   4.745   6.766 -0.6354  0.2018 -0.0915
   80MOL   C17233510   5.532   4.769   6.847  0.4690 -0.1745 -0.4033
   80MOL   O17333511   5.568   4.712   6.948  0.0451  0.2325 -0.0143
   80MOL   O17433512   5.612   4.856   6.781  0.5344  0.3099 -0.2034
   80MOL   C17533513   5.720   4.918   6.852  0.2320 -0.9149  0.4182
   80MOL   C17633514   5.805   5.016   6.771  0.0913 -0.5758 -0.5057
   80MOL   C17733515   5.892   4.951   6.658 -0.1554  0.0323 -0.5238
   80MOL   C17833516   5.990   5.043   6.581 -0.0721  0.4472  0.2749
   80MOL   H17933517   5.243   4.643   6.880  0.2698 -0.2765  1.6348
   80MOL   H18033518   5.294   4.784   6.952  2.1899 -0.4478 -0.6014
   80MOL   H18133519   5.398   4.834   6.703  2.6881  0.4482  0.1799
   80MOL   H18233520   5.783   4.840   6.895  1.2267  1.0076  2.5683
   80MOL   H18333521   5.673   4.964   6.940 -0.7933  0.0501 -0.6089
   80MOL   H18433522   5.741   5.089   6.721 -0.3611 -1.4630 -1.2438
   80MOL   H18533523   5.874   5.060   6.843 -0.8326 -0.8453  0.5556
   80MOL   H18633524   5.830   4.890   6.593  0.2785 -0.5426 -0.4031
   80MOL   H18733525   5.950   4.877   6.713 -1.3247 -1.2850 -1.0372
   80MOL   H18833526   6.024   5.134   6.630  0.0501  0.9610 -0.7315
   80MOL   H18933527   5.939   5.085   6.494  0.5383  2.6061  0.9089
   80MOL   H19033528   6.085   5.012   6.537 -0.6066  0.0474 -0.6133
   80MOL   C19133529   5.402   4.629   6.674  0.4499 -0.0178 -0.5143
   80MOL   C19233530   5.288   4.621   6.570  0.0171 -0.1919 -0.3163
   80MOL   C19333531   5.294   4.725   6.460 -0.2571 -0.2511 -0.4828
   80MOL   O19433532   5.190   4.777   6.420  0.4322 -0.3661  0.4221
   80MOL   O19533533   5.420   4.745   6.411 -0.3944  0.2886 -0.6548
   80MOL   C19633534   5.465   4.850   6.322  0.2281  0.0103  0.2991
   80MOL   C19733535   5.482   4.976   6.412  0.1238  0.1101 -0.6229
   80MOL   C19833536   5.555   5.095   6.342  0.6131  0.8281 -0.1307
   80MOL   C19933537   5.544   5.226   6.421 -0.0113  0.2754 -0.2186
   80MOL   H20033538   5.401   4.539   6.736  1.5775 -0.4305 -1.0854
   80MOL   H20133539   5.498   4.627   6.623  0.3116  3.4801 -1.0125
   80MOL   H20233540   5.193   4.625   6.622  0.5538 -0.8459  0.7111
   80MOL   H20333541   5.386   4.866   6.248 -1.6811 -1.3199  1.9818
   80MOL   H20433542   5.561   4.829   6.275  1.0379 -0.4557  2.1572
   80MOL   H20533543   5.380   5.005   6.438  1.1385  3.5103 -0.1836
   80MOL   H20633544   5.543   4.955   6.499 -1.4049 -3.0108 -0.2223
   80MOL   H20733545   5.492   5.097   6.252  1.0896 -0.4340 -0.4991
   80MOL   H20833546   5.653   5.080   6.298 -1.5785 -2.6143 -4.2936
   80MOL   H20933547   5.630   5.240   6.486 -1.8095 -1.9054  2.7740
   80MOL   H21033548   5.452   5.233   6.479 -0.6410  0.3130 -1.2067
   80MOL   H21133549   5.535   5.300   6.341  1.0721  0.2211 -0.3987
   80MOL   C21233550   5.287   4.488   6.486 -0.2259 -0.0248 -0.3536
   80MOL   C21333551   5.186   4.390   6.536 -0.3706 -0.0628  0.1805
   80MOL   C21433552   5.210   4.351   6.682 -0.1486  0.0933  0.0626
   80MOL   O21533553   5.313   4.289   6.709  0.2034  0.2147 -0.5273
   80MOL   O21633554   5.118   4.393   6.775  0.0883  0.3738 -0.1737
   80MOL   C21733555   5.133   4.337   6.907  0.6684 -0.1191  0.3165
   80MOL   C21833556   4.982   4.311   6.948  0.1106  0.1080  0.4932
   80MOL   C21933557   4.890   4.427   6.971 -0.3907 -0.6987 -0.6063
   80MOL   C22033558   4.744   4.381   7.004 -0.2858 -0.6006  0.2420
   80MOL   H22133559   5.388   4.449   6.491 -0.1195  0.3324  0.3553
   80MOL   H22233560   5.267   4.489   6.379 -2.0395 -0.9754 -0.0502
   80MOL   H22333561   5.216   4.301   6.480 -1.2917 -0.8832  0.9811
   80MOL   H22433562   5.181   4.410   6.972  0.4358 -0.3273  0.7267
   80MOL   H22533563   5.196   4.249   6.916  0.4308 -0.5961 -2.3111
   80MOL   H22633564   4.934   4.254   6.869  0.6423  1.6358 -0.9648
   80MOL   H22733565   4.984   4.253   7.040 -3.1144  2.0254  1.8800
   80MOL   H22833566   4.894   4.487   6.880 -1.7182  1.3499  0.6533
   80MOL   H22933567   4.916   4.492   7.055 -1.4402  0.2213 -0.9829
   80MOL   H23033568   4.742   4.321   7.095  1.9025 -0.2975  0.5231
   80MOL   H23133569   4.720   4.318   6.919 -0.1174  0.5272 -0.6522
   80MOL   H23233570   4.676   4.466   7.000 -0.2409 -0.5910 -0.2990
   80MOL   C23333571   5.040   4.435   6.500 -0.1800 -0.1676 -0.4101
   80MOL   C23433572   4.938   4.324   6.499  0.3820  0.0447  0.3666
   80MOL   C23533573   4.802   4.397   6.506  0.5440 -0.9433  0.1368
   80MOL   O23633574   4.728   4.385   6.607 -0.8071 -0.2427  0.0927
   80MOL   O23733575   4.774   4.457   6.393  0.3172  0.2479 -0.3706
   80MOL   C23833576   4.637   4.496   6.366  0.1158 -0.3109  0.6895
   80MOL   C23933577   4.637   4.649   6.339 -0.0134 -0.2138  0.5179
   80MOL   C24033578   4.709   4.677   6.204  0.3236 -0.8147  0.5501
   80MOL   C24133579   4.679   4.821   6.166  0.6414 -0.2387 -0.2443
   80MOL   H24233580   5.050   4.500   6.413  0.0657  0.9801  0.4638
   80MOL   H24333581   5.016   4.519   6.564 -0.0159 -0.0311 -0.5282
   80MOL   H24433582   4.945   4.269   6.592  2.8097  2.5742  1.7181
   80MOL   H24533583   4.562   4.467   6.439  0.0308 -1.1738  0.2619
   80MOL   H24633584   4.613   4.437   6.278  1.2562  0.4516 -0.1485
   80MOL   H24733585   4.533   4.679   6.353 -0.1191  0.1197 -0.9271
   80MOL   H24833586   4.700   4.693   6.416 -1.7184 -0.2936  2.0005
   80MOL   H24933587   4.677   4.610   6.124  0.8264 -1.3648  0.8120
   80MOL   H25033588   4.815   4.652   6.201 -0.1082 -2.6440 -0.0782
   80MOL   H25133589   4.726   4.855   6.074  2.0384 -2.8557 -0.5456
   80MOL   H25233590   4.708   4.880   6.253 -0.3815 -0.6339  0.3762
   80MOL   H25333591   4.573   4.844   6.155  0.2077 -1.0564  2.0281
   80MOL   C25433592   4.952   4.223   6.378 -1.0000 -0.4909  0.6088
   80MOL   C25533593   4.929   4.262   6.229 -0.5116 -1.0835  0.2017
   80MOL   C25633594   5.031   4.357   6.161  0.1488 -0.4358  0.0355
   80MOL   O25733595   4.996   4.463   6.110 -0.6834  0.3713  0.3229
   80MOL   O25833596   5.157   4.310   6.177  0.1909 -0.6330  0.2586
   80MOL   C25933597   5.258   4.376   6.108  0.6830 -0.1966  0.0450
   80MOL   C26033598   5.391   4.326   6.162  0.8792 -0.1798  0.4412
   80MOL   C26133599   5.502   4.423   6.118  0.6210 -0.9221 -0.6574
   80MOL   C26233600   5.503   4.549   6.191 -0.2273 -0.7536 -0.4795
   80MOL   H26333601   4.873   4.150   6.396  2.6691 -4.9967 -0.5647
   80MOL   H26433602   5.038   4.159   6.398 -1.6023 -2.0692 -1.6620
   80MOL   H26533603   4.833   4.312   6.211 -1.0719 -1.8729  0.9904
   80MOL   H26633604   5.241   4.483   6.104  0.8689 -0.1266  1.1616
   80MOL   H26733605   5.248   4.339   6.006 -0.1008 -1.4035  0.5396
   80MOL   H26833606   5.388   4.317   6.271 -2.0611 -0.3290  0.3749
   80MOL   H26933607   5.408   4.224   6.128 -0.6750 -0.5125  0.6285
   80MOL   H27033608   5.489   4.445   6.012 -0.5508 -0.0152 -0.3307
   80MOL   H27133609   5.600   4.377   6.130 -0.2112 -2.3328  1.0353
   80MOL   H27233610   5.566   4.628   6.150 -3.5071  1.1650 -2.0733
   80MOL   H27333611   5.521   4.528   6.297 -1.9289 -2.0031 -0.4297
   80MOL   H27433612   5.407   4.600   6.182 -0.5954 -1.2257  0.6590
   80MOL   C27533613   4.921   4.140   6.132 -0.7908  0.5641  0.7407
   80MOL   C27633614   4.865   4.171   5.989  1.1126  0.3588 -1.1742
   80MOL   C27733615   4.903   4.059   5.897 -0.0460  0.4531  0.1207
   80MOL   O27833616   4.932   3.948   5.939 -0.0806  0.1973 -0.3083
   80MOL   O27933617   4.909   4.092   5.764  0.1901  1.0682  0.0498
   80MOL   C28033618   4.946   3.988   5.667  0.4486  0.7432 -0.4880
   80MOL   C28133619   4.866   4.005   5.535  0.0553  0.3145  0.5125
   80MOL   C28233620   4.921   3.905   5.433 -0.3414 -0.2821  0.6529
   80MOL   C28333621   4.844   3.913   5.301 -0.0129 -0.3630  0.2758
   80MOL   H28433622   4.874   4.055   6.180 -0.4726  0.1699  0.3638
   80MOL   H28533623   5.024   4.107   6.115 -0.8575  0.9768 -0.5366
   80MOL   H28633624   4.920   4.259   5.953  0.7449  1.2172  0.3134
   80MOL   H28733625   4.909   3.892   5.701 -2.8325  2.7157  1.7996
   80MOL   H28833626   5.053   3.996   5.647  1.1576 -1.0206  2.4371
   80MOL   H28933627   4.759   3.999   5.555  0.0643 -1.1667  0.2083
   80MOL   H29033628   4.877   4.103   5.489 -2.0363 -0.8229 -2.5888
   80MOL   H29133629   4.937   3.799   5.456 -0.4634 -0.3277  0.5286
   80MOL   H29233630   5.023   3.940   5.415 -1.0946  1.3759 -0.5434
   80MOL   H29333631   4.742   3.892   5.330 -0.0182 -0.9895 -0.1839
   80MOL   H29433632   4.886   3.837   5.234 -1.0257 -1.1538  0.5286
   80MOL   H29533633   4.846   4.015   5.262  1.1771 -0.0873  1.0389
   80MOL   C29633634   4.710   4.189   5.989  0.0273 -0.0188 -0.5581
   80MOL   C29733635   4.639   4.229   5.856  0.3128  0.0024  0.5405
   80MOL   C29833636   4.485   4.236   5.880  0.0694 -0.3485  0.2334
   80MOL   O29933637   4.406   4.162   5.820 -0.6398  0.6082 -0.0232
   80MOL   O30033638   4.449   4.330   5.968  0.6230 -0.6665  0.0825
   80MOL   C30133639   4.312   4.346   6.006  0.2520 -0.3543 -0.9451
   80MOL   C30233640   4.292   4.497   6.044 -0.5376 -0.3637 -0.1466
   80MOL   C30333641   4.155   4.529   6.117  0.0258 -0.4511 -0.0569
   80MOL   C30433642   4.113   4.673   6.131 -0.1143 -0.2134 -0.2671
   80MOL   H30533643   4.686   4.258   6.069 -0.5077 -2.5366  1.5158
   80MOL   H30633644   4.666   4.092   6.012  1.7263 -1.0396 -1.4853
   80MOL   H30733645   4.658   4.145   5.789 -0.7597 -0.3078  0.6173
   80MOL   H30833646   4.294   4.274   6.086  1.7415 -0.9456 -1.1351
   80MOL   H30933647   4.239   4.326   5.927 -0.3670  1.0187 -0.7342
   80MOL   H31033648   4.368   4.536   6.112 -0.8965  1.7408 -0.9076
   80MOL   H31133649   4.299   4.561   5.956 -1.5052  0.7944  0.5883
   80MOL   H31233650   4.157   4.480   6.214 -2.6768  0.2384  0.3935
   80MOL   H31333651   4.070   4.485   6.066  0.0218 -0.2854 -0.1935
   80MOL   H31433652   4.197   4.723   6.179 -1.0713 -0.9266  2.1948
   80MOL   H31533653   4.028   4.686   6.197  1.2148 -0.1580  1.4919
   80MOL   H31633654   4.097   4.716   6.032 -2.5813  2.2737  1.1388
   80MOL   C31733655   4.691   4.365   5.799  0.4267 -0.5144  0.1276
   80MOL   C31833656   4.747   4.365   5.650  0.5130 -0.3180 -0.1006
   80MOL   C31933657   4.634   4.320   5.551 -0.1915  0.0801 -0.7184
   80MOL   O32033658   4.646   4.222   5.478  0.4711  0.2050  0.3012
   80MOL   O32133659   4.523   4.404   5.554 -0.1646  0.1873  0.7329
   80MOL   C32233660   4.409   4.352   5.487 -0.1310 -0.4364 -0.6417
   80MOL   C32333661   4.294   4.454   5.503  0.8051 -0.5422  0.4171
   80MOL   C32433662   4.255   4.481   5.655  0.1191 -0.0754  0.4751
   80MOL   C32533663   4.164   4.604   5.664  0.4320 -0.4402  0.4465
   80MOL   H32633664   4.765   4.396   5.873 -0.6428 -0.9104  1.3754
   80MOL   H32733665   4.612   4.439   5.807  0.6321 -0.5571  3.0561
   80MOL   H32833666   4.817   4.284   5.635 -1.1461 -2.2048  2.0179
   80MOL   H32933667   4.379   4.253   5.522  1.0526 -0.9709 -1.0969
   80MOL   H33033668   4.434   4.334   5.382 -0.2266 -1.6414 -0.4710
   80MOL   H33133669   4.332   4.549   5.465 -0.5669  0.7907  2.3120
   80MOL   H33233670   4.207   4.426   5.444  1.1499 -2.5844  0.8472
   80MOL   H33333671   4.344   4.491   5.717  0.1088 -0.3050  0.5302
   80MOL   H33433672   4.206   4.390   5.690  1.3918 -1.2753 -0.7634
   80MOL   H33533673   4.224   4.693   5.647  0.4157 -0.4076  0.5658
   80MOL   H33633674   4.126   4.611   5.766 -2.8172  2.0124 -0.8127
   80MOL   H33733675   4.084   4.616   5.590  0.7090 -0.8451  0.0744
   80MOL   C33833676   4.804   4.504   5.602  0.1496  0.4136  0.3062
   80MOL   C33933677   4.959   4.498   5.576 -0.3575 -0.9172  0.1221
   80MOL   C34033678   5.044   4.523   5.696  0.1189 -0.4978  0.1215
   80MOL   O34133679   5.142   4.455   5.724 -0.2307  0.0272  0.0625
   80MOL   O34233680   5.008   4.640   5.760  1.1533  0.4377  0.0026
   80MOL   C34333681   5.095   4.687   5.858 -0.1060 -0.2838  0.2737
   80MOL   C34433682   5.023   4.792   5.944 -0.4245 -0.5789 -0.4580
   80MOL   C34533683   5.112   4.863   6.053  0.6130 -0.2780 -0.2760
   80MOL   C34633684   5.057   4.982   6.123 -0.6086  0.5113 -0.2740
   80MOL   H34733685   4.768   4.591   5.656 -0.8946  1.3531 -1.8419
   80MOL   H34833686   4.767   4.520   5.501 -0.9897  0.9201  0.8037
   80MOL   H34933687   4.968   4.592   5.522 -1.3137 -0.0855  1.3511
   80MOL   H35033688   5.194   4.706   5.816  0.2009  1.9831  1.9467
   80MOL   H35133689   5.117   4.592   5.906 -1.4842 -0.2526  0.9926
   80MOL   H35233690   4.972   4.869   5.885  1.5650  0.9786 -0.2042
   80MOL   H35333691   4.937   4.743   5.990 -0.6854 -1.4029 -1.8243
   80MOL   H35433692   5.208   4.880   6.005  2.0350 -2.0839  1.8232
   80MOL   H35533693   5.134   4.792   6.132  0.3659 -0.7849 -0.6575
   80MOL   H35633694   5.141   5.034   6.170 -0.8205 -0.6516  1.4306
   80MOL   H35733695   4.972   4.964   6.189 -0.0045  1.5094  0.8074
   80MOL   H35833696   5.014   5.050   6.050 -0.6842  0.6066 -0.1420
   80MOL   C35933697   5.007   4.390   5.484  1.0116 -0.3008  0.0936
   80MOL   C36033698   5.134   4.417   5.388  0.2049 -0.4452  0.0766
   80MOL   C36133699   5.264   4.466   5.456 -0.3595 -0.1215  0.3028
   80MOL   O36233700   5.303   4.581   5.455 -0.3028  0.5274  1.0283
   80MOL   O36333701   5.324   4.371   5.523  0.5545  0.0420 -0.1397
   80MOL   C36433702   5.446   4.400   5.594  0.3682 -0.6266  0.3538
   80MOL   C36533703   5.513   4.263   5.617 -0.4597  0.1474  0.8088
   80MOL   C36633704   5.448   4.170   5.721  0.1542 -0.2959 -0.0843
   80MOL   C36733705   5.514   4.037   5.744  0.1087  0.4193 -0.0725
   80MOL   H36833706   4.920   4.357   5.428  0.9107 -0.5194  0.3781
   80MOL   H36933707   5.031   4.307   5.550  0.6392  0.8078  1.6566
   80MOL   H37033708   5.100   4.497   5.322  0.7772 -0.9220 -0.8079
   80MOL   H37133709   5.415   4.443   5.689  2.3019  2.6561 -0.4295
   80MOL   H37233710   5.521   4.461   5.543 -1.5735 -0.9827 -3.1134
   80MOL   H37333711   5.533   4.210   5.523 -0.1044 -0.5277  1.2621
   80MOL   H37433712   5.610   4.303   5.647  1.1222 -1.7401 -1.6033
   80MOL   H37533713   5.345   4.161   5.686  0.1029 -1.0165  0.2293
   80MOL   H37633714   5.439   4.217   5.819 -0.6649  0.6915 -0.6316
   80MOL   H37733715   5.452   3.979   5.812  2.1960 -1.7457  0.0592
   80MOL   H37833716   5.615   4.050   5.783  0.0008 -0.1416  0.4057
   80MOL   H37933717   5.523   3.984   5.650 -0.2853 -0.2797  0.2826
   80MOL   C38033718   5.160   4.301   5.288 -0.0048 -0.0393 -0.2933
   80MOL   C38133719   5.093   4.326   5.143  0.0522 -0.3696 -0.4320
   80MOL   C38233720   4.937   4.330   5.140  0.1075  0.4168  0.5135
   80MOL   O38333721   4.870   4.235   5.174 -0.0129  0.1924  0.3574
   80MOL   O38433722   4.878   4.439   5.097 -0.0840 -0.3587  0.3199
   80MOL   C38533723   4.743   4.465   5.129  0.0588 -0.3547  0.7434
   80MOL   C38633724   4.727   4.601   5.204 -0.0475  0.0644 -0.2640
   80MOL   C38733725   4.580   4.633   5.213  0.3165  0.0433  0.3020
   80MOL   C38833726   4.554   4.746   5.319  0.1240 -0.4183  0.2279
   80MOL   H38933727   5.123   4.210   5.335  2.0264  0.4124  2.2615
   80MOL   H39033728   5.266   4.278   5.282 -0.0181 -0.4801  1.1080
   80MOL   H39133729   5.116   4.235   5.088 -0.6213 -0.0339 -1.2807
   80MOL   H39233730   4.692   4.379   5.173  0.2272 -0.2036  1.2270
   80MOL   H39333731   4.688   4.473   5.035  0.4480  0.4454  0.5802
   80MOL   H39433732   4.774   4.589   5.301  2.3208 -1.1109 -1.5284
   80MOL   H39533733   4.786   4.682   5.162  0.7399  0.0940  0.8838
   80MOL   H39633734   4.530   4.539   5.235  0.0217  0.2757  0.6269
   80MOL   H39733735   4.539   4.664   5.117  1.2601  1.1298  0.2380
   80MOL   H39833736   4.446   4.760   5.326 -0.0218  0.1834 -2.5629
   80MOL   H39933737   4.596   4.832   5.267 -0.7916 -0.5968 -0.8479
   80MOL   H40033738   4.597   4.732   5.418  1.7220 -0.6321 -0.4856
   80MOL   C40133739   5.156   4.445   5.064 -0.8817 -0.1806 -0.9530
   80MOL   C40233740   5.303   4.421   5.027  0.2162 -0.2806  0.5798
   80MOL   C40333741   5.321   4.332   4.908 -0.3465  1.1196 -0.1743
   80MOL   O40433742   5.284   4.372   4.798  0.5740 -0.0576 -0.5580
   80MOL   O40533743   5.392   4.229   4.934 -0.3498 -0.4911  0.0898
   80MOL   C40633744   5.411   4.136   4.828 -0.0151  0.3620 -0.7758
   80MOL   C40733745   5.497   4.012   4.864 -0.5155  0.0487  0.4626
   80MOL   C40833746   5.530   3.919   4.751 -1.2123 -0.2925 -0.0748
   80MOL   C40933747   5.612   3.792   4.804 -0.5138 -0.2737  0.6135
   80MOL   H41033748   5.156   4.528   5.134 -1.4053 -1.5619  0.7335
   80MOL   H41133749   5.088   4.466   4.981 -2.1489  0.5245  0.2382
   80MOL   H41233750   5.357   4.380   5.112  1.4293  0.5110  0.1933
   80MOL   H41333751   5.453   4.181   4.738  0.3472  0.1088 -0.7324
   80MOL   H41433752   5.309   4.105   4.804 -1.0560  1.7400  1.6877
   80MOL   H41533753   5.589   4.054   4.905  0.3400  0.0221 -1.3678
   80MOL   H41633754   5.460   3.956   4.950  1.2713 -0.2782  1.0516
   80MOL   H41733755   5.573   3.956   4.658 -1.3764  2.2184  0.8128
   80MOL   H41833756   5.441   3.873   4.709  0.0853 -1.7821 -1.2747
   80MOL   H41933757   5.600   3.709   4.734 -0.2487  0.5123 -0.3863
   80MOL   H42033758   5.574   3.767   4.903  0.3034 -2.3997  0.4329
   80MOL   H42133759   5.718   3.817   4.811 -0.5539  0.0612  0.0860
   80MOL   H42233760   5.343   4.519   5.003  3.2435 -1.2687  1.4191
   81MOL     C133761   1.909   2.612   6.184  0.2442 -0.7472  0.2839
   81MOL     C233762   1.803   2.611   6.291  0.1629 -0.1771 -0.1363
   81MOL     C333763   1.841   2.684   6.420 -0.2297  0.2414  0.1246
   81MOL     O433764   1.865   2.620   6.525  0.3824  0.4236  0.0621
   81MOL     O533765   1.844   2.816   6.403 -0.2205 -0.2073  0.6270
   81MOL     C633766   1.874   2.908   6.505  0.2392  0.2263 -0.1105
   81MOL     C733767   1.755   3.002   6.542 -0.2135  0.4337 -0.5572
   81MOL     C833768   1.637   2.919   6.596  0.1484 -0.5916 -0.3268
   81MOL     C933769   1.509   2.999   6.612  0.1345  0.1784  0.4547
   81MOL    H1033770   1.874   2.561   6.095 -0.8914 -0.1131  0.3571
   81MOL    H1133771   1.939   2.713   6.157 -1.1101  0.1925  2.1419
   81MOL    H1233772   1.812   2.506   6.317 -1.0487 -0.1581  0.3786
   81MOL    H1333773   1.952   2.971   6.464 -0.5617  0.1449 -1.7937
   81MOL    H1433774   1.910   2.859   6.596 -1.2419 -3.2082 -1.2749
   81MOL    H1533775   1.779   3.073   6.621 -0.9324  0.0292  0.0234
   81MOL    H1633776   1.706   3.047   6.456 -2.1910 -1.6404 -0.5581
   81MOL    H1733777   1.667   2.860   6.683 -0.2566 -1.4675 -0.7777
   81MOL    H1833778   1.618   2.832   6.533 -4.1600  0.1851 -0.2684
   81MOL    H1933779   1.430   2.947   6.666 -0.9608  0.1875 -1.1074
   81MOL    H2033780   1.473   3.027   6.513  1.6538 -0.4664 -0.3078
   81MOL    H2133781   1.525   3.085   6.676 -2.7108  1.1135 -0.0243
   81MOL    H2233782   2.007   2.575   6.214  0.4116  0.3275  1.1034
   81MOL    C2333783   1.664   2.651   6.238  0.0761 -0.0206 -0.7443
   81MOL    C2433784   1.593   2.523   6.190 -0.2897 -0.4731 -0.2964
   81MOL    C2533785   1.558   2.426   6.301 -0.1977  0.8574  0.1305
   81MOL    O2633786   1.629   2.332   6.326  0.1811  0.0356  0.2029
   81MOL    O2733787   1.451   2.463   6.370 -0.4087  0.6616 -0.1446
   81MOL    C2833788   1.377   2.359   6.446  0.1709 -0.9225  0.0930
   81MOL    C2933789   1.420   2.357   6.588 -0.1118  0.4667 -0.1729
   81MOL    C3033790   1.397   2.488   6.662 -0.5037  0.0035  0.0698
   81MOL    C3133791   1.520   2.579   6.675 -0.1074  0.2650 -0.0708
   81MOL    H3233792   1.671   2.719   6.153  2.5945  0.9267  0.1614
   81MOL    H3333793   1.606   2.695   6.319  1.1060 -2.0479  1.1428
   81MOL    H3433794   1.662   2.460   6.132 -0.7431 -0.4830 -0.8343
   81MOL    H3533795   1.390   2.263   6.397 -2.7643 -0.4374 -1.7715
   81MOL    H3633796   1.269   2.370   6.435 -0.0339 -0.5846  2.1994
   81MOL    H3733797   1.358   2.275   6.623 -0.9890  0.6984 -1.1608
   81MOL    H3833798   1.523   2.322   6.596 -0.2220 -0.2940 -1.8296
   81MOL    H3933799   1.386   2.450   6.764 -0.2607 -0.3923 -0.0521
   81MOL    H4033800   1.299   2.529   6.637 -2.0218 -2.5739  1.5766
   81MOL    H4133801   1.605   2.529   6.721  0.3872 -0.9922 -2.2821
   81MOL    H4233802   1.503   2.659   6.747 -0.4166  1.7548 -1.7716
   81MOL    H4333803   1.551   2.612   6.576 -0.8720 -0.2393 -0.4829
   81MOL    C4433804   1.485   2.546   6.088 -0.6685 -0.4344  0.4167
   81MOL    C4533805   1.413   2.415   6.043 -0.4955 -0.0672  0.4634
   81MOL    C4633806   1.260   2.422   6.053 -0.3498 -0.0489  0.3030
   81MOL    O4733807   1.198   2.423   5.952 -0.0613 -0.1110  0.0652
   81MOL    O4833808   1.204   2.420   6.170 -0.3662 -0.3562  0.1308
   81MOL    C4933809   1.067   2.441   6.197 -0.4385 -0.2165  0.5941
   81MOL    C5033810   1.054   2.587   6.240 -0.4049 -0.1359  0.0858
   81MOL    C5133811   1.125   2.632   6.368  0.0632  0.2452 -0.0376
   81MOL    C5233812   1.115   2.785   6.394 -0.0350  0.4506  0.6799
   81MOL    H5333813   1.527   2.599   6.003 -1.2347  0.5346  0.7221
   81MOL    H5433814   1.405   2.610   6.127 -2.5620 -2.0445 -0.7518
   81MOL    H5533815   1.445   2.330   6.103  0.3333 -0.9185 -1.1216
   81MOL    H5633816   1.042   2.381   6.285 -0.6610 -2.1651 -0.7707
   81MOL    H5733817   0.997   2.408   6.121 -0.8999 -0.8330  1.2785
   81MOL    H5833818   1.068   2.658   6.158  1.9473 -0.1546  0.4375
   81MOL    H5933819   0.949   2.615   6.252  0.1878  2.7458 -0.9384
   81MOL    H6033820   1.231   2.609   6.358  0.3930  1.1013  1.4775
   81MOL    H6133821   1.079   2.568   6.443  0.2563 -1.5756 -1.4265
   81MOL    H6233822   1.164   2.832   6.308 -1.3402  0.7123  0.0754
   81MOL    H6333823   1.168   2.824   6.481  2.7262 -0.3096 -0.5947
   81MOL    H6433824   1.018   2.834   6.389  0.0735  0.6480  0.4489
   81MOL    C6533825   1.452   2.395   5.894 -0.0720 -0.5093  0.3845
   81MOL    C6633826   1.594   2.364   5.849  0.5895 -0.2457  0.1427
   81MOL    C6733827   1.665   2.258   5.945 -0.0116 -0.0305  0.2581
   81MOL    O6833828   1.598   2.172   5.989 -0.3871  1.2282  0.3075
   81MOL    O6933829   1.801   2.272   5.964  0.0456 -0.1989 -0.0876
   81MOL    C7033830   1.872   2.179   6.035  0.1282 -0.7804  0.4784
   81MOL    C7133831   2.025   2.217   6.019  0.1588 -0.2754  0.6779
   81MOL    C7233832   2.111   2.122   6.097  0.0824  0.1507  0.4072
   81MOL    C7333833   2.261   2.161   6.121 -0.1686 -0.1801 -0.1036
   81MOL    H7433834   1.428   2.484   5.836  0.5774  0.6954  1.9407
   81MOL    H7533835   1.396   2.311   5.853 -0.2580 -0.6303  0.8871
   81MOL    H7633836   1.660   2.449   5.868  1.1305 -0.2025 -1.8115
   81MOL    H7733837   1.864   2.072   6.016 -0.0290 -0.8329  0.8271
   81MOL    H7833838   1.847   2.195   6.140 -1.5705  2.1966 -0.3368
   81MOL    H7933839   2.048   2.215   5.913  3.7602  2.5688  1.3379
   81MOL    H8033840   2.029   2.324   6.035 -2.1906  0.4288 -2.8268
   81MOL    H8133841   2.108   2.019   6.061 -0.7596  0.7546 -1.3342
   81MOL    H8233842   2.058   2.100   6.190 -0.9846 -1.6774 -0.5960
   81MOL    H8333843   2.304   2.209   6.033  1.2014 -2.0971 -0.5207
   81MOL    H8433844   2.317   2.073   6.151 -0.5864 -1.1658 -2.1208
   81MOL    H8533845   2.267   2.239   6.197 -1.4109  1.0092 -1.1717
   81MOL    C8633846   1.592   2.319   5.703 -0.0769  0.0280 -0.4192
   81MOL    C8733847   1.721   2.343   5.611 -0.2396  0.1051  0.8308
   81MOL    C8833848   1.843   2.247   5.628  0.2687  0.0237 -0.9737
   81MOL    O8933849   1.958   2.288   5.608 -0.0362 -0.1045 -0.4755
   81MOL    O9033850   1.798   2.116   5.647 -0.2909  0.5759  0.7931
   81MOL    C9133851   1.887   2.014   5.609  0.0008  0.0641 -0.6526
   81MOL    C9233852   1.822   1.874   5.632 -0.6303  0.5033  0.7918
   81MOL    C9333853   1.796   1.834   5.778  0.1440  0.0289  0.0961
   81MOL    C9433854   1.724   1.698   5.780 -0.3889 -0.1467 -0.1415
   81MOL    H9533855   1.515   2.376   5.651  0.1208  0.4709 -0.2256
   81MOL    H9633856   1.560   2.215   5.697  1.7018 -0.6161  0.7612
   81MOL    H9733857   1.760   2.442   5.633  1.4985 -0.7496  1.6879
   81MOL    H9833858   1.982   2.016   5.663 -1.6156  2.0392  2.2114
   81MOL    H9933859   1.909   2.013   5.502 -2.0530 -0.9038 -1.0923
   81MOL   H10033860   1.730   1.874   5.573 -0.7450 -1.1715  0.9677
   81MOL   H10133861   1.885   1.798   5.586 -1.8056 -0.6484  1.0615
   81MOL   H10233862   1.738   1.907   5.834 -0.8420 -2.9104  3.0666
   81MOL   H10333863   1.898   1.841   5.817  0.3073 -0.3699 -0.2547
   81MOL   H10433864   1.753   1.620   5.710  1.3207  0.0805  0.2892
   81MOL   H10533865   1.618   1.703   5.756 -0.6309 -1.1260  0.6965
   81MOL   H10633866   1.725   1.645   5.875  1.8481 -0.0684 -0.0912
   81MOL   C10733867   1.689   2.354   5.461 -0.0649  0.2813 -0.6186
   81MOL   C10833868   1.666   2.224   5.371  0.1315 -0.3696  0.4816
   81MOL   C10933869   1.538   2.146   5.410 -0.1447  0.6245  0.2458
   81MOL   O11033870   1.549   2.028   5.428 -0.4172  0.6354  0.1439
   81MOL   O11133871   1.421   2.219   5.423  0.3373  0.5942 -0.1300
   81MOL   C11233872   1.321   2.154   5.495 -0.3844  0.6291 -0.0378
   81MOL   C11333873   1.215   2.251   5.529  0.5156  1.3002 -0.5183
   81MOL   C11433874   1.128   2.212   5.657  0.3154 -1.2011  0.9495
   81MOL   C11533875   1.010   2.302   5.664  0.4621  0.2930  0.2961
   81MOL   H11633876   1.773   2.404   5.414  0.0426  1.3182  0.6681
   81MOL   H11733877   1.598   2.412   5.449 -1.4673 -1.8746 -0.8382
   81MOL   H11833878   1.750   2.160   5.396  0.9731  0.1063 -1.1140
   81MOL   H11933879   1.373   2.116   5.583 -1.6079  1.6512  1.1403
   81MOL   H12033880   1.281   2.069   5.439  0.5187  1.3041 -1.7452
   81MOL   H12133881   1.257   2.351   5.531  0.8309  1.1492  1.7971
   81MOL   H12233882   1.143   2.249   5.447 -1.1117  0.0676  0.8797
   81MOL   H12333883   1.180   2.235   5.750 -0.2698  1.2605  0.6835
   81MOL   H12433884   1.103   2.106   5.653  0.8390 -1.3566  1.7253
   81MOL   H12533885   1.026   2.407   5.638  0.2392  0.3508  0.3969
   81MOL   H12633886   0.962   2.301   5.761  1.2792 -4.0482  0.7433
   81MOL   H12733887   0.932   2.259   5.601  0.1940 -0.3434  1.0541
   81MOL   C12833888   1.673   2.261   5.222  0.4967 -0.7046  0.6907
   81MOL   C12933889   1.657   2.157   5.114 -0.1001  0.4024 -0.2265
   81MOL   C13033890   1.647   2.216   4.986  1.0911 -0.2555 -0.5240
   81MOL   O13133891   1.541   2.208   4.925  0.2487 -0.3240 -0.3606
   81MOL   O13233892   1.756   2.279   4.953  0.4309  0.2742  0.3588
   81MOL   C13333893   1.764   2.347   4.829  0.0458 -0.1490 -0.1483
   81MOL   C13433894   1.895   2.424   4.810  0.9115  0.2685 -0.1935
   81MOL   C13533895   1.921   2.534   4.912  0.3025 -0.0479 -0.2774
   81MOL   C13633896   2.049   2.599   4.883 -0.8262 -0.3212 -0.0724
   81MOL   H13733897   1.762   2.321   5.204 -0.2928  0.5814  1.0249
   81MOL   H13833898   1.593   2.334   5.212  0.9118 -0.1843  1.1490
   81MOL   H13933899   1.559   2.114   5.133 -1.0291  2.8329  0.6674
   81MOL   H14033900   1.684   2.420   4.838  2.0433  2.0467  0.3689
   81MOL   H14133901   1.746   2.287   4.739 -0.5627  1.2897 -0.9990
   81MOL   H14233902   1.979   2.356   4.808  0.9458  0.3087 -0.1083
   81MOL   H14333903   1.896   2.461   4.708 -1.9953  2.5336  0.5060
   81MOL   H14433904   1.938   2.492   5.011 -0.4590  0.6673  0.1659
   81MOL   H14533905   1.839   2.606   4.908  0.2758 -0.1389 -1.8321
   81MOL   H14633906   2.070   2.658   4.973 -0.4520  0.7986 -0.8816
   81MOL   H14733907   2.027   2.667   4.800  2.0383 -0.8384 -1.3157
   81MOL   H14833908   2.137   2.538   4.863 -0.4803  0.2630 -0.3533
   81MOL   C14933909   1.766   2.044   5.130 -0.1826 -1.0992  0.2198
   81MOL   C15033910   1.752   1.916   5.038  0.4163 -0.2472 -0.7418
   81MOL   C15133911   1.895   1.863   5.016  0.2894  0.1132  0.4045
   81MOL   O15233912   1.978   1.848   5.111  0.4339  0.1398  0.0237
   81MOL   O15333913   1.921   1.844   4.884  0.5156 -0.2119 -0.0550
   81MOL   C15433914   2.054   1.851   4.835  0.0423 -0.0583 -0.7055
   81MOL   C15533915   2.083   1.996   4.788 -0.1941  0.6653  0.4458
   81MOL   C15633916   2.004   2.008   4.657 -0.0195 -0.5805  0.7022
   81MOL   C15733917   2.024   2.157   4.603 -0.3709  0.8497 -0.1825
   81MOL   H15833918   1.780   2.024   5.236  1.3822 -0.9961  0.0500
   81MOL   H15933919   1.862   2.091   5.109  0.6991 -3.3899 -1.1191
   81MOL   H16033920   1.728   1.958   4.940 -0.1417 -1.2721 -1.0419
   81MOL   H16133921   2.067   1.775   4.758 -0.8813 -1.5835  0.5993
   81MOL   H16233922   2.121   1.821   4.916  0.4371 -0.5138 -1.2036
   81MOL   H16333923   2.036   2.061   4.862  0.7094  1.4358  0.3537
   81MOL   H16433924   2.191   2.011   4.785  0.3406 -2.5574  2.1388
   81MOL   H16533925   1.900   1.996   4.688 -0.7755  2.5601 -0.3660
   81MOL   H16633926   2.041   1.933   4.588 -1.0936 -0.8641  0.4219
   81MOL   H16733927   2.026   2.173   4.495 -0.2436  1.6651 -0.0647
   81MOL   H16833928   2.111   2.202   4.649  1.5127 -1.2815 -1.5678
   81MOL   H16933929   1.935   2.212   4.634 -0.6161  1.5432 -1.9921
   81MOL   C17033930   1.658   1.808   5.088  0.4201 -0.2762  0.7189
   81MOL   C17133931   1.541   1.775   4.988 -0.6354 -0.7033 -0.5914
   81MOL   C17233932   1.583   1.686   4.875 -0.6875 -0.7766  0.0016
   81MOL   O17333933   1.605   1.731   4.764 -0.1398  0.3364 -0.0534
   81MOL   O17433934   1.604   1.563   4.914  0.0246 -0.3408  0.2087
   81MOL   C17533935   1.645   1.456   4.828  0.2678  0.4199  0.4609
   81MOL   C17633936   1.785   1.404   4.873  0.0136 -0.4393 -0.3140
   81MOL   C17733937   1.894   1.508   4.854  0.8549  0.3878  0.1991
   81MOL   C17833938   1.996   1.506   4.969 -0.2789  0.7479  0.0309
   81MOL   H17933939   1.622   1.842   5.185  0.6036  0.1699  0.6297
   81MOL   H18033940   1.715   1.719   5.115  0.9006 -0.5333 -1.0845
   81MOL   H18133941   1.511   1.872   4.949  0.0267  0.3609  1.4661
   81MOL   H18233942   1.644   1.471   4.720  0.7923  2.9996  0.7789
   81MOL   H18333943   1.570   1.379   4.842  0.1445  0.8038  1.9810
   81MOL   H18433944   1.784   1.371   4.978 -0.2930 -1.1778 -0.5452
   81MOL   H18533945   1.801   1.320   4.806  1.2157 -0.3401 -0.1742
   81MOL   H18633946   1.851   1.609   4.854  1.3198  0.5845 -0.5354
   81MOL   H18733947   1.954   1.497   4.764 -0.8358  0.4968 -0.9561
   81MOL   H18833948   2.050   1.412   4.951 -1.0361  0.9495 -3.6963
   81MOL   H18933949   1.948   1.504   5.066  0.6253 -1.3410  0.4649
   81MOL   H19033950   2.069   1.587   4.964 -0.0360  0.5047 -0.5393
   81MOL   C19133951   1.415   1.718   5.055 -0.1101 -0.9483 -0.1831
   81MOL   C19233952   1.324   1.804   5.140  0.3537 -0.5089  0.0650
   81MOL   C19333953   1.268   1.921   5.058 -0.2060 -0.1130  0.1472
   81MOL   O19433954   1.247   2.032   5.101  0.2017  0.5093  0.0821
   81MOL   O19533955   1.226   1.888   4.934  0.5339 -0.4630  0.3958
   81MOL   C19633956   1.192   1.984   4.839 -0.0291 -0.4696 -1.1688
   81MOL   C19733957   1.174   1.922   4.698  0.3796  0.0166 -0.3882
   81MOL   C19833958   1.153   2.035   4.594 -0.0497  0.3469  0.0565
   81MOL   C19933959   1.029   2.127   4.610 -0.0506 -0.5452  0.5380
   81MOL   H20033960   1.452   1.629   5.107  0.8429 -0.6614 -0.3618
   81MOL   H20133961   1.349   1.682   4.976  0.5689 -0.0796 -1.1573
   81MOL   H20233962   1.377   1.837   5.229  0.2085 -1.3086  0.4504
   81MOL   H20333963   1.272   2.055   4.820 -1.3237  1.0148 -1.1068
   81MOL   H20433964   1.103   2.031   4.880  0.0109 -2.6058  1.5353
   81MOL   H20533965   1.264   1.865   4.673  0.6080 -0.8548  2.2533
   81MOL   H20633966   1.087   1.857   4.687  0.2484  0.0627  0.3691
   81MOL   H20733967   1.142   1.988   4.496 -0.3329  0.5026  0.0155
   81MOL   H20833968   1.238   2.102   4.578 -0.4748  1.1572  1.2529
   81MOL   H20933969   1.022   2.214   4.545 -2.9277  0.3236  1.9375
   81MOL   H21033970   1.037   2.162   4.713 -0.1007  0.3501  0.2419
   81MOL   H21133971   0.934   2.077   4.591 -0.6756  0.1976  1.6820
   81MOL   C21233972   1.203   1.727   5.192  0.0891  0.4811  0.5052
   81MOL   C21333973   1.234   1.603   5.283 -0.2993  0.3310 -0.2677
   81MOL   C21433974   1.344   1.637   5.392 -0.5611 -0.5523 -0.4267
   81MOL   O21533975   1.451   1.578   5.387 -0.6839  0.4095  0.4239
   81MOL   O21633976   1.297   1.714   5.485 -0.5073 -0.0859 -0.6303
   81MOL   C21733977   1.379   1.755   5.595 -0.4579  0.4321  0.1336
   81MOL   C21833978   1.303   1.845   5.699  0.1819 -0.7652  0.0231
   81MOL   C21933979   1.388   1.898   5.818 -0.1845 -0.3141  0.3474
   81MOL   C22033980   1.314   1.983   5.919  0.5225  0.0590  0.2977
   81MOL   H22133981   1.142   1.697   5.107 -1.1386  0.9660  1.1975
   81MOL   H22233982   1.132   1.793   5.241  0.6712  1.3327  0.2081
   81MOL   H22333983   1.272   1.523   5.220 -0.7769 -1.0610  1.1953
   81MOL   H22433984   1.464   1.810   5.554 -1.1788  1.4381 -0.0555
   81MOL   H22533985   1.427   1.667   5.635 -1.8782  0.5201  2.1095
   81MOL   H22633986   1.258   1.924   5.639  0.8439 -0.6636 -0.3403
   81MOL   H22733987   1.216   1.796   5.743 -0.0142  0.2548  0.8086
   81MOL   H22833988   1.479   1.950   5.790  0.0903 -0.3695  1.1251
   81MOL   H22933989   1.431   1.808   5.863 -0.2701 -0.9830 -0.8594
   81MOL   H23033990   1.380   2.035   5.988  0.9428  1.6115 -1.2565
   81MOL   H23133991   1.248   1.910   5.965  0.0619 -0.2239 -0.8086
   81MOL   H23233992   1.241   2.051   5.876 -0.5728 -1.2784  0.0356
   81MOL   C23333993   1.104   1.549   5.346 -0.2301 -0.4689 -0.2147
   81MOL   C23433994   1.103   1.392   5.354 -0.1215 -0.1346  0.3125
   81MOL   C23533995   1.096   1.344   5.502 -0.6012  0.3869 -0.0359
   81MOL   O23633996   0.988   1.321   5.553 -0.0723 -0.2208  0.0619
   81MOL   O23733997   1.205   1.366   5.572  0.3945 -0.1500 -0.5328
   81MOL   C23833998   1.216   1.288   5.689  0.0126  0.1534 -0.0769
   81MOL   C23933999   1.338   1.193   5.681 -0.2078 -0.4083 -0.0649
   81MOL   C24034000   1.478   1.266   5.667  0.1932 -0.4780 -0.5722
   81MOL   C24134001   1.502   1.363   5.783 -0.3257  0.0381 -0.7469
   81MOL   H24234002   1.026   1.585   5.279  0.4613  0.0147 -0.7631
   81MOL   H24334003   1.076   1.603   5.437  0.5395  2.1641 -1.4970
   81MOL   H24434004   1.204   1.365   5.324  1.0161  3.8409  0.2790
   81MOL   H24534005   1.126   1.231   5.714 -0.2100 -1.3018 -3.9237
   81MOL   H24634006   1.215   1.359   5.771 -0.9763 -0.1097  0.1528
   81MOL   H24734007   1.334   1.121   5.763  0.3898  0.7696  1.0223
   81MOL   H24834008   1.320   1.130   5.594 -0.5049 -0.2901 -0.0902
   81MOL   H24934009   1.484   1.305   5.565  1.5254  1.8863  0.3602
   81MOL   H25034010   1.549   1.183   5.676 -1.5998 -1.8210  1.6176
   81MOL   H25134011   1.432   1.446   5.771  0.1255  0.4166 -0.8056
   81MOL   H25234012   1.595   1.418   5.766 -0.5106 -0.0238 -1.9945
   81MOL   H25334013   1.496   1.324   5.884  1.7192 -0.6504 -0.8553
   81MOL   C25434014   0.992   1.334   5.264 -0.6470  0.1443 -0.1362
   81MOL   C25534015   1.000   1.350   5.105  0.4630 -0.1459  0.6457
   81MOL   C25634016   1.134   1.330   5.039  0.3566 -0.4450  0.5736
   81MOL   O25734017   1.163   1.398   4.938 -0.3846  0.4098  0.0441
   81MOL   O25834018   1.207   1.242   5.095  0.3462  0.1942  0.1245
   81MOL   C25934019   1.340   1.220   5.046 -0.0550  0.7473 -0.4433
   81MOL   C26034020   1.426   1.184   5.161 -0.1734 -0.0873 -0.1341
   81MOL   C26134021   1.368   1.076   5.254 -0.2960 -0.8680 -0.2772
   81MOL   C26234022   1.459   1.021   5.361 -0.3381  0.4722  0.3413
   81MOL   H26334023   0.901   1.373   5.310 -1.2494 -1.4201  0.0303
   81MOL   H26434024   0.986   1.225   5.276  3.4129 -0.0499  0.9300
   81MOL   H26534025   0.982   1.457   5.094 -4.2770 -1.0038 -0.8822
   81MOL   H26634026   1.374   1.307   4.991  1.2511  2.0493  2.3039
   81MOL   H26734027   1.337   1.134   4.979 -0.0767  1.5844 -1.5147
   81MOL   H26834028   1.525   1.167   5.118 -0.2815  0.9573 -0.8062
   81MOL   H26934029   1.432   1.272   5.225 -3.4701 -0.0199  0.1487
   81MOL   H27034030   1.333   0.995   5.190 -0.7144 -1.2905  0.4836
   81MOL   H27134031   1.277   1.109   5.305  0.4262  2.1585 -0.8345
   81MOL   H27234032   1.506   1.101   5.418 -2.8602  2.2719 -0.0164
   81MOL   H27334033   1.516   0.956   5.293 -1.1082 -0.6241  0.7222
   81MOL   H27434034   1.402   0.953   5.424 -3.4452  1.3154 -1.4450
   81MOL   C27534035   0.879   1.308   5.014  0.0470 -0.2789 -0.7075
   81MOL   C27634036   0.860   1.159   4.996 -0.3330  0.1416  0.5292
   81MOL   C27734037   0.794   1.095   5.117 -0.6958 -0.0100 -0.1760
   81MOL   O27834038   0.674   1.105   5.134 -0.0451  0.4879 -0.4335
   81MOL   O27934039   0.886   1.037   5.200  0.3748 -0.2344  0.5031
   81MOL   C28034040   0.841   0.967   5.309 -0.0600 -0.4978  0.0029
   81MOL   C28134041   0.952   0.972   5.416 -0.2601  0.4285  1.4394
   81MOL   C28234042   0.897   0.911   5.548  0.1994 -0.2634  0.0033
   81MOL   C28334043   0.995   0.920   5.657 -0.0209 -0.2767 -0.2464
   81MOL   H28434044   0.892   1.361   4.919 -2.2664  0.8115 -0.4417
   81MOL   H28534045   0.792   1.355   5.058  0.6092 -0.0372  0.1628
   81MOL   H28634046   0.960   1.118   4.991 -0.0558  1.0912 -2.2303
   81MOL   H28734047   0.805   0.867   5.286 -1.4588  0.0699 -0.3398
   81MOL   H28834048   0.765   1.033   5.353 -0.6958 -1.0411 -0.2671
   81MOL   H28934049   1.022   0.893   5.387 -1.0457  0.2975 -0.2112
   81MOL   H29034050   1.005   1.067   5.421  3.3720 -1.4490  0.4136
   81MOL   H29134051   0.866   0.807   5.541  2.7716 -0.9762 -1.8153
   81MOL   H29234052   0.813   0.969   5.585  0.6021  1.1694 -1.2826
   81MOL   H29334053   0.961   0.882   5.754 -0.2355  0.3579 -0.0711
   81MOL   H29434054   1.007   1.026   5.681  0.9336 -0.4472  0.0560
   81MOL   H29534055   1.088   0.880   5.617  0.7214 -0.8843  1.9870
   81MOL   C29634056   0.779   1.138   4.863  0.5806 -0.4796  0.5228
   81MOL   C29734057   0.836   1.190   4.722  0.0174 -0.2491  0.8145
   81MOL   C29834058   0.985   1.166   4.702 -0.0259 -0.1574  0.1871
   81MOL   O29934059   1.050   1.090   4.774 -0.5040 -0.5432 -0.2917
   81MOL   O30034060   1.027   1.248   4.605 -0.3431  0.0022  0.2322
   81MOL   C30134061   1.160   1.237   4.554 -0.6015 -0.2704  0.9098
   81MOL   C30234062   1.160   1.198   4.402 -0.0468  0.1098  0.0609
   81MOL   C30334063   1.195   1.057   4.366 -0.3940 -0.4122  0.0063
   81MOL   C30434064   1.173   1.028   4.220  0.4193 -0.7828  0.1174
   81MOL   H30534065   0.676   1.169   4.878  0.8213  0.4335  0.3283
   81MOL   H30634066   0.772   1.031   4.843 -2.5595 -0.6419  2.2601
   81MOL   H30734067   0.826   1.299   4.719 -1.9759 -0.3063  3.0981
   81MOL   H30834068   1.222   1.182   4.625 -2.8063 -1.8272  1.6690
   81MOL   H30934069   1.203   1.337   4.554  0.8526 -0.8140 -2.2279
   81MOL   H31034070   1.064   1.215   4.354 -1.3005 -1.5606  1.8773
   81MOL   H31134071   1.234   1.261   4.352 -0.0456 -1.0054 -1.3714
   81MOL   H31234072   1.140   0.982   4.424 -2.3400 -0.1187 -1.4103
   81MOL   H31334073   1.301   1.052   4.390 -0.5461 -3.1827  0.3012
   81MOL   H31434074   1.067   1.013   4.201 -0.0181  0.7403  1.3230
   81MOL   H31534075   1.225   0.933   4.205  2.1609  0.0532  0.7429
   81MOL   H31634076   1.211   1.109   4.158 -1.1732 -0.5626 -0.6087
   81MOL   C31734077   0.756   1.131   4.602  0.0273 -0.1381 -0.1214
   81MOL   C31834078   0.605   1.183   4.586 -0.2053  0.4659 -0.3924
   81MOL   C31934079   0.599   1.294   4.488  0.2604 -0.7583 -0.3641
   81MOL   O32034080   0.577   1.405   4.525  0.0296  0.5225  0.1146
   81MOL   O32134081   0.633   1.260   4.373 -0.1495  0.0694 -0.5210
   81MOL   C32234082   0.646   1.356   4.270 -0.0727 -0.3107  0.9352
   81MOL   C32334083   0.786   1.350   4.213  0.0502 -0.8223 -0.7237
   81MOL   C32434084   0.795   1.436   4.094  0.4162 -0.2783  0.5052
   81MOL   C32534085   0.946   1.420   4.042  1.2846 -0.5969  0.1036
   81MOL   H32634086   0.759   1.022   4.604  1.1239 -0.1037  2.4617
   81MOL   H32734087   0.813   1.152   4.512  2.3717 -1.7953  0.9332
   81MOL   H32834088   0.576   1.219   4.685  1.1295 -0.1793  0.2446
   81MOL   H32934089   0.623   1.456   4.307 -0.4782  0.5783 -1.6469
   81MOL   H33034090   0.565   1.333   4.200  1.3346  0.4752 -0.9786
   81MOL   H33134091   0.856   1.386   4.289 -1.9153 -0.8803  1.1582
   81MOL   H33234092   0.817   1.247   4.196 -0.2720 -1.1059  0.3614
   81MOL   H33334093   0.762   1.538   4.117 -1.2363 -1.0864  1.8773
   81MOL   H33434094   0.734   1.394   4.015  0.4068  1.8980 -0.6802
   81MOL   H33534095   0.979   1.513   3.997 -0.8146  0.2971  0.3504
   81MOL   H33634096   0.965   1.349   3.961  0.1642 -0.3303 -0.4098
   81MOL   H33734097   1.018   1.400   4.121 -0.6440 -0.8410  1.8210
   81MOL   C33834098   0.510   1.071   4.546  0.0314 -0.1364 -0.7063
   81MOL   C33934099   0.469   0.989   4.676 -0.3487 -0.5399  0.0741
   81MOL   C34034100   0.374   1.080   4.757  0.1503 -0.9091 -0.1177
   81MOL   O34134101   0.272   1.125   4.704  0.3407 -0.2128  0.1158
   81MOL   O34234102   0.417   1.096   4.878 -0.0412  0.3673 -0.3954
   81MOL   C34334103   0.332   1.154   4.975  0.2239 -0.3001  0.7874
   81MOL   C34434104   0.216   1.051   5.015  0.2490 -0.1325  0.0697
   81MOL   C34534105   0.124   1.103   5.132 -0.0163 -0.4332 -0.5910
   81MOL   C34634106   0.025   0.998   5.185  0.2602  0.5150 -0.4084
   81MOL   H34734107   0.561   0.998   4.484  1.0944 -2.4108  2.7179
   81MOL   H34834108   0.414   1.102   4.505 -0.1117 -3.2906 -2.9050
   81MOL   H34934109   0.560   0.966   4.733 -1.7088  0.6459  2.8162
   81MOL   H35034110   0.282   1.246   4.947 -2.0419 -1.2066  1.6882
   81MOL   H35134111   0.384   1.180   5.068 -1.5735  2.9094  0.9732
   81MOL   H35234112   0.150   1.046   4.928 -1.3281  0.1399  1.2181
   81MOL   H35334113   0.259   0.955   5.043  1.4100  1.1600  3.0007
   81MOL   H35434114   0.067   1.191   5.101  0.1652 -0.3694 -0.7437
   81MOL   H35534115   0.180   1.130   5.221 -0.5390  0.9733 -0.6652
   81MOL   H35634116   7.836   0.940   5.102  0.2492  0.2355 -0.2066
   81MOL   H35734117   7.798   1.040   5.245 -0.0821 -0.8644  0.1285
   81MOL   H35834118   0.077   0.925   5.248 -0.6003 -0.1889 -0.5097
   81MOL   C35934119   0.400   0.855   4.633 -0.3742  0.7180 -0.0880
   81MOL   C36034120   0.404   0.752   4.755 -0.4230  0.0312  1.2785
   81MOL   C36134121   0.261   0.684   4.769 -0.0371  0.3928  0.0288
   81MOL   O36234122   0.224   0.584   4.712 -0.0036 -0.3202 -0.1956
   81MOL   O36334123   0.181   0.745   4.847  0.9791  0.0228  0.5492
   81MOL   C36434124   0.046   0.704   4.882  0.0588  0.1015  0.1412
   81MOL   C36534125   0.040   0.595   4.987 -0.4294  0.0797 -0.6207
   81MOL   C36634126   7.745   0.568   5.022 -0.7228 -0.1309 -0.3212
   81MOL   C36734127   7.708   0.633   5.158  0.2487 -0.6498  0.6569
   81MOL   H36834128   0.443   0.824   4.537 -1.0236 -2.3053  0.5314
   81MOL   H36934129   0.296   0.877   4.611 -0.1023  0.9261 -1.1927
   81MOL   H37034130   0.417   0.820   4.839  0.0399  0.2961  0.9959
   81MOL   H37134131   7.851   0.664   4.793 -1.6050  2.1411  0.0910
   81MOL   H37234132   7.852   0.796   4.916 -1.5454 -0.4149 -0.5960
   81MOL   H37334133   0.087   0.497   4.977  1.8083  1.0822 -0.2378
   81MOL   H37434134   0.086   0.644   5.072 -1.2324  0.9520 -0.6789
   81MOL   H37534135   7.735   0.462   5.044 -0.0431 -0.3916 -1.2773
   81MOL   H37634136   7.673   0.595   4.945  0.4708 -0.8017 -1.6862
   81MOL   H37734137   7.603   0.640   5.184 -0.7427 -2.8646 -2.3517
   81MOL   H37834138   7.732   0.739   5.154  1.0410 -0.7844  1.7084
   81MOL   H37934139   7.759   0.585   5.241 -0.9187 -1.2691  1.0188
   81MOL   C38034140   0.521   0.659   4.742  0.0039  0.2933 -0.1892
   81MOL   C38134141   0.556   0.582   4.869 -0.3738  0.0263 -0.5414
   81MOL   C38234142   0.600   0.677   4.976 -0.4244  0.1849 -0.7923
   81MOL   O38334143   0.718   0.723   4.987  0.0051 -0.2045 -0.3117
   81MOL   O38434144   0.504   0.700   5.068 -0.1084  0.3775 -0.6155
   81MOL   C38534145   0.537   0.779   5.183 -0.3214 -0.3524 -0.3291
   81MOL   C38634146   0.407   0.783   5.263 -0.7212  0.4303 -0.5860
   81MOL   C38734147   0.344   0.649   5.301 -0.5053 -0.4612  0.3247
   81MOL   C38834148   0.242   0.665   5.419  0.1100  0.2024 -0.2201
   81MOL   H38934149   0.603   0.727   4.720 -0.3631  1.4032  1.7172
   81MOL   H39034150   0.506   0.589   4.660 -4.0424  0.4359  0.3036
   81MOL   H39134151   0.643   0.519   4.848  0.7841  2.6072 -3.8835
   81MOL   H39234152   0.563   0.882   5.157  0.4937  0.0562  2.0133
   81MOL   H39334153   0.618   0.738   5.244 -0.9860 -0.4255  0.5105
   81MOL   H39434154   0.421   0.832   5.359 -0.1022  0.2183 -0.5665
   81MOL   H39534155   0.332   0.837   5.205  0.4862  2.0909 -0.6473
   81MOL   H39634156   0.427   0.582   5.323 -1.0127 -1.3882 -0.5224
   81MOL   H39734157   0.298   0.603   5.214 -0.8385  0.8762 -0.2139
   81MOL   H39834158   0.160   0.728   5.385  1.8954  1.1609 -2.9143
   81MOL   H39934159   0.296   0.715   5.499  0.8660 -0.9970  0.0314
   81MOL   H40034160   0.203   0.568   5.450 -1.1316  0.3368 -1.3369
   81MOL   C40134161   0.450   0.479   4.923 -0.3046  0.6403 -0.3304
   81MOL   C40234162   0.508   0.369   5.017 -0.0983  0.3702  0.0948
   81MOL   C40334163   0.388   0.289   5.085  0.0031  0.8017 -0.2390
   81MOL   O40434164   0.322   0.206   5.023 -0.0971 -0.1904  0.0452
   81MOL   O40534165   0.373   0.330   5.210  1.0220  0.2427 -0.1269
   81MOL   C40634166   0.285   0.258   5.297  0.6817 -0.7712  0.2449
   81MOL   C40734167   0.146   0.300   5.277  0.4423  0.3336  0.1961
   81MOL   C40834168   0.044   0.239   5.369  0.2944 -0.1200  0.2932
   81MOL   C40934169   7.782   0.331   5.385  0.9122 -0.8579  0.8059
   81MOL   H41034170   0.405   0.428   4.838 -3.6249  1.4270  0.8689
   81MOL   H41134171   0.369   0.522   4.982 -1.3577 -0.1929 -1.1635
   81MOL   H41234172   0.565   0.423   5.092  0.6366  1.9055 -1.5092
   81MOL   H41334173   0.315   0.303   5.392 -0.6199  0.1983  0.2021
   81MOL   H41434174   0.302   0.151   5.305 -1.2716 -1.0934  0.2681
   81MOL   H41534175   0.142   0.408   5.275  0.3469  0.3495  1.0857
   81MOL   H41634176   0.103   0.279   5.179  0.5658  4.0271 -0.7051
   81MOL   H41734177   0.090   0.216   5.465  0.0060 -3.1633 -0.2295
   81MOL   H41834178   0.021   0.142   5.323  1.4350  0.0140 -0.5972
   81MOL   H41934179   7.700   0.281   5.438  1.7333 -1.5362  1.4444
   81MOL   H42034180   7.740   0.356   5.287 -0.1386 -1.1812  1.1610
   81MOL   H42134181   7.818   0.416   5.443  2.7584 -1.3810  0.4336
   81MOL   H42234182   0.563   0.299   4.954 -0.8614 -0.8643  0.7779
   82MOL     C134183   5.337   3.629   7.416  0.1043  0.4181  0.4517
   82MOL     C234184   5.457   3.614   7.319 -0.1614 -0.1649  0.7833
   82MOL     C334185   5.430   3.677   7.175 -0.7071  0.6982 -0.1636
   82MOL     O434186   5.426   3.800   7.149  0.1404  0.1573  0.5835
   82MOL     O534187   5.414   3.578   7.082  0.9502  0.0712  0.0457
   82MOL     C634188   5.359   3.604   6.955  0.2921 -0.0337  0.1853
   82MOL     C734189   5.406   3.496   6.857  0.5142  1.0475 -0.4610
   82MOL     C834190   5.360   3.352   6.888 -0.1757  0.4487  0.0199
   82MOL     C934191   5.403   3.248   6.776  0.3556 -0.1053 -0.1373
   82MOL    H1034192   5.308   3.730   7.444 -0.8773  0.4039 -0.5081
   82MOL    H1134193   5.254   3.578   7.367  0.0670 -2.1443  3.0239
   82MOL    H1234194   5.469   3.507   7.304 -0.8303 -0.2005  0.5219
   82MOL    H1334195   5.410   3.694   6.921  1.3648 -0.1678  1.3816
   82MOL    H1434196   5.252   3.622   6.967  0.6112  1.6204  0.7280
   82MOL    H1534197   5.384   3.528   6.755 -0.6449 -0.7122 -0.7817
   82MOL    H1634198   5.514   3.505   6.857  0.6546 -0.5155 -1.6668
   82MOL    H1734199   5.252   3.351   6.904 -0.0418 -1.3912  0.8949
   82MOL    H1834200   5.402   3.322   6.984 -0.6374  0.1493  0.1274
   82MOL    H1934201   5.343   3.273   6.689  0.1940 -2.3572 -0.7019
   82MOL    H2034202   5.376   3.145   6.799 -0.7220 -0.0297 -1.0524
   82MOL    H2134203   5.503   3.255   6.733  0.3425  0.8234 -0.0248
   82MOL    H2234204   5.360   3.566   7.503  0.6305  0.5610  0.4188
   82MOL    C2334205   5.582   3.684   7.382  0.4160  0.4299 -0.9032
   82MOL    C2434206   5.713   3.604   7.350  0.2065  0.3524 -0.4635
   82MOL    C2534207   5.754   3.634   7.211  0.4533  0.6710 -0.3848
   82MOL    O2634208   5.802   3.743   7.181  0.3958 -0.6034 -0.1075
   82MOL    O2734209   5.749   3.527   7.129  0.0940 -0.2095  0.3245
   82MOL    C2834210   5.797   3.525   6.994  0.7050  1.3170  0.1873
   82MOL    C2934211   5.744   3.385   6.948 -0.9877  0.2698  0.5618
   82MOL    C3034212   5.832   3.274   6.994 -0.0742  0.1034 -0.1331
   82MOL    C3134213   5.778   3.132   6.947 -0.2953 -0.3539  0.1807
   82MOL    H3234214   5.573   3.695   7.490  1.5441 -2.2444 -0.4962
   82MOL    H3334215   5.597   3.790   7.361 -1.0090  0.8858  0.2900
   82MOL    H3434216   5.692   3.497   7.350 -0.0382  0.4011  0.1677
   82MOL    H3534217   5.905   3.527   6.982  0.6825  0.7246 -0.0999
   82MOL    H3634218   5.748   3.600   6.931  0.7537  0.4260 -0.9212
   82MOL    H3734219   5.644   3.373   6.988 -0.7289 -0.2965  1.0443
   82MOL    H3834220   5.752   3.374   6.840  1.2982 -0.4976  0.7851
   82MOL    H3934221   5.817   3.276   7.102  0.5253  1.7037 -0.0582
   82MOL    H4034222   5.936   3.305   6.978 -0.2506  0.7465 -0.0672
   82MOL    H4134223   5.764   3.117   6.840  0.6900 -0.8332  0.1206
   82MOL    H4234224   5.681   3.114   6.993 -0.5409 -1.0466 -0.5953
   82MOL    H4334225   5.842   3.055   6.990 -0.5277 -0.2493  0.7168
   82MOL    C4434226   5.823   3.632   7.450 -0.3283 -0.7565  0.0067
   82MOL    C4534227   5.963   3.559   7.418  0.8246  0.5097  0.1879
   82MOL    C4634228   6.086   3.624   7.490 -0.2787  0.0078  0.0815
   82MOL    O4734229   6.071   3.705   7.580 -0.0513  0.2685  0.5639
   82MOL    O4834230   6.205   3.593   7.443  0.2066  0.1461  0.2424
   82MOL    C4934231   6.326   3.639   7.498  0.3289  0.3123  0.1214
   82MOL    C5034232   6.395   3.753   7.422  0.2092  0.5305  0.0430
   82MOL    C5134233   6.304   3.866   7.385 -0.0251 -0.8407  0.4438
   82MOL    C5234234   6.376   3.982   7.311 -0.0507  0.2870 -0.0315
   82MOL    H5334235   5.794   3.613   7.553  0.5231 -1.5449  0.1121
   82MOL    H5434236   5.845   3.738   7.439  0.0487 -1.0648 -2.5678
   82MOL    H5534237   5.981   3.585   7.314  0.4598 -1.6068 -0.4157
   82MOL    H5634238   6.389   3.550   7.501 -0.3995 -0.3669 -3.0932
   82MOL    H5734239   6.315   3.671   7.602  0.6410  2.1666 -0.3913
   82MOL    H5834240   6.484   3.792   7.473 -0.8330  0.4367  1.9553
   82MOL    H5934241   6.439   3.711   7.331 -1.4129  0.4706 -0.7153
   82MOL    H6034242   6.251   3.908   7.470  0.0571 -1.4783  0.8144
   82MOL    H6134243   6.221   3.831   7.324  0.7338 -0.9403 -0.5553
   82MOL    H6234244   6.308   4.063   7.285  1.4184  1.3003 -0.8369
   82MOL    H6334245   6.411   3.939   7.217 -0.1427 -2.3966  1.0999
   82MOL    H6434246   6.465   4.008   7.369 -2.5221  3.0078  2.7282
   82MOL    C6534247   5.954   3.407   7.448  0.2782  0.2517  0.5037
   82MOL    C6634248   5.896   3.353   7.583  0.8729  0.4427  0.3977
   82MOL    C6734249   5.782   3.242   7.566 -0.1513 -0.0421 -0.2181
   82MOL    O6834250   5.787   3.136   7.625 -0.6358 -0.0248  0.0794
   82MOL    O6934251   5.691   3.276   7.476  0.1727 -0.5330  0.4332
   82MOL    C7034252   5.579   3.183   7.441 -0.2027 -0.0315 -0.0909
   82MOL    C7134253   5.474   3.251   7.362 -0.1653  0.6013 -0.2660
   82MOL    C7234254   5.354   3.173   7.323 -0.1378  0.5757 -0.1278
   82MOL    C7334255   5.236   3.255   7.273 -0.6643 -0.6652 -0.0090
   82MOL    H7434256   6.047   3.353   7.435 -0.4858 -0.6067 -1.4967
   82MOL    H7534257   5.891   3.373   7.366  1.9787 -1.8642  0.0411
   82MOL    H7634258   5.831   3.423   7.636  1.9535  0.9009  1.1346
   82MOL    H7734259   5.537   3.158   7.539  0.1120 -2.1425 -0.4793
   82MOL    H7834260   5.607   3.090   7.392 -2.1684 -0.5614 -0.2399
   82MOL    H7934261   5.434   3.328   7.428  1.1188  1.7704 -0.8215
   82MOL    H8034262   5.520   3.298   7.274  0.7527  1.0983  0.4697
   82MOL    H8134263   5.309   3.113   7.402 -0.7317 -0.5954 -1.3293
   82MOL    H8234264   5.383   3.099   7.249  0.5890  0.0000  0.7153
   82MOL    H8334265   5.148   3.192   7.259 -0.7759 -0.0496 -2.3268
   82MOL    H8434266   5.274   3.298   7.180  0.9599  0.5149  1.1539
   82MOL    H8534267   5.216   3.340   7.339  0.6056 -0.1002 -0.3219
   82MOL    C8634268   6.001   3.317   7.690  0.4819  0.4743 -0.2433
   82MOL    C8734269   6.088   3.199   7.667  0.4854  0.4183 -0.6395
   82MOL    C8834270   6.233   3.231   7.625  0.5757  0.8053 -0.6494
   82MOL    O8934271   6.274   3.187   7.522  0.1014 -0.2102  0.2338
   82MOL    O9034272   6.302   3.304   7.716 -0.5267  0.0750  0.1044
   82MOL    C9134273   6.427   3.356   7.682 -0.0317  0.1589 -0.3808
   82MOL    C9234274   6.479   3.460   7.784 -0.0258 -0.3679  0.4162
   82MOL    C9334275   6.622   3.507   7.752 -0.1971 -0.0295  0.1291
   82MOL    C9434276   6.680   3.587   0.014 -0.2459  0.3691 -0.6304
   82MOL    H9534277   5.945   3.297   7.781 -0.3161  1.5365 -0.5031
   82MOL    H9634278   6.050   3.411   7.717  0.6772  0.0427  0.9476
   82MOL    H9734279   6.041   3.127   7.599 -0.1156  1.1132 -0.9621
   82MOL    H9834280   6.446   3.369   7.575  1.2206 -0.7285 -0.2691
   82MOL    H9934281   6.498   3.274   7.694  1.3176  1.1023 -1.7162
   82MOL   H10034282   6.404   3.537   7.798 -0.4143 -0.9785  1.7422
   82MOL   H10134283   6.477   3.409   0.027 -1.5855  1.8992  1.6286
   82MOL   H10234284   6.614   3.574   7.667  2.0787 -1.6131 -1.3706
   82MOL   H10334285   6.688   3.422   7.734  0.8896 -0.0439  3.7170
   82MOL   H10434286   6.616   3.668   0.050 -0.5559 -1.0885  2.2533
   82MOL   H10534287   6.776   3.632   7.843 -0.4832  0.8966 -0.6019
   82MOL   H10634288   6.712   3.520   0.093  0.9809  0.4476 -1.0554
   82MOL   C10734289   6.095   3.100   7.799  0.2564 -0.1284 -0.2105
   82MOL   C10834290   6.152   2.963   7.765  0.5028  0.2493  0.2460
   82MOL   C10934291   6.195   2.908   0.043  0.0668  0.4142  0.2748
   82MOL   O11034292   6.128   2.831   0.113  0.1510  0.3103 -0.4202
   82MOL   O11134293   6.321   2.958   0.075  0.3705 -0.8995  0.0164
   82MOL   C11234294   6.384   2.913   0.192  0.3015 -0.3091 -0.7743
   82MOL   C11334295   6.341   2.997   0.318 -0.0604  0.1233  0.6762
   82MOL   C11434296   6.401   3.137   0.332  0.4021  0.4327  0.3480
   82MOL   C11534297   6.375   3.230   0.210  0.4365 -0.7806 -0.0489
   82MOL   H11634298   5.991   3.102   7.831 -0.2318  0.5773 -1.7775
   82MOL   H11734299   6.145   3.160   0.023 -1.0447  1.4462 -0.5655
   82MOL   H11834300   6.239   2.969   7.699 -0.7976  1.0499 -1.4297
   82MOL   H11934301   6.491   2.920   0.172  0.0534  1.1512 -1.6657
   82MOL   H12034302   6.368   2.806   0.201 -1.8186 -0.0245 -0.8620
   82MOL   H12134303   6.232   2.996   0.325 -0.0588 -0.7431  0.6796
   82MOL   H12234304   6.359   2.946   0.413  0.3865 -0.2232  0.4064
   82MOL   H12334305   6.510   3.133   0.331  0.3913 -0.9395  2.6582
   82MOL   H12434306   6.358   3.188   0.419 -0.4441  1.6284 -0.7389
   82MOL   H12534307   6.448   3.311   0.215  0.3138 -0.7941  2.5418
   82MOL   H12634308   6.278   3.278   0.213  0.2798 -1.1310  0.5636
   82MOL   H12734309   6.378   3.179   0.114  0.0160  1.2566 -1.1619
   82MOL   C12834310   6.046   2.879   7.692 -0.1226 -0.3438 -0.0102
   82MOL   C12934311   6.101   2.822   7.561  0.1557  0.4566  1.4840
   82MOL   C13034312   6.205   2.716   7.580 -0.2811 -0.2631  0.4178
   82MOL   O13134313   6.330   2.743   7.577 -0.8295  0.2890 -0.4613
   82MOL   O13234314   6.140   2.599   7.602 -0.1127  0.2943 -0.0613
   82MOL   C13334315   6.219   2.486   7.646  0.3903  0.2176 -0.0670
   82MOL   C13434316   6.122   2.365   7.626  0.3854  0.3160 -0.4509
   82MOL   C13534317   6.161   2.235   7.689 -0.5750  0.4294  0.2216
   82MOL   C13634318   6.071   2.113   7.660 -0.0976 -0.2036  0.3031
   82MOL   H13734319   5.957   2.941   7.683  1.9941  2.9207  0.6773
   82MOL   H13834320   6.012   2.800   7.759  0.0305  0.6082  1.2012
   82MOL   H13934321   6.151   2.897   7.500 -1.6334  0.7469  0.3278
   82MOL   H14034322   6.263   2.501   7.745  0.5136 -0.6625  0.0218
   82MOL   H14134323   6.298   2.459   7.576  0.0553  0.2247 -0.4437
   82MOL   H14234324   6.023   2.399   7.654 -0.3095 -2.3024  0.4283
   82MOL   H14334325   6.126   2.358   7.517  0.9540  0.4315 -0.4379
   82MOL   H14434326   6.159   2.253   7.796  0.2503 -0.8245  0.4539
   82MOL   H14534327   6.260   2.212   7.649 -0.5502  2.0635 -0.7115
   82MOL   H14634328   6.112   2.020   7.698  1.0406  0.7053  1.3354
   82MOL   H14734329   6.071   2.104   7.551  0.4127  1.0496  0.1864
   82MOL   H14834330   5.969   2.119   7.695 -0.1379  2.2273 -0.1617
   82MOL   C14934331   5.981   2.774   7.476  0.4287 -0.1636 -0.3272
   82MOL   C15034332   5.922   2.881   7.370  0.3019 -0.2679 -0.2603
   82MOL   C15134333   6.001   2.880   7.232  0.3259 -0.0508 -0.3298
   82MOL   O15234334   5.946   2.857   7.126 -0.0091 -0.0606  0.1066
   82MOL   O15334335   6.121   2.924   7.246 -0.3585  0.3357 -0.2661
   82MOL   C15434336   6.202   2.937   7.136  0.3831  0.2506  0.2726
   82MOL   C15534337   6.209   3.080   7.076 -0.0835  0.2111 -0.6595
   82MOL   C15634338   6.252   3.181   7.192  0.3134  0.7419  0.1137
   82MOL   C15734339   6.223   3.329   7.175  0.2865  0.0855 -0.4492
   82MOL   H15834340   5.904   2.744   7.547  0.6190 -0.0671 -0.0778
   82MOL   H15934341   6.010   2.685   7.422  0.0671 -0.0760 -0.6672
   82MOL   H16034342   5.954   2.975   7.415  1.5128 -0.0607 -1.5364
   82MOL   H16134343   6.180   2.854   7.068  0.3657  1.0555 -0.7184
   82MOL   H16234344   6.300   2.910   7.174 -0.0330 -1.5515  0.1583
   82MOL   H16334345   6.276   3.070   6.991  0.6383 -1.1337  0.0558
   82MOL   H16434346   6.113   3.113   7.035 -0.0650 -2.2150 -2.7441
   82MOL   H16534347   6.357   3.160   7.217 -0.0601 -2.9513 -1.0172
   82MOL   H16634348   6.199   3.166   7.287 -0.7316  0.2260 -0.5443
   82MOL   H16734349   6.128   3.354   7.128  1.0217 -0.1750 -2.0837
   82MOL   H16834350   6.295   3.357   7.098  0.9514 -1.4524 -0.4043
   82MOL   H16934351   6.241   3.382   7.269  2.0789  0.5097 -1.0283
   82MOL   C17034352   5.767   2.892   7.344  0.2735 -0.1600  0.1425
   82MOL   C17134353   5.697   2.781   7.266 -0.3387  0.2304 -0.3910
   82MOL   C17234354   5.708   2.642   7.334 -0.2642 -0.5669 -0.5993
   82MOL   O17334355   5.622   2.606   7.417  0.1835  0.2599 -0.0183
   82MOL   O17434356   5.805   2.566   7.290  0.3208 -0.2156  0.0282
   82MOL   C17534357   5.851   2.459   7.366 -0.6159 -0.6472  0.1562
   82MOL   C17634358   5.824   2.329   7.291  0.0937  0.4335 -0.0076
   82MOL   C17734359   5.894   2.206   7.348  0.1021  0.5227 -0.2616
   82MOL   C17834360   5.847   2.071   7.287 -0.0157 -0.0643  0.5512
   82MOL   H17934361   5.745   2.985   7.292  0.6559  0.8408  1.7381
   82MOL   H18034362   5.716   2.891   7.440  0.1534 -1.0728  0.0791
   82MOL   H18134363   5.745   2.760   7.171 -0.3949 -1.8940  0.0114
   82MOL   H18234364   5.801   2.457   7.463  1.8832  3.2271  1.6625
   82MOL   H18334365   5.960   2.464   7.370 -0.7000  0.8299  1.1154
   82MOL   H18434366   5.717   2.313   7.287 -0.2162  2.6923 -1.7025
   82MOL   H18534367   5.856   2.340   7.187  0.3739 -0.5639 -0.0245
   82MOL   H18634368   5.875   2.205   7.455  0.1725  2.3758 -0.2240
   82MOL   H18734369   6.002   2.218   7.356  0.2823 -1.9495  1.8784
   82MOL   H18834370   5.857   1.998   7.368 -4.0467  1.0695  2.2141
   82MOL   H18934371   5.911   2.033   7.208  0.2105  1.6238 -0.1066
   82MOL   H19034372   5.744   2.076   7.250  0.2940 -2.3800 -0.7001
   82MOL   C19134373   5.550   2.815   7.243 -0.4452  0.2061 -0.5636
   82MOL   C19234374   5.485   2.734   7.123  0.0047  0.6961 -0.4282
   82MOL   C19334375   5.336   2.740   7.129 -0.1596  0.0260 -0.2437
   82MOL   O19434376   5.263   2.650   7.080 -0.0746  0.5572 -0.0708
   82MOL   O19534377   5.288   2.865   7.179  0.2982 -0.3906  0.0391
   82MOL   C19634378   5.148   2.891   7.163  0.2947 -0.0809  0.0447
   82MOL   C19734379   5.123   2.990   7.048  0.2003  0.3628  0.5993
   82MOL   C19834380   5.150   2.950   6.902  0.3723 -0.6822 -0.5711
   82MOL   C19934381   5.092   3.051   6.800  0.6145  0.1871 -0.0001
   82MOL   H20034382   5.542   2.918   7.209  1.1707  0.2218 -0.9395
   82MOL   H20134383   5.486   2.807   7.331  0.0938  0.5736 -0.1385
   82MOL   H20234384   5.513   2.631   7.144 -1.7336 -0.0359 -1.6689
   82MOL   H20334385   5.114   2.943   7.252 -1.0218 -2.4820  0.9969
   82MOL   H20434386   5.078   2.808   7.147 -2.3905  2.1778 -0.3359
   82MOL   H20534387   5.019   3.022   7.054 -0.1884 -0.4842 -1.1413
   82MOL   H20634388   5.189   3.076   7.060 -0.2888  0.9907 -1.0399
   82MOL   H20734389   5.103   2.856   6.874 -0.2232  0.0810 -2.1885
   82MOL   H20834390   5.256   2.939   6.879  0.1931  2.6735 -3.3887
   82MOL   H20934391   5.128   3.155   6.797 -1.1482  0.7810 -1.1196
   82MOL   H21034392   4.995   3.062   6.847  0.7694  1.4320  0.0538
   82MOL   H21134393   5.088   3.012   6.698 -2.5310 -0.3602  0.2954
   82MOL   C21234394   5.536   2.792   6.992  0.0762  0.3671 -0.6048
   82MOL   C21334395   5.551   2.688   6.876 -0.2042  0.1566 -0.1015
   82MOL   C21434396   5.540   2.747   6.741 -0.5109  0.1838 -0.0184
   82MOL   O21534397   5.552   2.866   6.725 -0.1073  0.3582 -0.0159
   82MOL   O21634398   5.506   2.654   6.653  0.1933  0.0258 -0.1244
   82MOL   C21734399   5.494   2.680   6.512 -0.0081  0.3974  0.7136
   82MOL   C21834400   5.350   2.686   6.472  0.6384  0.5076 -0.3664
   82MOL   C21934401   5.316   2.826   6.409 -0.4803  0.2588  0.1722
   82MOL   C22034402   5.377   2.837   6.268  0.5722 -0.3819 -0.4708
   82MOL   H22134403   5.629   2.847   7.004  0.7196 -1.2371  1.9719
   82MOL   H22234404   5.468   2.875   6.971  0.6407  0.9608 -0.0927
   82MOL   H22334405   5.472   2.613   6.875  0.1473 -0.1960 -1.3186
   82MOL   H22434406   5.532   2.585   6.474 -0.2805 -0.0530  1.5585
   82MOL   H22534407   5.554   2.764   6.476  1.2085 -1.4064 -1.6959
   82MOL   H22634408   5.320   2.617   6.394 -2.4599  0.3760  0.8550
   82MOL   H22734409   5.283   2.673   6.557 -0.7952  1.9402 -1.2384
   82MOL   H22834410   5.364   2.902   6.470  1.7413 -0.8665 -0.1088
   82MOL   H22934411   5.208   2.825   6.397 -0.4853  2.5660 -0.1460
   82MOL   H23034412   5.348   2.754   6.203 -0.9921 -0.6512  0.5562
   82MOL   H23134413   5.486   2.842   6.270  0.5789  1.4052 -2.4968
   82MOL   H23234414   5.345   2.937   6.236  1.7818  0.4690  0.9085
   82MOL   C23334415   5.692   2.632   6.902 -0.3533  0.8139 -0.8494
   82MOL   C23434416   5.714   2.495   6.833 -0.4562  0.2419  0.2288
   82MOL   C23534417   5.867   2.468   6.820 -0.0165  0.5454  0.4149
   82MOL   O23634418   5.920   2.435   6.710 -0.1989  0.1473  0.3268
   82MOL   O23734419   5.935   2.468   6.936 -0.6777  0.1793  0.2014
   82MOL   C23834420   6.082   2.456   6.928  0.1711  0.5695  0.6549
   82MOL   C23934421   6.150   2.431   7.056 -0.5834 -0.4958 -0.3295
   82MOL   C24034422   6.169   2.565   7.127  0.0583  0.1805  0.2530
   82MOL   C24134423   6.250   2.551   7.262  0.3756 -0.0762 -0.1904
   82MOL   H24234424   5.715   2.626   7.009 -1.2494 -0.4455 -0.7154
   82MOL   H24334425   5.767   2.700   6.863 -1.8330  2.8736 -0.1672
   82MOL   H24434426   5.688   2.510   6.728 -0.4278  0.8296  0.3075
   82MOL   H24534427   6.117   2.542   6.871  1.0637 -0.2002  0.0334
   82MOL   H24634428   6.104   2.382   6.851  1.7467  2.0944 -0.4048
   82MOL   H24734429   6.107   2.354   7.121  0.8487  0.1287  1.3883
   82MOL   H24834430   6.248   2.390   7.033 -0.8256 -0.7026 -1.0145
   82MOL   H24934431   6.073   2.612   7.145 -0.0342  0.7461 -1.6055
   82MOL   H25034432   6.221   2.635   7.062  0.5095 -0.3721  0.0115
   82MOL   H25134433   6.346   2.501   7.249  0.9679  0.7898  0.8070
   82MOL   H25234434   6.202   2.505   7.348 -1.0068  1.6147 -0.0467
   82MOL   H25334435   6.267   2.649   7.305 -2.9533  0.4733 -0.0214
   82MOL   C25434436   5.634   2.375   6.894  0.2779 -0.4859  0.8071
   82MOL   C25534437   5.509   2.327   6.813  0.2189  0.2733  0.1661
   82MOL   C25634438   5.536   2.261   6.677  0.5507 -0.2764 -0.5158
   82MOL   O25734439   5.444   2.256   6.593  0.3252  0.5012 -0.3988
   82MOL   O25834440   5.661   2.234   6.650 -0.4072 -0.0672 -0.5845
   82MOL   C25934441   5.708   2.181   6.528 -0.4016 -0.6345 -0.3600
   82MOL   C26034442   5.756   2.303   6.443 -0.6046  0.5711 -0.0074
   82MOL   C26134443   5.824   2.267   6.309  0.1553 -0.7948  0.0988
   82MOL   C26234444   5.896   2.395   6.253  0.2686 -0.2689 -0.0530
   82MOL   H26334445   5.587   2.408   6.986 -2.0321 -1.8924  0.1815
   82MOL   H26434446   5.699   2.291   6.921 -0.3998 -0.4799  2.4880
   82MOL   H26534447   5.449   2.416   6.792  1.1632  0.9480  0.2496
   82MOL   H26634448   5.632   2.120   6.479 -0.5137  0.0142 -1.0045
   82MOL   H26734449   5.789   2.112   6.552  0.0423  1.0300  3.1652
   82MOL   H26834450   5.680   2.378   6.424  1.2009  2.3040 -0.5688
   82MOL   H26934451   5.832   2.365   6.491  2.5097 -0.0163 -3.9092
   82MOL   H27034452   5.740   2.235   6.247 -0.8400  0.1407  0.9460
   82MOL   H27134453   5.895   2.185   6.315 -3.0973 -3.6723  0.8634
   82MOL   H27234454   5.912   2.398   6.146 -0.7629  0.4337 -0.1887
   82MOL   H27334455   5.995   2.395   6.301  0.0896  1.4321  0.3502
   82MOL   H27434456   5.850   2.492   6.271  1.9120  0.2025  1.7963
   82MOL   C27534457   5.432   2.227   6.907  0.4069  0.3679 -0.1240
   82MOL   C27634458   5.282   2.199   6.870  0.0523  0.4116  0.3826
   82MOL   C27734459   5.243   2.080   6.960 -0.0005 -0.2091  0.3458
   82MOL   O27834460   5.311   2.041   7.051 -0.1813  0.3734 -0.6407
   82MOL   O27934461   5.124   2.042   6.926 -0.4513 -0.0382 -0.0889
   82MOL   C28034462   5.057   1.951   7.001 -0.4313  0.0715 -0.1359
   82MOL   C28134463   4.906   1.963   6.986  0.3659  0.4037  0.2662
   82MOL   C28234464   4.845   1.821   7.026 -0.1319 -0.6968 -0.3276
   82MOL   C28334465   4.698   1.826   7.055  0.4613 -0.3011  0.8074
   82MOL   H28434466   5.437   2.254   7.013  0.3108 -0.5262  0.1173
   82MOL   H28534467   5.483   2.132   6.894  0.9206  0.6549 -0.2210
   82MOL   H28634468   5.282   2.155   6.770  3.9034 -1.6626  1.1697
   82MOL   H28734469   5.079   1.969   7.107  0.2599 -1.2382 -0.0516
   82MOL   H28834470   5.096   1.853   6.973 -0.3876  0.5526 -1.7715
   82MOL   H28934471   4.862   2.040   7.049 -0.4177  0.1261  0.0570
   82MOL   H29034472   4.884   1.970   6.879  2.4579 -0.9493 -0.2877
   82MOL   H29134473   4.899   1.786   7.114 -0.8466 -0.5388  0.1755
   82MOL   H29234474   4.879   1.754   6.946  1.1696  0.8043 -1.0582
   82MOL   H29334475   4.686   1.898   7.136 -0.1976 -0.2557  0.6700
   82MOL   H29434476   4.674   1.725   7.086  0.1455 -1.6595 -3.6526
   82MOL   H29534477   4.630   1.855   6.975 -1.7216  1.3188  3.1731
   82MOL   C29634478   5.191   2.319   6.890 -0.1805 -0.4510  0.2051
   82MOL   C29734479   5.149   2.410   6.777  0.7390  0.5065 -0.1756
   82MOL   C29834480   5.083   2.338   6.659 -0.1674 -0.1971 -0.6495
   82MOL   O29934481   5.021   2.230   6.667  0.5560 -0.3104 -0.0181
   82MOL   O30034482   5.100   2.407   6.545  0.2147 -0.0629 -0.0760
   82MOL   C30134483   5.044   2.368   6.423 -0.6407 -0.4125  0.1008
   82MOL   C30234484   5.133   2.285   6.333  0.0579  0.5906 -0.6013
   82MOL   C30334485   5.127   2.324   6.185 -0.0063  1.6979  0.1671
   82MOL   C30434486   4.987   2.276   6.134 -0.8434 -0.5310  0.4489
   82MOL   H30534487   5.240   2.381   6.965 -0.0017 -1.8840  1.2977
   82MOL   H30634488   5.102   2.310   6.951 -0.4908 -1.6074 -0.4064
   82MOL   H30734489   5.242   2.451   6.736  0.8483  0.2529 -0.1799
   82MOL   H30834490   5.009   2.458   6.372 -1.3117 -1.6626 -1.7228
   82MOL   H30934491   4.950   2.322   6.453 -0.1289 -0.1025  2.2614
   82MOL   H31034492   5.238   2.303   6.357  0.3931 -1.1699 -0.6834
   82MOL   H31134493   5.109   2.179   6.338  3.0116 -0.1003  0.2530
   82MOL   H31234494   5.201   2.265   6.131 -1.8031 -0.0888 -0.3866
   82MOL   H31334495   5.134   2.431   6.162 -0.0695  2.1752  2.2928
   82MOL   H31434496   4.967   2.169   6.144 -0.2754 -0.5146  1.8052
   82MOL   H31534497   4.987   2.289   6.026 -0.7323 -1.0398  0.3884
   82MOL   H31634498   4.898   2.330   6.166 -2.2724 -1.9679 -1.0059
   82MOL   C31734499   5.056   2.526   6.825 -0.5634 -0.0527 -0.3332
   82MOL   C31834500   4.921   2.486   6.893 -0.1550  0.0216 -0.0640
   82MOL   C31934501   4.909   2.507   7.046 -0.4185  0.3968  0.0374
   82MOL   O32034502   4.948   2.612   7.102  0.2741  0.0657  0.1430
   82MOL   O32134503   4.877   2.390   7.096  0.6214 -0.0058 -0.4644
   82MOL   C32234504   4.867   2.374   7.238 -0.0075 -0.0823 -0.1769
   82MOL   C32334505   4.827   2.227   7.254 -0.2256  0.2641  0.2573
   82MOL   C32434506   4.790   2.193   7.398  0.3612  0.0946 -0.3177
   82MOL   C32534507   4.761   2.042   7.429 -0.0920  0.3111 -0.1209
   82MOL   H32634508   5.030   2.588   6.739 -0.5357 -1.1058 -1.1190
   82MOL   H32734509   5.112   2.587   6.896 -0.3034 -0.6669 -0.0018
   82MOL   H32834510   4.903   2.380   6.877  1.1985  0.0152 -1.6806
   82MOL   H32934511   4.790   2.440   7.279 -0.3137 -0.4199 -0.2020
   82MOL   H33034512   4.966   2.391   7.279  0.4033 -1.1057 -0.7385
   82MOL   H33134513   4.745   2.193   7.191  0.6114  1.4081 -1.5096
   82MOL   H33234514   4.907   2.160   7.225  0.7557  1.2878  0.5723
   82MOL   H33334515   4.692   2.239   7.414  0.1115 -0.6127  0.2495
   82MOL   H33434516   4.855   2.239   7.472  0.1283 -0.0125 -0.0415
   82MOL   H33534517   4.698   2.010   7.346 -3.0381  1.0702  1.7362
   82MOL   H33634518   4.695   2.030   7.515  0.7655  1.3819  0.6922
   82MOL   H33734519   4.849   1.978   7.432 -0.0775  0.3476  0.2637
   82MOL   C33834520   4.791   2.534   6.816 -0.5081  0.2270  0.1437
   82MOL   C33934521   4.785   2.689   6.789  0.1274 -0.7781  0.1663
   82MOL   C34034522   4.827   2.729   6.646 -0.3911  0.1625  0.0855
   82MOL   O34134523   4.936   2.774   6.613 -0.4493 -0.3527 -0.3013
   82MOL   O34234524   4.727   2.708   6.553  0.3810  0.3080  0.8110
   82MOL   C34334525   4.761   2.720   6.419  0.4047 -0.2240  0.8882
   82MOL   C34434526   4.636   2.693   6.338 -0.4803 -0.2653  0.5503
   82MOL   C34534527   4.563   2.564   6.378  0.7938  0.4511  0.2997
   82MOL   C34634528   4.640   2.434   6.339  0.0858  0.2645  0.3791
   82MOL   H34734529   4.701   2.489   6.857 -0.6077 -1.5242 -1.9035
   82MOL   H34834530   4.797   2.482   6.721 -4.4821 -0.8121  0.3784
   82MOL   H34934531   4.855   2.743   6.851 -1.6539  0.0853  1.4564
   82MOL   H35034532   4.845   2.653   6.398  1.0838  0.6223  0.8810
   82MOL   H35134533   4.804   2.817   6.397 -3.6191  1.2665 -0.9242
   82MOL   H35234534   4.562   2.769   6.363  1.2442  1.1204  1.5996
   82MOL   H35334535   4.645   2.710   6.230 -3.2966 -0.3004  0.2805
   82MOL   H35434536   4.475   2.558   6.315  0.2457  2.0546  0.8867
   82MOL   H35534537   4.519   2.558   6.478 -1.1567 -0.3306 -0.5830
   82MOL   H35634538   4.693   2.449   6.245 -1.1409 -0.1821 -0.4000
   82MOL   H35734539   4.581   2.343   6.329  1.1120 -0.1807 -1.9935
   82MOL   H35834540   4.710   2.409   6.419 -0.6402  4.0972  2.3221
   82MOL   C35934541   4.646   2.757   6.823 -0.0460 -0.0525  0.6125
   82MOL   C36034542   4.599   2.756   6.972  0.5402 -0.8288  0.3764
   82MOL   C36134543   4.689   2.832   7.063 -0.2581  0.2245  0.5450
   82MOL   O36234544   4.730   2.946   7.029  0.0673  0.6225  0.5027
   82MOL   O36334545   4.724   2.773   7.173  0.2162  0.0338  0.0386
   82MOL   C36434546   4.795   2.849   7.268  0.8232 -0.0972  0.1265
   82MOL   C36534547   4.846   2.771   7.390  0.0919 -0.5880 -0.2526
   82MOL   C36634548   4.729   2.741   7.486  0.9906  0.4767 -0.8760
   82MOL   C36734549   4.774   2.664   7.606  0.4276 -0.0524  0.4006
   82MOL   H36834550   4.563   2.715   6.766 -0.9186  0.6149  1.3928
   82MOL   H36934551   4.647   2.862   6.793 -1.1031  0.3508  1.9172
   82MOL   H37034552   4.594   2.654   7.009 -0.9660  0.1749  3.1043
   82MOL   H37134553   4.726   2.929   7.293 -0.2646 -0.7333 -0.7785
   82MOL   H37234554   4.889   2.887   7.227  0.2530  1.0146 -0.1645
   82MOL   H37334555   4.881   2.677   7.348 -0.7877  0.2004 -2.8112
   82MOL   H37434556   4.929   2.829   7.432 -0.4022 -1.6508  2.2818
   82MOL   H37534557   4.654   2.679   7.438 -0.9292  1.9367  0.1686
   82MOL   H37634558   4.675   2.832   7.510  0.2680 -0.1289 -0.1608
   82MOL   H37734559   4.771   2.559   7.576  1.9580 -0.3392  1.1983
   82MOL   H37834560   4.699   2.661   7.685  0.2659  2.2013  0.3678
   82MOL   H37934561   4.873   2.691   7.644 -0.4356  2.8040  0.7252
   82MOL   C38034562   4.456   2.821   6.988  0.3272 -0.4099  0.1396
   82MOL   C38134563   4.380   2.775   7.116  0.3454 -0.0316 -0.7997
   82MOL   C38234564   4.304   2.886   7.181 -0.0147  0.1523  0.1592
   82MOL   O38334565   4.178   2.891   7.175  0.2069 -0.2951 -0.2917
   82MOL   O38434566   4.375   2.968   7.252 -0.1689 -0.0728 -0.1319
   82MOL   C38534567   4.324   3.098   7.278 -0.3032  0.7634  0.9946
   82MOL   C38634568   4.363   3.141   7.418  0.1307 -0.0986 -0.9463
   82MOL   C38734569   4.517   3.132   7.433  0.0829  0.1927 -0.0439
   82MOL   C38834570   4.573   3.214   7.552 -0.2882 -0.0559  0.2268
   82MOL   H38934571   4.392   2.793   6.905  1.0638  0.8140 -0.8588
   82MOL   H39034572   4.460   2.930   6.980  1.3911 -0.4493  0.1276
   82MOL   H39134573   4.455   2.746   7.190  0.9966  0.4764 -1.2515
   82MOL   H39234574   4.217   3.110   7.262 -0.2757 -0.1774  0.0728
   82MOL   H39334575   4.377   3.166   7.212  0.2570  0.1422  0.8111
   82MOL   H39434576   4.323   3.242   7.433  1.8960  0.8748 -2.4799
   82MOL   H39534577   4.303   3.080   7.484 -0.7038  1.5843 -0.1119
   82MOL   H39634578   4.565   3.181   7.348  0.1426  1.4675  0.7011
   82MOL   H39734579   4.561   3.033   7.435 -0.1168  0.1126  0.7201
   82MOL   H39834580   4.532   3.316   7.548 -2.3430 -0.7825  1.5900
   82MOL   H39934581   4.680   3.230   7.550 -0.4520  0.9347 -1.3043
   82MOL   H40034582   4.540   3.178   7.649 -1.9920  0.4238 -0.1450
   82MOL   C40134583   4.285   2.655   7.093 -1.0734 -0.0314  0.6024
   82MOL   C40234584   4.359   2.527   7.047  0.2084 -0.2476 -0.2512
   82MOL   C40334585   4.436   2.460   7.162 -0.3169 -0.7480  0.1746
   82MOL   O40434586   4.562   2.463   7.171 -0.8298 -0.4840  0.6434
   82MOL   O40534587   4.355   2.411   7.248  0.7785  0.6586 -0.0411
   82MOL   C40634588   4.402   2.359   7.373 -0.1032 -0.4992  0.2563
   82MOL   C40734589   4.294   2.255   7.420  0.1196 -0.9085  0.0849
   82MOL   C40834590   4.333   2.191   7.557 -0.1630  0.3275 -0.1289
   82MOL   C40934591   4.313   2.284   7.669 -0.2787 -0.0918 -0.4123
   82MOL   H41034592   4.215   2.692   7.019  0.9660  1.1752 -0.7667
   82MOL   H41134593   4.239   2.629   7.188 -0.4170  1.7090  1.4129
   82MOL   H41234594   4.429   2.532   6.963 -0.4161 -0.0828 -0.7622
   82MOL   H41334595   4.408   2.432   7.454  1.2848  1.0024 -1.1588
   82MOL   H41434596   4.500   2.315   7.356  0.7716  0.6507  2.1262
   82MOL   H41534597   4.209   2.322   7.432  1.3735  1.4427 -3.2753
   82MOL   H41634598   4.279   2.177   7.345 -0.4350  0.3538 -1.1587
   82MOL   H41734599   4.434   2.149   7.555  0.3122  1.4543 -0.3960
   82MOL   H41834600   4.265   2.109   7.581  0.0706  0.2841  0.4088
   82MOL   H41934601   4.322   2.236   7.767 -2.6514 -0.6182 -0.4267
   82MOL   H42034602   4.208   2.312   7.672 -0.4245 -0.7098  0.6601
   82MOL   H42134603   4.383   2.367   7.667 -1.5437  0.9932 -0.1697
   82MOL   H42234604   4.284   2.461   7.005  1.2416 -2.0678  0.6721
   83MOL     C134605   4.651   4.006   1.503 -0.0470 -0.5870  0.3271
   83MOL     C234606   4.587   3.940   1.629  0.0872 -0.8438  0.3325
   83MOL     C334607   4.678   3.920   1.748  0.8603  0.0268  0.0564
   83MOL     O434608   4.647   3.966   1.858  0.4205  0.1380 -0.2565
   83MOL     O534609   4.785   3.846   1.712  0.3764  0.2786  0.6694
   83MOL     C634610   4.872   3.803   1.816 -0.4413 -0.1888 -0.1091
   83MOL     C734611   4.893   3.652   1.808 -0.2735  0.3036  0.3900
   83MOL     C834612   4.775   3.576   1.847  0.1775  1.0352 -0.8465
   83MOL     C934613   4.812   3.429   1.870  0.2212  0.4457  0.1167
   83MOL    H1034614   4.576   4.021   1.426 -1.8279  3.5089  2.7184
   83MOL    H1134615   4.690   4.108   1.509  0.9664 -0.7315 -2.7668
   83MOL    H1234616   4.551   3.842   1.598  0.6290 -0.8037 -0.4123
   83MOL    H1334617   4.844   3.839   1.915  0.0412  0.7995 -0.3197
   83MOL    H1434618   4.963   3.861   1.798 -1.5008  0.7879 -2.5507
   83MOL    H1534619   4.923   3.633   1.706  1.0975 -2.8379  1.3443
   83MOL    H1634620   4.977   3.615   1.867 -1.7491 -1.3098  1.5381
   83MOL    H1734621   4.704   3.593   1.766  0.0886  0.2607 -0.9334
   83MOL    H1834622   4.736   3.615   1.942 -0.9066 -1.0904 -0.3975
   83MOL    H1934623   4.883   3.410   1.950  0.7496 -0.9132 -0.6647
   83MOL    H2034624   4.856   3.399   1.775 -0.8515  3.0149 -1.2284
   83MOL    H2134625   4.725   3.366   1.892  1.0436 -0.1862  1.5874
   83MOL    H2234626   4.739   3.953   1.467  1.2008 -0.5980  3.2148
   83MOL    C2334627   4.453   4.017   1.661  0.2655  0.1663 -0.1863
   83MOL    C2434628   4.350   3.933   1.736 -0.1884  0.2576  0.2499
   83MOL    C2534629   4.256   4.026   1.814  0.2853  0.2275 -0.4083
   83MOL    O2634630   4.218   4.136   1.772 -0.0775 -0.2453 -0.4537
   83MOL    O2734631   4.198   3.963   1.912  0.5147 -0.0146 -0.3380
   83MOL    C2834632   4.074   4.021   1.958  0.1244  0.1124  0.1863
   83MOL    C2934633   3.963   3.917   1.964  0.0065 -0.1243  0.2846
   83MOL    C3034634   3.997   3.814   2.072 -0.0366  0.0327 -0.7835
   83MOL    C3134635   3.876   3.730   2.108  0.1070  0.2243 -0.7326
   83MOL    H3234636   4.391   4.053   1.578 -1.8015 -1.3668  0.6442
   83MOL    H3334637   4.478   4.108   1.716 -1.4503  0.1199  0.7079
   83MOL    H3434638   4.410   3.880   1.810  1.2563  1.1977 -0.2328
   83MOL    H3534639   4.036   4.091   1.885 -0.6974 -1.3065 -0.7774
   83MOL    H3634640   4.091   4.077   2.050 -0.4605  1.9875 -0.8453
   83MOL    H3734641   3.861   3.954   1.978  0.2248  0.0999  1.2974
   83MOL    H3834642   3.962   3.866   1.868  1.6149 -1.0021  0.7192
   83MOL    H3934643   4.037   3.857   2.164  1.3864 -1.0149 -0.8961
   83MOL    H4034644   4.076   3.749   2.034  0.5878 -0.5299  1.3973
   83MOL    H4134645   3.833   3.675   2.024 -1.1922  0.6826 -0.3744
   83MOL    H4234646   3.794   3.766   2.170  0.2080  0.3325 -0.6628
   83MOL    H4334647   3.910   3.647   2.169 -0.0581  1.1666  0.6604
   83MOL    C4434648   4.273   3.827   1.646  0.4750 -0.3758  0.9506
   83MOL    C4534649   4.326   3.692   1.650 -0.2586 -0.2099  0.8753
   83MOL    C4634650   4.275   3.620   1.777 -1.0479 -0.5996  0.3789
   83MOL    O4734651   4.185   3.538   1.775  0.0325 -0.4451  0.0696
   83MOL    O4834652   4.344   3.668   1.890 -0.5570 -0.5881  0.1763
   83MOL    C4934653   4.335   3.612   2.017  0.2601  0.2958  0.2900
   83MOL    C5034654   4.454   3.517   2.015  0.4454  0.6889 -0.4181
   83MOL    C5134655   4.468   3.439   2.150  0.0815 -0.6927 -0.1096
   83MOL    C5234656   4.587   3.343   2.136 -0.0233 -0.0539 -0.1633
   83MOL    H5334657   4.279   3.861   1.543  1.7706  0.5432  1.3168
   83MOL    H5434658   4.167   3.816   1.671 -0.7923  1.0039 -3.3905
   83MOL    H5534659   4.434   3.683   1.662  0.2542  0.4828 -2.7738
   83MOL    H5634660   4.248   3.553   2.045 -0.0481  0.8194  0.4285
   83MOL    H5734661   4.348   3.688   2.095 -2.3374  0.6693  0.4035
   83MOL    H5834662   4.438   3.444   1.936 -0.4009  0.3769  0.0338
   83MOL    H5934663   4.546   3.573   2.001  1.4474 -0.8247  0.0228
   83MOL    H6034664   4.370   3.394   2.162 -1.5754  2.5641 -0.6974
   83MOL    H6134665   4.489   3.504   2.235 -1.8255 -0.9144  0.5613
   83MOL    H6234666   4.592   3.280   2.224  1.6937  0.0719 -0.1685
   83MOL    H6334667   4.678   3.403   2.133  1.7513 -2.2586  4.4538
   83MOL    H6434668   4.576   3.276   2.051  0.8648 -0.4800  0.0521
   83MOL    C6534669   4.298   3.617   1.518 -0.5194 -0.6662  0.5215
   83MOL    C6634670   4.390   3.651   1.406 -0.2942  0.1261 -0.0781
   83MOL    C6734671   4.536   3.594   1.423 -0.3797  0.1561 -0.1941
   83MOL    O6834672   4.556   3.471   1.441  0.7425 -0.0147  0.1011
   83MOL    O6934673   4.637   3.680   1.408 -0.2768 -0.4776 -0.4836
   83MOL    C7034674   4.770   3.631   1.403 -0.3368 -0.3090 -0.0305
   83MOL    C7134675   4.803   3.645   1.253  0.2985  0.7428  0.6681
   83MOL    C7234676   4.826   3.795   1.224  0.4988 -0.4869 -0.3111
   83MOL    C7334677   4.869   3.827   1.078  0.5132 -0.3351 -0.8929
   83MOL    H7434678   4.194   3.628   1.489  0.0072  3.3539 -0.0850
   83MOL    H7534679   4.318   3.511   1.536 -0.8241 -1.0929 -1.5548
   83MOL    H7634680   4.389   3.760   1.406 -1.6372  0.1417  1.7580
   83MOL    H7734681   4.774   3.525   1.429  4.1653 -0.0879  0.5093
   83MOL    H7834682   4.833   3.687   1.471 -0.5488  0.7558 -0.6980
   83MOL    H7934683   4.898   3.595   1.233 -0.1010 -0.9372  2.8795
   83MOL    H8034684   4.736   3.598   1.182  0.2158 -0.2287  1.3797
   83MOL    H8134685   4.908   3.831   1.287  1.0385 -2.0872 -0.0698
   83MOL    H8234686   4.743   3.862   1.244  1.0255 -0.0541  0.4938
   83MOL    H8334687   4.917   3.924   1.063 -2.8337  1.0519 -3.1066
   83MOL    H8434688   4.787   3.811   1.008 -1.5643  0.8920  1.1924
   83MOL    H8534689   4.955   3.768   1.047  0.2950 -1.5178  0.6946
   83MOL    C8634690   4.337   3.608   1.264 -0.2644  0.9198  0.1716
   83MOL    C8734691   4.293   3.728   1.179 -0.5374 -0.3577 -0.2046
   83MOL    C8834692   4.399   3.816   1.108 -0.3467 -0.0894  0.5987
   83MOL    O8934693   4.517   3.774   1.096 -0.1243  0.1881  0.3510
   83MOL    O9034694   4.352   3.934   1.086 -0.4372 -0.2249  0.2197
   83MOL    C9134695   4.435   4.040   1.042  0.2937  0.1139  0.0301
   83MOL    C9234696   4.517   4.096   1.160 -0.0631  1.0187  0.0029
   83MOL    C9334697   4.579   4.227   1.133 -0.2072 -0.2586 -0.1221
   83MOL    C9434698   4.667   4.284   1.249  0.8635  0.1146  0.0125
   83MOL    H9534699   4.256   3.535   1.273 -0.1946  0.7561 -0.4966
   83MOL    H9634700   4.413   3.553   1.210  0.0564  0.8017  0.7425
   83MOL    H9734701   4.258   3.781   1.267  2.1770  0.3927  0.4684
   83MOL    H9834702   4.377   4.124   1.002 -0.6612  0.3196  1.8236
   83MOL    H9934703   4.496   4.002   0.960  0.1876  1.2763 -0.6023
   83MOL   H10034704   4.442   4.107   1.238  0.2864  0.0175  0.4809
   83MOL   H10134705   4.586   4.020   1.196  0.7145 -0.1627 -3.7232
   83MOL   H10234706   4.503   4.301   1.107 -0.6717 -0.0221  1.8168
   83MOL   H10334707   4.651   4.220   1.051 -0.3367  1.8301 -0.4523
   83MOL   H10434708   4.722   4.368   1.207  1.0795 -0.1133 -0.1626
   83MOL   H10534709   4.738   4.206   1.281  1.0654  1.4986  3.1372
   83MOL   H10634710   4.614   4.319   1.338  0.8600  0.5802 -0.1723
   83MOL   C10734711   4.159   3.698   1.101 -0.1410  0.1296 -0.3939
   83MOL   C10834712   4.172   3.663   0.950 -0.5394 -0.1955  0.6787
   83MOL   C10934713   4.257   3.536   0.926  0.2939  0.8053 -0.9397
   83MOL   O11034714   4.238   3.429   0.985  0.2967  0.4209  1.4217
   83MOL   O11134715   4.337   3.553   0.816 -0.0242 -0.2655 -0.8631
   83MOL   C11234716   4.430   3.446   0.781  0.6878  0.0987  0.6299
   83MOL   C11334717   4.578   3.488   0.792 -0.0816 -0.1935 -0.1506
   83MOL   C11434718   4.630   3.477   0.940 -0.3062  0.5362  0.8471
   83MOL   C11534719   4.776   3.426   0.933  0.7964 -0.0189 -0.3960
   83MOL   H11634720   4.095   3.784   1.120  0.0808  0.1480  0.2761
   83MOL   H11734721   4.105   3.612   1.141  2.1760 -0.8232  0.8000
   83MOL   H11834722   4.244   3.730   0.902  0.9672 -0.0515  3.0303
   83MOL   H11934723   4.413   3.417   0.677  1.7954  0.1579  0.4219
   83MOL   H12034724   4.403   3.357   0.838 -1.2748 -1.0659 -2.0143
   83MOL   H12134725   4.636   3.430   0.720  0.7911  1.2041 -0.5888
   83MOL   H12234726   4.591   3.593   0.765 -0.8545 -0.4633 -1.5985
   83MOL   H12334727   4.568   3.408   0.999 -1.1612 -0.1240 -0.7884
   83MOL   H12434728   4.592   3.567   0.988 -0.0073 -0.3154  2.7356
   83MOL   H12534729   4.838   3.481   0.862  0.0221 -0.5724 -1.5167
   83MOL   H12634730   4.774   3.322   0.902 -1.0863 -0.0471 -0.2348
   83MOL   H12734731   4.815   3.428   1.035  1.1500  2.0208 -0.5495
   83MOL   C12834732   4.031   3.657   0.873 -0.3016  0.3144  0.0678
   83MOL   C12934733   3.958   3.792   0.856  0.6439  0.6310  0.4950
   83MOL   C13034734   4.051   3.902   0.806 -0.1200 -0.4536  0.0252
   83MOL   O13134735   4.081   4.001   0.880 -0.3031  0.1479 -0.4205
   83MOL   O13234736   4.094   3.888   0.688  0.5571 -0.1992  0.5071
   83MOL   C13334737   4.172   3.990   0.622 -0.2518  0.2711  0.5945
   83MOL   C13434738   4.320   3.977   0.648  0.6926  0.1471  0.3940
   83MOL   C13534739   4.410   4.093   0.598 -0.7770 -0.3190  0.7262
   83MOL   C13634740   4.557   4.098   0.644  0.1232 -0.2790  0.0749
   83MOL   H13734741   3.972   3.579   0.920 -0.8073  1.9481  2.2452
   83MOL   H13834742   4.044   3.626   0.769  0.0315  0.9182 -0.0728
   83MOL   H13934743   3.930   3.838   0.951  0.8004  1.5329  0.1104
   83MOL   H14034744   4.137   4.089   0.654 -2.0423 -0.7477  1.8781
   83MOL   H14134745   4.150   3.984   0.516 -0.5844 -0.7530  0.7222
   83MOL   H14234746   4.343   3.970   0.754 -2.1574  2.2503  1.1939
   83MOL   H14334747   4.352   3.884   0.601 -2.3943 -0.4349 -0.7053
   83MOL   H14434748   4.364   4.189   0.621  0.9244  0.9649 -1.0878
   83MOL   H14534749   4.409   4.087   0.489 -0.0711 -2.6581  0.8054
   83MOL   H14634750   4.615   4.170   0.587  0.6698  1.8366  3.1709
   83MOL   H14734751   4.602   4.000   0.625  1.5441  0.6466 -1.5276
   83MOL   H14834752   4.570   4.114   0.751  1.9448 -0.6802 -0.0609
   83MOL   C14934753   3.832   3.779   0.771  0.0244  0.0279 -0.1039
   83MOL   C15034754   3.730   3.680   0.830  0.0513  0.4295  0.2678
   83MOL   C15134755   3.673   3.714   0.972  0.0338  0.1321 -0.1879
   83MOL   O15234756   3.566   3.776   0.984  0.4472  0.6734  0.6159
   83MOL   O15334757   3.751   3.688   1.073 -0.1444 -0.1496 -0.1836
   83MOL   C15434758   3.711   3.719   1.200 -0.7047 -0.3586  0.1190
   83MOL   C15534759   3.828   3.676   1.295  0.0911 -0.3684 -0.3992
   83MOL   C15634760   3.805   3.745   1.427 -0.0650 -0.0882  0.1798
   83MOL   C15734761   3.927   3.728   1.517  0.2851  0.6855  0.3291
   83MOL   H15834762   3.863   3.751   0.670  1.4888  1.0964  0.0244
   83MOL   H15934763   3.800   3.883   0.759 -1.0703 -0.0298  2.1401
   83MOL   H16034764   3.773   3.581   0.843  1.0965  0.6921 -1.0289
   83MOL   H16134765   3.620   3.663   1.223 -2.6109  1.9626 -1.4166
   83MOL   H16234766   3.688   3.825   1.203 -2.1837 -0.5651 -2.3519
   83MOL   H16334767   3.848   3.569   1.298 -0.1588 -0.3941  0.7872
   83MOL   H16434768   3.927   3.710   1.266 -0.2360  0.4708 -0.5260
   83MOL   H16534769   3.715   3.714   1.480 -0.1430  0.5905  0.4534
   83MOL   H16634770   3.795   3.853   1.413 -0.3044  0.1227  1.7742
   83MOL   H16734771   3.937   3.632   1.568  0.1993 -0.5156 -1.8513
   83MOL   H16834772   3.929   3.796   1.602  1.3557  0.1030  0.7783
   83MOL   H16934773   4.024   3.746   1.470 -0.6322  2.2943 -0.9726
   83MOL   C17034774   3.622   3.667   0.715  0.5466  0.2539 -0.6302
   83MOL   C17134775   3.652   3.567   0.610  0.4794  0.0893 -0.2159
   83MOL   C17234776   3.613   3.418   0.639  0.1951 -0.1090 -0.0253
   83MOL   O17334777   3.621   3.336   0.546  0.0709  0.0081 -0.1977
   83MOL   O17434778   3.591   3.393   0.772  0.2680 -0.1789 -0.0472
   83MOL   C17534779   3.545   3.266   0.810  0.3784  0.4662  0.4314
   83MOL   C17634780   3.545   3.242   0.958  0.5652 -0.2337 -1.1174
   83MOL   C17734781   3.450   3.126   1.004  0.2012  0.4877  0.3008
   83MOL   C17834782   3.467   3.078   1.144  0.4591 -0.4567 -0.4270
   83MOL   H17934783   3.612   3.761   0.659 -1.3771  0.1338 -0.5280
   83MOL   H18034784   3.528   3.655   0.769  0.6471  0.4040 -0.4215
   83MOL   H18134785   3.760   3.554   0.602  0.3346 -1.4887  0.2771
   83MOL   H18234786   3.596   3.185   0.758 -0.3113 -1.1043  2.1470
   83MOL   H18334787   3.440   3.262   0.781 -0.4821 -2.6156  3.6418
   83MOL   H18434788   3.647   3.231   0.995  0.2996  0.8972 -0.0119
   83MOL   H18534789   3.500   3.331   1.001  1.6706  0.5201 -1.5174
   83MOL   H18634790   3.466   3.036   0.943 -0.7180  0.7970 -0.3924
   83MOL   H18734791   3.346   3.156   0.995  0.4503  1.2580  0.0124
   83MOL   H18834792   3.380   3.020   1.175  0.6265 -0.4868 -0.0101
   83MOL   H18934793   3.466   3.169   1.204 -1.8449  0.5330 -1.9173
   83MOL   H19034794   3.559   3.024   1.166  1.2788  1.0818 -0.0327
   83MOL   C19134795   3.601   3.613   0.464 -1.4072 -0.2276  0.7263
   83MOL   C19234796   3.710   3.679   0.367 -0.2477  0.1702  0.3495
   83MOL   C19334797   3.767   3.816   0.409  0.0251  0.1089  0.4536
   83MOL   O19434798   3.890   3.835   0.409  0.0068  0.4608 -0.2105
   83MOL   O19534799   3.679   3.904   0.458 -0.5586 -0.2975  0.3677
   83MOL   C19634800   3.712   4.039   0.487  0.2657 -0.0428  0.6323
   83MOL   C19734801   3.664   4.128   0.370 -0.5018 -0.5488 -0.0425
   83MOL   C19834802   3.651   4.280   0.406  0.1958 -0.0835  0.2248
   83MOL   C19934803   3.617   4.374   0.291 -0.0873  0.4896  0.5956
   83MOL   H20034804   3.524   3.690   0.471 -1.1878  0.3235 -2.2943
   83MOL   H20134805   3.547   3.537   0.408  0.9433  0.4278 -2.5870
   83MOL   H20234806   3.664   3.703   0.271  0.9173 -0.9946 -0.5355
   83MOL   H20334807   3.818   4.043   0.511  0.8266 -1.2632 -1.4096
   83MOL   H20434808   3.659   4.068   0.577  0.4698 -2.2342  1.4973
   83MOL   H20534809   3.730   4.121   0.284 -0.0967  1.6860  0.0560
   83MOL   H20634810   3.564   4.091   0.344  0.3741 -1.2391 -2.5689
   83MOL   H20734811   3.754   4.308   0.429  0.0496 -0.9444  2.0792
   83MOL   H20834812   3.588   4.293   0.494 -0.4212 -0.3701 -0.1712
   83MOL   H20934813   3.584   4.472   0.323 -0.9915  0.1169  0.8095
   83MOL   H21034814   3.529   4.337   0.238 -0.2477  0.1909  1.0650
   83MOL   H21134815   3.692   4.377   0.211  0.0192 -1.3206  0.5848
   83MOL   C21234816   3.825   3.581   0.324 -0.2395  0.2281  0.6928
   83MOL   C21334817   3.770   3.461   0.243  0.0044 -0.1475  0.5361
   83MOL   C21434818   3.708   3.504   0.114  0.9723 -0.3457  0.2443
   83MOL   O21534819   3.776   3.491   0.011  0.6552 -0.1402 -0.3470
   83MOL   O21634820   3.579   3.551   0.125 -0.0186  0.2713  0.2239
   83MOL   C21734821   3.509   3.596   0.012 -0.2164  0.0054 -0.0338
   83MOL   C21834822   3.376   3.651   0.064 -0.4213  0.6668 -0.3060
   83MOL   C21934823   3.276   3.678   7.811  1.1893  0.9859  0.3036
   83MOL   C22034824   3.145   3.739   0.018 -0.0984 -0.1048  0.2538
   83MOL   H22134825   3.874   3.530   0.407  0.8278  0.3917  0.1748
   83MOL   H22234826   3.897   3.631   0.259 -1.9581 -0.9162 -2.2255
   83MOL   H22334827   3.685   3.431   0.304 -0.7434 -0.5700 -0.6968
   83MOL   H22434828   3.481   3.518   7.795 -1.9851  0.9866 -0.4432
   83MOL   H22534829   3.567   3.673   7.816 -0.6367  0.8002  0.6920
   83MOL   H22634830   3.332   3.581   0.135  0.0257 -0.4679 -1.1342
   83MOL   H22734831   3.404   3.739   0.124 -1.9633  0.6469  0.4543
   83MOL   H22834832   3.260   3.587   7.753  1.8491  1.4072 -0.5544
   83MOL   H22934833   3.327   3.744   7.741  1.6489 -0.8107 -1.0908
   83MOL   H23034834   3.099   3.681   0.099 -1.3757  1.9465  1.0438
   83MOL   H23134835   3.079   3.749   7.785 -0.1221 -0.2062  0.2606
   83MOL   H23234836   3.166   3.843   0.044 -1.0648  0.5232 -1.4074
   83MOL   C23334837   3.860   3.339   0.219  0.0197 -0.7167 -0.0296
   83MOL   C23434838   3.840   3.240   0.341 -0.0472 -0.2546 -0.9651
   83MOL   C23534839   3.740   3.133   0.294  0.3700 -0.0518  0.4857
   83MOL   O23634840   3.775   3.014   0.282 -0.1391  0.2627 -0.1091
   83MOL   O23734841   3.626   3.186   0.262  0.2349 -0.1573  0.1492
   83MOL   C23834842   3.526   3.107   0.213 -0.3495  0.5774 -0.1347
   83MOL   C23934843   3.415   3.192   0.153  0.3412 -0.3088 -0.5599
   83MOL   C24034844   3.332   3.278   0.258 -0.2850 -0.2026  0.0609
   83MOL   C24134845   3.199   3.323   0.198 -0.1634  0.1266 -0.5527
   83MOL   H24234846   3.962   3.377   0.207 -0.9399  2.7782  2.0402
   83MOL   H24334847   3.851   3.289   0.123 -0.8765 -0.8871  0.1418
   83MOL   H24434848   3.799   3.293   0.427 -0.0317  0.5069 -1.4212
   83MOL   H24534849   3.492   3.043   0.294 -0.0060  1.4100  0.6687
   83MOL   H24634850   3.563   3.038   0.137 -0.1020 -0.5171  0.9569
   83MOL   H24734851   3.448   3.257   0.073 -1.0664  0.4202 -0.5665
   83MOL   H24834852   3.341   3.121   0.116  0.5928 -0.0118 -1.6396
   83MOL   H24934853   3.387   3.361   0.304 -0.2655 -1.0635  1.6226
   83MOL   H25034854   3.316   3.209   0.341 -0.0947 -0.6568 -0.2822
   83MOL   H25134855   3.202   3.343   0.091  3.1181 -1.5844 -0.8285
   83MOL   H25234856   3.157   3.408   0.252  0.8024  0.2746 -0.0182
   83MOL   H25334857   3.134   3.236   0.196 -1.2563  0.9394 -0.9871
   83MOL   C25434858   3.974   3.184   0.393  0.0663  0.2376  0.4648
   83MOL   C25534859   4.061   3.274   0.479  0.1028  0.3316  0.0874
   83MOL   C25634860   4.011   3.299   0.618  0.1265  0.2767 -0.1021
   83MOL   O25734861   3.971   3.411   0.653 -0.4262 -0.1969  0.0121
   83MOL   O25834862   4.001   3.183   0.689 -0.0439  0.4477  0.0076
   83MOL   C25934863   3.903   3.176   0.786 -0.4386 -0.4497  1.0526
   83MOL   C26034864   3.945   3.077   0.897  0.3539  0.6546 -0.0087
   83MOL   C26134865   4.035   3.143   1.005  0.0510 -0.3319 -0.5804
   83MOL   C26234866   4.055   3.056   1.131 -0.2570 -0.1426 -0.0855
   83MOL   H26334867   4.032   3.152   0.306 -0.9859 -1.3950  0.3390
   83MOL   H26434868   3.958   3.093   0.451 -0.2821  0.4718  0.7371
   83MOL   H26534869   4.057   3.365   0.419 -0.8712  0.3812  0.2249
   83MOL   H26634870   3.815   3.130   0.741  0.0588  0.4074 -0.8417
   83MOL   H26734871   3.868   3.271   0.827 -1.9459 -0.5362  0.0386
   83MOL   H26834872   3.847   3.058   0.940  0.2784  2.3432  0.6353
   83MOL   H26934873   3.984   2.988   0.850 -0.5748  0.9140 -1.2899
   83MOL   H27034874   4.001   3.243   1.030 -0.4940 -0.5462 -0.4423
   83MOL   H27134875   4.138   3.162   0.977  0.1289 -0.1435 -0.1694
   83MOL   H27234876   3.968   3.010   1.179 -1.1702 -0.1932 -1.7517
   83MOL   H27334877   4.109   3.103   1.213 -1.5274  1.1483  0.0215
   83MOL   H27434878   4.110   2.966   1.103 -1.1330 -0.5932 -0.4029
   83MOL   C27534879   4.213   3.247   0.478  0.7141  0.6465 -0.3841
   83MOL   C27634880   4.271   3.117   0.539 -0.1725 -0.3639 -0.0326
   83MOL   C27734881   4.211   2.981   0.493  0.0653 -0.6373 -0.2231
   83MOL   O27834882   4.194   2.894   0.576 -0.6255  0.5009  0.0554
   83MOL   O27934883   4.189   2.971   0.357 -0.5397  0.4224 -0.1790
   83MOL   C28034884   4.147   2.849   0.306  0.4890  0.3101  0.7594
   83MOL   C28134885   4.261   2.771   0.228  0.3332  0.0966  0.0778
   83MOL   C28234886   4.201   2.648   0.159  0.1818  0.0402  0.4564
   83MOL   C28334887   4.291   2.557   0.078  0.0851  0.2715  0.7838
   83MOL   H28434888   4.264   3.327   0.532  3.3300 -0.9837 -0.3600
   83MOL   H28534889   4.236   3.249   0.372 -0.0920 -0.1437 -0.5837
   83MOL   H28634890   4.254   3.108   0.646 -1.3951  0.4289 -0.1419
   83MOL   H28734891   4.064   2.860   0.236 -1.3564 -1.9757  2.4772
   83MOL   H28834892   4.101   2.784   0.380 -2.6711  0.3983 -1.0720
   83MOL   H28934893   4.296   2.838   0.149 -1.9508  1.1892 -0.0691
   83MOL   H29034894   4.331   2.746   0.308 -0.7256 -1.9818  0.3809
   83MOL   H29134895   4.129   2.696   0.092 -1.6788 -0.9597  1.7111
   83MOL   H29234896   4.146   2.589   0.232  0.6997  0.1349  0.9249
   83MOL   H29334897   4.338   2.484   0.143  1.0100 -0.3510 -0.5486
   83MOL   H29434898   4.353   2.616   0.010 -0.4521  0.5706  0.5441
   83MOL   H29534899   4.229   2.501   0.009 -0.6101  2.0390 -0.0709
   83MOL   C29634900   4.426   3.103   0.518  0.0119  0.2511  0.2826
   83MOL   C29734901   4.504   3.009   0.617 -0.1632 -0.7650 -0.0742
   83MOL   C29834902   4.516   2.869   0.563 -0.6159 -0.3895  0.0909
   83MOL   O29934903   4.550   2.846   0.448  0.1835 -0.3160 -0.3521
   83MOL   O30034904   4.481   2.776   0.646 -0.0127  0.2322  0.4184
   83MOL   C30134905   4.485   2.639   0.620  0.2970  0.4342  0.0095
   83MOL   C30234906   4.354   2.569   0.580 -0.2172 -0.4451 -0.4126
   83MOL   C30334907   4.387   2.424   0.549 -0.2122 -0.2790 -0.2512
   83MOL   C30434908   4.265   2.342   0.519 -0.0049  0.0411 -0.1575
   83MOL   H30534909   4.460   3.204   0.542 -0.5124  0.1314  1.5598
   83MOL   H30634910   4.453   3.085   0.414 -0.0948 -2.8703  0.7489
   83MOL   H30734911   4.444   2.996   0.707 -1.0063 -1.7889 -0.7739
   83MOL   H30834912   4.533   2.585   0.702 -0.3156  0.1648  0.1975
   83MOL   H30934913   4.557   2.620   0.540  0.2365  1.6779 -0.3446
   83MOL   H31034914   4.286   2.583   0.664 -0.3561 -0.4147 -0.5314
   83MOL   H31134915   4.300   2.622   0.502  1.0800 -0.2536 -1.2038
   83MOL   H31234916   4.445   2.381   0.631  1.9325 -1.1308 -2.1643
   83MOL   H31334917   4.445   2.418   0.457 -0.3423  1.4206 -0.4591
   83MOL   H31434918   4.230   2.362   0.417  0.9269  1.9218 -0.1253
   83MOL   H31534919   4.185   2.367   0.588  1.0944  2.9071  0.1305
   83MOL   H31634920   4.292   2.237   0.533 -1.3826 -0.4546 -1.0460
   83MOL   C31734921   4.619   3.091   0.676 -1.2376  0.0415 -0.1022
   83MOL   C31834922   4.741   3.094   0.585 -0.3415  0.2430  0.8542
   83MOL   C31934923   4.739   3.210   0.479  0.3357  0.3000 -0.2860
   83MOL   O32034924   4.766   3.329   0.508 -0.0553  0.5423  0.0284
   83MOL   O32134925   4.708   3.167   0.356  1.2747 -0.3290  0.2827
   83MOL   C32234926   4.695   3.258   0.250 -0.5157 -0.1721 -0.3720
   83MOL   C32334927   4.752   3.185   0.123 -0.2294  0.7586 -0.2735
   83MOL   C32434928   4.667   3.067   0.077 -0.2096  0.5758 -0.3203
   83MOL   C32534929   4.725   3.001   7.812  0.3072 -0.1305  0.0299
   83MOL   H32634930   4.647   3.031   0.763 -0.2655 -1.1462 -1.2123
   83MOL   H32734931   4.589   3.181   0.729 -2.2639  0.9383 -2.1774
   83MOL   H32834932   4.744   3.017   0.508 -0.5040  0.9665  0.1143
   83MOL   H32934933   4.754   3.347   0.269  0.2526 -0.9936  1.2305
   83MOL   H33034934   4.595   3.295   0.228 -0.0401  1.0708 -0.4677
   83MOL   H33134935   4.758   3.251   0.036  0.9648 -0.8145 -1.4067
   83MOL   H33234936   4.855   3.151   0.136  0.1823  2.4018  1.1253
   83MOL   H33334937   4.563   3.097   0.067  0.2025  0.6788 -4.9311
   83MOL   H33434938   4.669   2.998   0.162  3.8548  0.9601  0.0392
   83MOL   H33534939   4.827   2.966   7.830  0.9791  1.9334  0.3750
   83MOL   H33634940   4.737   3.072   7.730 -0.6151 -0.6318 -0.5544
   83MOL   H33734941   4.667   2.910   7.792 -0.7551  0.9011 -1.6994
   83MOL   C33834942   4.874   3.099   0.669  0.2498  0.5317 -0.1919
   83MOL   C33934943   4.905   2.965   0.731  0.2302 -0.0754  0.2963
   83MOL   C34034944   4.966   2.867   0.637 -0.6214 -0.4603 -0.4432
   83MOL   O34134945   5.085   2.840   0.656  0.6838 -0.0030 -0.4475
   83MOL   O34234946   4.881   2.811   0.543 -0.3704 -0.1996  0.2326
   83MOL   C34334947   4.948   2.718   0.457 -0.1586 -0.2922  0.2153
   83MOL   C34434948   4.846   2.645   0.362 -0.1912 -0.0040 -0.1480
   83MOL   C34534949   4.823   2.724   0.241 -0.3124 -0.2067  0.1416
   83MOL   C34634950   4.744   2.646   0.138  0.4212  0.0749  0.1295
   83MOL   H34734951   4.868   3.172   0.750  0.1474 -1.2452  1.4420
   83MOL   H34834952   4.962   3.115   0.606  1.1970 -2.6316  0.1963
   83MOL   H34934953   4.814   2.915   0.763  0.2225 -0.2349  0.0256
   83MOL   H35034954   5.003   2.644   0.515 -0.6040  1.4103  2.8449
   83MOL   H35134955   5.030   2.769   0.406 -0.7211 -0.4134 -0.8408
   83MOL   H35234956   4.900   2.556   0.327 -0.1585 -0.8606  2.0397
   83MOL   H35334957   4.749   2.617   0.401 -0.2340  0.4948  0.0978
   83MOL   H35434958   4.916   2.764   0.201 -0.9135  0.0716 -1.0018
   83MOL   H35534959   4.765   2.813   0.268 -1.2864 -0.1335 -2.0819
   83MOL   H35634960   4.693   2.560   0.181  0.4543 -0.8333 -1.5930
   83MOL   H35734961   4.812   2.608   0.062  3.2629 -0.9477  3.0670
   83MOL   H35834962   4.660   2.707   0.104  0.8596 -0.3282 -1.7376
   83MOL   C35934963   4.989   2.996   0.855 -0.5680  0.7361  0.2563
   83MOL   C36034964   5.028   2.880   0.949 -0.0532  0.1076 -1.0419
   83MOL   C36134965   5.144   2.926   1.046  0.2266  0.1179  0.1543
   83MOL   O36234966   5.235   2.848   1.072 -0.2523 -0.6635 -0.7745
   83MOL   O36334967   5.131   3.049   1.099  0.5032  0.1588  0.6420
   83MOL   C36434968   5.211   3.084   1.208  0.0987  0.0671  0.4758
   83MOL   C36534969   5.330   3.167   1.147 -0.8127 -0.0267  0.8353
   83MOL   C36634970   5.404   3.242   1.255 -0.3260 -0.4080  1.3016
   83MOL   C36734971   5.503   3.349   1.205 -0.1836 -0.3290  0.1081
   83MOL   H36834972   4.942   3.074   0.915  0.8146  0.2441  2.0541
   83MOL   H36934973   5.077   3.050   0.820 -0.3023 -0.1065 -0.3655
   83MOL   H37034974   5.073   2.801   0.889  1.2108  0.8294 -1.0765
   83MOL   H37134975   5.250   3.003   1.270  0.5092  0.3277  0.5616
   83MOL   H37234976   5.153   3.152   1.270 -0.3167 -0.2854  0.4780
   83MOL   H37334977   5.399   3.109   1.086 -2.9020  0.3525 -2.0578
   83MOL   H37434978   5.297   3.239   1.072 -1.3561  0.6688  1.7308
   83MOL   H37534979   5.437   3.166   1.326  1.2947 -0.9248  0.0171
   83MOL   H37634980   5.334   3.302   1.313 -0.5876 -0.4011  0.9786
   83MOL   H37734981   5.551   3.404   1.287 -0.8807  1.5583 -0.7141
   83MOL   H37834982   5.451   3.414   1.135 -0.0148  1.7143  1.8118
   83MOL   H37934983   5.590   3.306   1.156 -1.5158  1.6981 -4.2615
   83MOL   C38034984   4.909   2.833   1.035 -0.6866 -0.2758  0.2408
   83MOL   C38134985   4.910   2.678   1.039  0.4449 -0.1196  0.3966
   83MOL   C38234986   4.827   2.619   1.150  0.1979 -1.0338  0.6625
   83MOL   O38334987   4.713   2.653   1.158 -0.0982 -0.2367  0.0159
   83MOL   O38434988   4.886   2.531   1.227 -0.0161 -0.1920  0.2853
   83MOL   C38534989   4.818   2.464   1.327  0.5622 -0.3193 -0.4859
   83MOL   C38634990   4.926   2.370   1.383  0.6635 -0.3716  0.0212
   83MOL   C38734991   4.880   2.266   1.491 -0.6209  0.2996  0.6199
   83MOL   C38834992   4.815   2.151   1.422 -0.0866  0.3084 -0.1183
   83MOL   H38934993   4.809   2.864   1.004 -0.1764  1.3041  0.1527
   83MOL   H39034994   4.934   2.875   1.132  3.1147 -0.5795 -0.5126
   83MOL   H39134995   5.012   2.650   1.065  0.2904  0.6262  1.8223
   83MOL   H39234996   4.732   2.408   1.290 -2.3439  2.7150  1.3311
   83MOL   H39334997   4.769   2.528   1.401  1.2264  2.0687 -2.0460
   83MOL   H39434998   4.989   2.319   1.312  0.6126  0.3685 -0.5619
   83MOL   H39534999   4.996   2.432   1.439  1.0983 -1.5084  0.7664
   83MOL   H39635000   4.806   2.314   1.555 -1.1040  0.6609 -0.1929
   83MOL   H39735001   4.954   2.227   1.561  0.6300  1.2139 -0.1627
   83MOL   H39835002   4.751   2.193   1.345 -0.5440 -1.0907 -0.5138
   83MOL   H39935003   4.752   2.097   1.493  1.5558 -1.6519 -0.0953
   83MOL   H40035004   4.885   2.082   1.375 -0.4488  0.2991 -0.6487
   83MOL   C40135005   4.872   2.613   0.902 -0.7895  0.7280 -0.2266
   83MOL   C40235006   4.852   2.462   0.901  0.3606 -0.2380 -0.5418
   83MOL   C40335007   4.793   2.413   0.771 -0.7173 -0.2037 -0.5688
   83MOL   O40435008   4.678   2.380   0.765 -0.6504  0.3552  0.7754
   83MOL   O40535009   4.879   2.404   0.665 -0.0548 -0.0482  0.8007
   83MOL   C40635010   4.835   2.339   0.548  0.3568  0.1750 -0.2517
   83MOL   C40735011   4.954   2.280   0.476 -0.2764 -0.0659  0.2439
   83MOL   C40835012   5.035   2.181   0.558 -0.6128  0.6659  0.4749
   83MOL   C40935013   5.151   2.121   0.480 -0.1335  0.3489  0.0692
   83MOL   H41035014   4.949   2.645   0.831 -0.0954  0.7383  0.5272
   83MOL   H41135015   4.780   2.665   0.876  0.7475  2.0626 -3.2171
   83MOL   H41235016   4.774   2.430   0.971  0.8521 -0.3784 -0.0526
   83MOL   H41335017   4.787   2.407   0.477  0.2341  0.0284 -0.3100
   83MOL   H41435018   4.764   2.259   0.568  0.9491 -0.2884 -0.0123
   83MOL   H41535019   4.912   2.219   0.396  0.3950  1.2405 -1.1338
   83MOL   H41635020   5.005   2.360   0.424  0.9661 -0.2654  1.1294
   83MOL   H41735021   4.974   2.095   0.582  0.0257 -0.1384 -0.7449
   83MOL   H41835022   5.063   2.229   0.651  1.2630  3.0027 -1.2336
   83MOL   H41935023   5.224   2.190   0.438  0.8061 -0.6443  0.0511
   83MOL   H42035024   5.109   2.061   0.400  1.2409  1.5734 -1.6107
   83MOL   H42135025   5.194   2.049   0.549  0.9433  0.8071 -0.1038
   83MOL   H42235026   4.937   2.400   0.931 -0.8534 -0.7872  1.8738
   84MOL     C135027   6.316   5.505   5.035  0.4588 -0.6114  0.1187
   84MOL     C235028   6.445   5.486   4.953 -0.3472  0.7827 -0.0315
   84MOL     C335029   6.561   5.444   5.038 -0.2622  0.0805 -0.4344
   84MOL     O435030   6.622   5.335   5.017 -0.1668  0.1720  0.2533
   84MOL     O535031   6.585   5.523   5.140 -0.6094 -0.4714 -0.2490
   84MOL     C635032   6.711   5.501   5.208  0.7495 -0.3877  0.4709
   84MOL     C735033   6.834   5.548   5.132 -0.5320 -0.3596 -0.4492
   84MOL     C835034   6.956   5.523   5.223  0.3442  0.2900  0.5553
   84MOL     C935035   7.084   5.494   5.148  0.1334 -0.3222 -0.2171
   84MOL    H1035036   6.243   5.537   4.961  2.0700  0.8362 -0.8778
   84MOL    H1135037   6.259   5.419   5.069 -2.6216  0.3677 -2.2424
   84MOL    H1235038   6.472   5.585   4.916 -0.6098  1.6133  1.9330
   84MOL    H1335039   6.724   5.394   5.223 -4.8797 -0.9182  2.5277
   84MOL    H1435040   6.710   5.547   5.307 -0.4174 -2.2448  1.3394
   84MOL    H1535041   6.851   5.508   5.032  1.0724 -1.3974  0.2366
   84MOL    H1635042   6.828   5.656   5.118 -0.3530 -0.3597 -0.5244
   84MOL    H1735043   6.941   5.441   5.294  1.3540  0.3222  0.8195
   84MOL    H1835044   6.975   5.614   5.279 -0.4501  0.9414 -0.2216
   84MOL    H1935045   7.161   5.465   5.220 -1.4873 -0.4634  1.4826
   84MOL    H2035046   7.114   5.591   5.108 -0.7258  0.9065  2.0309
   84MOL    H2135047   7.080   5.419   5.070 -0.2652  0.5971 -1.0878
   84MOL    H2235048   6.320   5.580   5.113 -0.9103  0.6324 -0.9726
   84MOL    C2335049   6.416   5.393   4.833  0.1084 -0.3642 -0.1769
   84MOL    C2435050   6.309   5.427   4.733 -0.0153  0.0134  0.1959
   84MOL    C2535051   6.327   5.576   4.677 -0.8201  0.1039  0.4884
   84MOL    O2635052   6.434   5.639   4.683  0.1041 -0.3158  0.0312
   84MOL    O2735053   6.218   5.620   4.616 -0.1709 -0.2477  0.7485
   84MOL    C2835054   6.215   5.749   4.560 -0.1072 -0.0566  0.2768
   84MOL    C2935055   6.195   5.859   4.668  0.3811 -0.1092 -0.3610
   84MOL    C3035056   6.135   5.986   4.604  0.0076  0.8909  0.4134
   84MOL    C3135057   6.095   6.102   4.692 -0.3302 -0.1810  0.1734
   84MOL    H3235058   6.403   5.294   4.878 -2.0164  0.4272  1.0220
   84MOL    H3335059   6.512   5.392   4.782  0.6032  2.5593  0.6291
   84MOL    H3435060   6.214   5.422   4.787  0.0468 -1.9965  0.1720
   84MOL    H3535061   6.125   5.754   4.499 -0.5405 -0.1365  0.9071
   84MOL    H3635062   6.309   5.764   4.507 -0.0214  1.6263  0.8821
   84MOL    H3735063   6.115   5.824   4.733  1.3476 -0.8946  0.4307
   84MOL    H3835064   6.288   5.881   4.721  0.4927  1.0751 -1.0304
   84MOL    H3935065   6.049   5.968   4.539 -1.6933 -2.0238  3.3281
   84MOL    H4035066   6.208   6.026   4.534 -0.3854  0.6857 -0.1123
   84MOL    H4135067   6.016   6.073   4.762  0.9914 -0.9817  1.3464
   84MOL    H4235068   6.046   6.174   4.627 -0.3663 -0.6368 -0.3082
   84MOL    H4335069   6.174   6.159   4.741  0.7788  0.8033 -2.7163
   84MOL    C4435070   6.311   5.337   4.601  0.1641 -0.1273 -0.7683
   84MOL    C4535071   6.248   5.197   4.637  0.0301  0.5205  0.3451
   84MOL    C4635072   6.093   5.210   4.642 -0.2409  0.7071 -0.6221
   84MOL    O4735073   6.033   5.195   4.749  0.2497 -0.6873  0.5577
   84MOL    O4835074   6.036   5.222   4.524 -0.5891 -0.2602 -0.2359
   84MOL    C4935075   5.897   5.228   4.516  0.8151  0.0632 -0.4813
   84MOL    C5035076   5.856   5.145   4.393  0.7375 -0.0592 -0.4744
   84MOL    C5135077   5.932   5.177   4.260 -0.0038  0.2813  0.0486
   84MOL    C5235078   5.884   5.101   4.135  0.2325 -0.5302  0.2683
   84MOL    H5335079   6.414   5.332   4.565  0.0390 -2.8450 -0.8720
   84MOL    H5435080   6.259   5.394   4.524 -2.1494 -0.4336  0.5107
   84MOL    H5535081   6.272   5.167   4.739  1.3849  0.9209  0.1565
   84MOL    H5635082   5.866   5.332   4.502 -4.0323 -1.2454 -0.4069
   84MOL    H5735083   5.851   5.195   4.609  0.3507  0.9591 -0.3812
   84MOL    H5835084   5.877   5.040   4.412  0.8068 -0.2771 -1.7296
   84MOL    H5935085   5.748   5.158   4.397  0.6154 -0.5703 -1.8197
   84MOL    H6035086   6.035   5.143   4.273  0.5467  1.8333 -0.2362
   84MOL    H6135087   5.933   5.285   4.249  0.6376  0.1940 -0.7170
   84MOL    H6235088   5.942   5.139   4.051 -3.5921  1.8125 -1.3907
   84MOL    H6335089   5.778   5.121   4.124  0.2368 -2.0100 -3.0588
   84MOL    H6435090   5.897   4.992   4.131  1.5345 -0.3409 -1.0723
   84MOL    C6535091   6.295   5.086   4.544 -0.6526 -0.4249  0.0934
   84MOL    C6635092   6.446   5.050   4.571  0.7077 -0.4440 -0.5578
   84MOL    C6735093   6.469   4.973   4.704 -0.1270 -0.5921  0.3467
   84MOL    O6835094   6.462   4.853   4.713  0.0085  0.3336  0.2864
   84MOL    O6935095   6.487   5.064   4.806 -0.3703 -0.0541 -0.2085
   84MOL    C7035096   6.530   5.025   4.937 -0.4172 -0.5667  0.7981
   84MOL    C7135097   6.428   4.943   5.012 -0.2233  0.3545  0.2397
   84MOL    C7235098   6.471   4.909   5.158  0.1177  0.1709  0.4131
   84MOL    C7335099   6.352   4.861   5.241 -0.1137  0.1107 -0.7372
   84MOL    H7435100   6.278   5.114   4.440 -0.4750 -1.6621 -0.2699
   84MOL    H7535101   6.227   5.007   4.576 -0.0922  0.7026  4.3660
   84MOL    H7635102   6.496   5.146   4.585  1.3411 -0.9245  0.5777
   84MOL    H7735103   6.552   5.111   5.001  0.9812 -0.3591  0.0701
   84MOL    H7835104   6.618   4.962   4.925 -1.2956 -1.1824 -3.1336
   84MOL    H7935105   6.338   5.004   5.018 -0.7211 -0.4726  1.3989
   84MOL    H8035106   6.390   4.857   4.958 -1.3315 -0.4721  2.2667
   84MOL    H8135107   6.490   5.009   5.197 -2.9062  1.4434 -1.2307
   84MOL    H8235108   6.566   4.857   5.168 -0.1372 -0.2948  0.4341
   84MOL    H8335109   6.319   4.767   5.197 -0.4404  0.4747 -1.2722
   84MOL    H8435110   6.269   4.931   5.247 -1.1511 -0.9882 -1.9125
   84MOL    H8535111   6.381   4.841   5.344  1.8684 -0.7884 -1.4304
   84MOL    C8635112   6.516   4.969   4.452  0.0105  0.7193 -0.3662
   84MOL    C8735113   6.542   5.044   4.322 -0.3344 -0.2211  0.2932
   84MOL    C8835114   6.632   5.160   4.342  0.1866 -0.8915 -0.3294
   84MOL    O8935115   6.755   5.149   4.343  0.3468 -0.0425  0.5141
   84MOL    O9035116   6.563   5.282   4.354  0.1703 -0.7579  0.1545
   84MOL    C9135117   6.643   5.403   4.373 -0.2242 -0.1937  0.4000
   84MOL    C9235118   6.559   5.519   4.317  0.4088 -0.0665 -0.0822
   84MOL    C9335119   6.620   5.663   4.314  0.1168  0.1842  1.1645
   84MOL    C9435120   6.545   5.763   4.222 -0.0932 -1.0217 -0.0436
   84MOL    H9535121   6.456   4.880   4.429 -0.2574  0.6794  0.4467
   84MOL    H9635122   6.613   4.937   4.489 -0.8134  1.0557  2.1847
   84MOL    H9735123   6.447   5.090   4.294  0.9790  1.9155 -0.7851
   84MOL    H9835124   6.731   5.400   4.308 -1.3376  0.9328 -1.2016
   84MOL    H9935125   6.668   5.416   4.478  0.0914  2.0993  0.0554
   84MOL   H10035126   6.523   5.496   4.218  1.3728 -1.0778 -0.2124
   84MOL   H10135127   6.468   5.531   4.376  1.4417  0.6231  1.4127
   84MOL   H10235128   6.723   5.671   4.281 -0.3697  0.8692 -0.1872
   84MOL   H10335129   6.622   5.702   4.416 -3.2471  1.0461  0.9698
   84MOL   H10435130   6.442   5.779   4.253  0.2134  1.5033 -0.1779
   84MOL   H10535131   6.540   5.734   4.117 -2.0535 -1.2523  0.0888
   84MOL   H10635132   6.592   5.862   4.221 -2.4706  0.1637 -2.5583
   84MOL   C10735133   6.582   4.942   4.211  0.4412  0.2134  0.4867
   84MOL   C10835134   6.474   4.858   4.147 -0.0596 -0.4007 -0.0294
   84MOL   C10935135   6.355   4.940   4.097  0.5283  0.6023 -0.4193
   84MOL   O11035136   6.255   4.958   4.166  0.3297  0.9084  0.5038
   84MOL   O11135137   6.380   5.005   3.985  0.0354 -0.5173  0.4313
   84MOL   C11235138   6.284   5.078   3.917  0.7395 -0.2957 -0.0144
   84MOL   C11335139   6.308   5.077   3.767  0.0453 -0.1242  0.1239
   84MOL   C11435140   6.234   5.176   3.687 -0.1770 -0.3643  0.7031
   84MOL   C11535141   6.249   5.163   3.541  0.5095  0.4772 -0.0871
   84MOL   H11635142   6.663   4.880   4.249  0.2879 -1.6318 -2.0517
   84MOL   H11735143   6.624   5.000   4.128 -0.4392  0.9586  0.5449
   84MOL   H11835144   6.429   4.797   4.225 -0.8449  1.4314  0.9679
   84MOL   H11935145   6.287   5.184   3.944  1.9976 -0.4062  0.3166
   84MOL   H12035146   6.184   5.041   3.938  1.0784 -1.5327 -0.5405
   84MOL   H12135147   6.415   5.091   3.753 -0.1354  2.3333  0.9699
   84MOL   H12235148   6.285   4.977   3.730  0.5566  0.3521 -1.5384
   84MOL   H12335149   6.281   5.272   3.709 -1.1108 -0.1341  1.7561
   84MOL   H12435150   6.127   5.168   3.707 -0.5368  0.7467 -0.7128
   84MOL   H12535151   6.191   5.234   3.483 -0.4439 -0.4199 -0.2432
   84MOL   H12635152   6.219   5.063   3.511  1.4056  0.4001 -0.7311
   84MOL   H12735153   6.349   5.181   3.502 -0.0739 -1.2236 -2.4534
   84MOL   C12835154   6.528   4.759   4.038 -0.4012  0.4363 -0.3100
   84MOL   C12935155   6.605   4.641   4.098 -0.1220 -0.3745  0.2220
   84MOL   C13035156   6.527   4.571   4.212  0.5775  0.1285 -0.4091
   84MOL   O13135157   6.413   4.526   4.197 -0.2963  0.7451 -0.1042
   84MOL   O13235158   6.604   4.559   4.324 -0.0629  0.1869 -0.1850
   84MOL   C13335159   6.548   4.501   4.447 -0.0109  0.1537 -0.3533
   84MOL   C13435160   6.650   4.493   4.558 -0.0097  0.1212  0.4088
   84MOL   C13535161   6.753   4.383   4.533 -0.5213 -0.4539  0.6810
   84MOL   C13635162   6.855   4.381   4.646  0.5271  0.2779  0.0797
   84MOL   H13735163   6.587   4.817   3.967 -1.3057  1.6718 -0.0624
   84MOL   H13835164   6.440   4.725   3.983 -0.8299 -0.3757  0.8654
   84MOL   H13935165   6.697   4.683   4.139 -0.6366  1.9425 -0.9645
   84MOL   H14035166   6.502   4.403   4.443 -0.5538  0.4939 -3.7188
   84MOL   H14135167   6.467   4.567   4.478 -1.4216 -0.6101 -2.3060
   84MOL   H14235168   6.700   4.590   4.558  1.0295 -0.4171  1.2230
   84MOL   H14335169   6.602   4.490   4.656  0.0092 -1.1558  0.3831
   84MOL   H14435170   6.799   4.400   4.435 -1.4786 -1.8160 -0.0162
   84MOL   H14535171   6.704   4.287   4.522 -0.8609 -0.1885 -0.1961
   84MOL   H14635172   6.934   4.312   4.615  0.9531  1.3486 -1.2467
   84MOL   H14735173   6.801   4.336   4.729  2.0178 -0.5439  0.6211
   84MOL   H14835174   6.880   4.481   4.679  2.8682 -0.3242  0.2533
   84MOL   C14935175   6.646   4.545   3.991  0.5648  0.1314 -0.1177
   84MOL   C15035176   6.772   4.454   4.016  0.5013  0.0559  0.4932
   84MOL   C15135177   6.749   4.336   4.109 -0.4038  0.2619 -1.4314
   84MOL   O15235178   6.636   4.291   4.132  0.0574  0.0755  0.3338
   84MOL   O15335179   6.858   4.302   4.170 -0.6715 -0.0974 -0.2987
   84MOL   C15435180   6.866   4.187   4.249  0.0543  0.4997  0.1510
   84MOL   C15535181   7.014   4.169   4.292 -0.6985  0.3200  0.3347
   84MOL   C15635182   7.108   4.124   4.180  0.4403 -0.2010 -0.1921
   84MOL   C15735183   7.255   4.126   4.235 -0.2010  0.2023  0.2195
   84MOL   H15835184   6.667   4.619   3.913  0.5731  0.9039  0.6088
   84MOL   H15935185   6.570   4.482   3.945  1.3534 -2.7917  2.4367
   84MOL   H16035186   6.843   4.513   4.073  1.2278 -0.7374  0.4230
   84MOL   H16135187   6.844   4.103   4.183  0.3753 -0.2461  0.9660
   84MOL   H16235188   6.799   4.180   4.334  1.0437 -1.7405  0.8017
   84MOL   H16335189   7.052   4.251   4.354 -1.3278  1.1194 -0.3192
   84MOL   H16435190   7.009   4.083   4.360  2.4393 -1.5650 -1.7005
   84MOL   H16535191   7.093   4.184   4.090  2.3925 -1.7061 -1.5582
   84MOL   H16635192   7.084   4.020   4.159  0.5274  0.2247 -2.5063
   84MOL   H16735193   7.282   4.034   4.287 -1.3395  0.1457  0.7267
   84MOL   H16835194   7.264   4.190   4.323 -0.6311 -0.8539  1.0378
   84MOL   H16935195   7.324   4.154   4.154 -2.6531 -0.5370 -2.1884
   84MOL   C17035196   6.836   4.410   3.880 -0.2820  0.1131  0.0462
   84MOL   C17135197   6.922   4.514   3.810 -0.1041  0.4954 -0.4744
   84MOL   C17235198   7.051   4.551   3.881 -0.4066 -0.2093  0.8014
   84MOL   O17335199   7.163   4.525   3.837  0.1239 -0.2559  0.3564
   84MOL   O17435200   7.032   4.625   3.984 -0.0134 -0.6789 -0.1689
   84MOL   C17535201   7.130   4.650   4.082 -0.6899 -0.4387 -0.2305
   84MOL   C17635202   7.100   4.584   4.218 -0.2836  0.0940  0.0529
   84MOL   C17735203   6.980   4.649   4.293  0.4059  0.4817 -0.8749
   84MOL   C17835204   6.983   4.629   4.448 -0.2136  0.0578 -0.3757
   84MOL   H17935205   6.749   4.392   3.815  0.3377 -1.8300 -0.2650
   84MOL   H18035206   6.899   4.324   3.899  0.7822  1.1288  1.1569
   84MOL   H18135207   6.875   4.612   3.803  2.6191  1.8237 -0.5407
   84MOL   H18235208   7.122   4.759   4.090 -1.8437 -0.5996  1.1050
   84MOL   H18335209   7.232   4.633   4.049  0.3300  2.0504  1.4958
   84MOL   H18435210   7.079   4.480   4.193 -2.9802  0.5413  0.3268
   84MOL   H18535211   7.185   4.591   4.286  0.5868  1.0290 -1.1187
   84MOL   H18635212   6.888   4.625   4.241 -0.4223  0.0834  0.7263
   84MOL   H18735213   6.993   4.755   4.277 -1.8361  0.6892 -1.3751
   84MOL   H18835214   6.913   4.700   4.492 -1.3254 -0.9097 -0.5709
   84MOL   H18935215   7.081   4.654   4.490  1.1209 -1.7351 -2.2911
   84MOL   H19035216   6.969   4.525   4.477  0.1927  0.1289  0.0885
   84MOL   C19135217   6.957   4.493   3.663  0.7305  0.7795 -0.6405
   84MOL   C19235218   6.846   4.486   3.559  0.0773 -0.7177  0.6472
   84MOL   C19335219   6.764   4.609   3.558  0.8116  0.0124  0.1203
   84MOL   O19435220   6.802   4.714   3.511 -1.0164  0.3676  0.3977
   84MOL   O19535221   6.634   4.589   3.609  0.1064 -0.5794  0.4907
   84MOL   C19635222   6.544   4.701   3.622  0.4878  0.2939 -0.2711
   84MOL   C19735223   6.441   4.693   3.506 -0.1679 -0.5602  0.2565
   84MOL   C19835224   6.349   4.811   3.488 -0.2999  0.2541 -0.0317
   84MOL   C19935225   6.239   4.802   3.382 -0.1558 -0.8068  0.2672
   84MOL   H20035226   7.023   4.406   3.657 -0.4976 -0.1900 -0.3017
   84MOL   H20135227   7.018   4.577   3.629  0.8102  1.3126  0.8168
   84MOL   H20235228   6.781   4.407   3.596  0.2669 -2.4252 -2.4800
   84MOL   H20335229   6.589   4.801   3.615 -1.3264  1.2408  1.2069
   84MOL   H20435230   6.491   4.690   3.716  0.0260  1.0375 -0.4395
   84MOL   H20535231   6.497   4.692   3.412  0.8008  0.1201  0.8147
   84MOL   H20635232   6.382   4.602   3.512  1.0248 -1.1925  3.0612
   84MOL   H20735233   6.409   4.902   3.478 -2.0981  1.5814  0.9289
   84MOL   H20835234   6.292   4.818   3.580  0.9195 -2.9222  1.0132
   84MOL   H20935235   6.168   4.721   3.398  1.2309 -1.8497  1.2453
   84MOL   H21035236   6.292   4.770   3.292  2.1181  1.7223  0.6566
   84MOL   H21135237   6.193   4.901   3.382 -1.6473 -1.4893 -0.4442
   84MOL   C21235238   6.905   4.462   3.417 -0.3312 -0.2547 -0.0244
   84MOL   C21335239   6.802   4.471   3.300  0.3593  0.3623 -0.3749
   84MOL   C21435240   6.863   4.485   3.158 -0.5400 -0.1504  0.3995
   84MOL   O21535241   6.837   4.584   3.090  0.2835  0.0934 -0.2060
   84MOL   O21635242   6.939   4.379   3.122 -0.2206  0.1743 -0.1189
   84MOL   C21735243   6.963   4.357   2.981 -1.1113 -0.1875  0.1421
   84MOL   C21835244   6.924   4.217   2.932 -0.4516  0.2879  0.3726
   84MOL   C21935245   6.988   4.186   2.788 -0.3854 -0.8093  0.3395
   84MOL   C22035246   7.145   4.175   2.790  0.2786  0.5673 -0.0034
   84MOL   H22135247   6.965   4.371   3.411  0.1325 -0.0331  1.0834
   84MOL   H22235248   6.977   4.543   3.406  0.3052 -0.9765 -1.3138
   84MOL   H22335249   6.750   4.567   3.301  1.6293  1.1537 -3.7534
   84MOL   H22435250   7.070   4.365   2.962 -1.6955  2.3045 -2.4545
   84MOL   H22535251   6.913   4.424   2.911 -0.0403 -0.5182 -0.9499
   84MOL   H22635252   6.948   4.128   2.991  0.1335 -0.0560 -0.3643
   84MOL   H22735253   6.816   4.215   2.927 -0.5110  0.9183  1.4269
   84MOL   H22835254   6.957   4.260   2.715 -0.9208 -0.4272  0.9484
   84MOL   H22935255   6.950   4.086   2.770 -2.0501 -0.8024  3.4043
   84MOL   H23035256   7.193   4.268   2.761 -1.0819  0.3219 -3.2219
   84MOL   H23135257   7.183   4.108   2.714 -1.1314 -0.3649  0.1033
   84MOL   H23235258   7.177   4.132   2.885 -1.0777 -1.3136 -0.3701
   84MOL   C23335259   6.704   4.344   3.300  0.1330 -0.6191  0.3044
   84MOL   C23435260   6.554   4.369   3.309 -0.0574  0.1903 -0.5694
   84MOL   C23535261   6.515   4.459   3.190 -0.5141  0.7738 -0.3098
   84MOL   O23635262   6.450   4.559   3.204  0.0470  0.6956  0.3820
   84MOL   O23735263   6.557   4.416   3.072 -0.6480 -0.2003 -0.1394
   84MOL   C23835264   6.526   4.495   2.953 -0.0413  0.8287 -0.1640
   84MOL   C23935265   6.604   4.444   2.828 -0.1350 -0.0333 -0.1701
   84MOL   C24035266   6.605   4.538   2.706  0.2559 -0.0902  0.6494
   84MOL   C24135267   6.710   4.492   2.594 -1.1462 -0.1894  0.3332
   84MOL   H24235268   6.725   4.276   3.383  0.3377  0.6929  1.3526
   84MOL   H24335269   6.723   4.276   3.218  1.6329  0.1182  0.0320
   84MOL   H24435270   6.532   4.423   3.401  1.1577  1.5654 -1.0694
   84MOL   H24535271   6.574   4.593   2.961 -2.2190  1.7644  1.8725
   84MOL   H24635272   6.420   4.511   2.931 -0.9447 -1.4926  2.2965
   84MOL   H24735273   6.707   4.419   2.851 -0.1004  0.0496 -0.2343
   84MOL   H24835274   6.563   4.349   2.794 -1.8437  0.4780  0.3847
   84MOL   H24935275   6.646   4.630   2.748 -0.6888  0.7709 -0.2935
   84MOL   H25035276   6.505   4.554   2.665  0.0747  1.2499  1.5674
   84MOL   H25135277   6.811   4.474   2.628 -0.8939 -0.7825 -0.6772
   84MOL   H25235278   6.723   4.573   2.523  0.4184 -0.8035 -0.0948
   84MOL   H25335279   6.673   4.404   2.541 -1.0998 -1.3038  2.1222
   84MOL   C25435280   6.480   4.235   3.295 -0.0090  0.1347 -0.0027
   84MOL   C25535281   6.325   4.243   3.313  0.3870  0.5016  0.4544
   84MOL   C25635282   6.256   4.114   3.268  1.0850 -0.0869 -0.0311
   84MOL   O25735283   6.154   4.113   3.196 -0.6848 -0.0200 -0.2873
   84MOL   O25835284   6.309   4.005   3.312  0.2014 -0.4553  0.4393
   84MOL   C25935285   6.244   3.878   3.292 -0.5573 -0.7108 -0.0768
   84MOL   C26035286   6.267   3.800   3.425 -0.2564 -0.0861 -0.1753
   84MOL   C26135287   6.415   3.791   3.460  0.2208  0.0552  0.1705
   84MOL   C26235288   6.445   3.760   3.604  0.8660  0.2701  0.1075
   84MOL   H26335289   6.531   4.162   3.358  0.4125  0.5164  0.1051
   84MOL   H26435290   6.515   4.186   3.204  2.0641  0.8986  0.3432
   84MOL   H26535291   6.278   4.320   3.252  0.7099 -0.0781 -0.5500
   84MOL   H26635292   6.292   3.824   3.210 -0.3137  2.0809 -1.8255
   84MOL   H26735293   6.138   3.886   3.267 -0.2527  1.0489 -0.8339
   84MOL   H26835294   6.219   3.867   3.496 -1.3051 -0.4177 -0.5589
   84MOL   H26935295   6.215   3.704   3.428 -1.8916  0.7304 -1.2528
   84MOL   H27035296   6.466   3.885   3.438 -0.5774  0.9497  2.0092
   84MOL   H27135297   6.452   3.719   3.388 -0.2987  0.7080 -0.7507
   84MOL   H27235298   6.403   3.662   3.628  0.6478  0.4489  0.4806
   84MOL   H27335299   6.381   3.821   3.669  1.6040  0.0276  1.0872
   84MOL   H27435300   6.545   3.783   3.641  0.3931  2.0153  0.3378
   84MOL   C27535301   6.284   4.269   3.463 -0.3835  0.4697 -0.6974
   84MOL   C27635302   6.136   4.300   3.496 -0.3751  0.4544  0.6105
   84MOL   C27735303   6.134   4.300   3.651 -0.4989 -0.1876 -0.7869
   84MOL   O27835304   6.050   4.231   3.711  0.2261 -0.1355  0.3174
   84MOL   O27935305   6.215   4.390   3.713 -0.4977  0.1120 -0.4441
   84MOL   C28035306   6.201   4.421   3.852 -0.0017 -0.2682  0.4440
   84MOL   C28135307   6.102   4.537   3.893  0.1812  0.2794  0.7035
   84MOL   C28235308   6.154   4.666   3.831 -0.0421 -0.0810 -0.2760
   84MOL   C28335309   6.085   4.793   3.875  0.7017  0.6972  0.7966
   84MOL   H28435310   6.343   4.350   3.507  0.5226 -0.5677  0.0279
   84MOL   H28535311   6.322   4.183   3.518  2.0326  0.2561 -2.5877
   84MOL   H28635312   6.071   4.219   3.465  1.8961 -1.1765 -0.0466
   84MOL   H28735313   6.294   4.447   3.902 -1.1636  2.9862  1.0167
   84MOL   H28835314   6.172   4.333   3.909 -0.9003 -1.1510 -1.3343
   84MOL   H28935315   6.006   4.509   3.851  1.5327  0.3548 -2.6103
   84MOL   H29035316   6.097   4.544   4.002  1.2413  0.7999  0.7304
   84MOL   H29135317   6.146   4.643   3.724 -1.0312 -1.6258  0.1038
   84MOL   H29235318   6.261   4.664   3.851  0.2452  1.2909 -1.5924
   84MOL   H29335319   6.126   4.823   3.972 -0.1525  1.2160  1.0045
   84MOL   H29435320   5.980   4.765   3.887  0.5937  0.9676  0.4869
   84MOL   H29535321   6.089   4.880   3.809 -0.3279  1.6226  1.9084
   84MOL   C29635322   6.082   4.433   3.446 -0.3563 -0.2220  0.0123
   84MOL   C29735323   5.932   4.445   3.460 -0.0827  0.0839  0.0827
   84MOL   C29835324   5.900   4.593   3.496  0.4818 -0.0377  0.4122
   84MOL   O29935325   5.862   4.622   3.611 -0.1070  0.1616 -0.2360
   84MOL   O30035326   5.917   4.678   3.392 -0.0437 -0.1273 -0.1420
   84MOL   C30135327   5.884   4.814   3.407  0.1022 -0.8412  0.1803
   84MOL   C30235328   5.920   4.881   3.273  1.3359 -0.3614  0.6009
   84MOL   C30335329   5.857   5.020   3.271 -0.6260 -0.3594 -0.5263
   84MOL   C30435330   5.964   5.132   3.280  0.7843 -0.0092  0.3035
   84MOL   H30535331   6.113   4.447   3.343  1.6819 -0.0962  0.6355
   84MOL   H30635332   6.140   4.512   3.495 -0.7211 -0.9454  1.6558
   84MOL   H30735333   5.895   4.392   3.548 -1.0821 -1.2351 -1.1307
   84MOL   H30835334   5.933   4.852   3.496  0.0733  1.6476 -0.8011
   84MOL   H30935335   5.776   4.829   3.412  0.0722 -0.5627 -1.0144
   84MOL   H31035336   6.028   4.877   3.261  1.4648  1.5210  1.1022
   84MOL   H31135337   5.887   4.824   3.187  1.3222 -0.5572  0.7352
   84MOL   H31235338   5.792   5.032   3.358  0.1442 -2.1211  0.3209
   84MOL   H31335339   5.788   5.028   3.186 -1.9928 -2.9537  0.2934
   84MOL   H31435340   5.918   5.226   3.313 -2.2794 -1.4352  0.2385
   84MOL   H31535341   6.026   5.143   3.191 -1.1456 -0.8120 -1.1750
   84MOL   H31635342   6.029   5.116   3.366 -1.0200  0.1885  1.7491
   84MOL   C31735343   5.839   4.385   3.352 -0.3003  0.4021 -0.4501
   84MOL   C31835344   5.691   4.357   3.403 -0.1896 -0.5901  0.0866
   84MOL   C31935345   5.585   4.337   3.294  0.3372 -0.0124 -0.0142
   84MOL   O32035346   5.489   4.415   3.272  0.5813  0.2925  0.0410
   84MOL   O32135347   5.611   4.225   3.229  0.0729  0.4188  0.2367
   84MOL   C32235348   5.523   4.180   3.131 -0.0110  0.0352 -0.4959
   84MOL   C32335349   5.584   4.093   3.024 -0.2838 -0.7881 -0.1057
   84MOL   C32435350   5.685   4.153   2.926  0.0951  0.1360  0.6855
   84MOL   C32535351   5.814   4.207   2.994 -0.9157  0.2200 -0.4860
   84MOL   H32635352   5.885   4.294   3.314  0.1496  0.8491 -0.9793
   84MOL   H32735353   5.839   4.448   3.263  0.6574 -1.0984 -1.5499
   84MOL   H32835354   5.660   4.451   3.448 -1.9281 -1.9388  1.8052
   84MOL   H32935355   5.482   4.269   3.082  1.3101  0.9641  0.0704
   84MOL   H33035356   5.446   4.131   3.191  1.1104  1.4325  2.1525
   84MOL   H33135357   5.644   4.023   3.082 -1.4962 -0.0801  2.0658
   84MOL   H33235358   5.505   4.033   2.978  1.1083 -1.4603 -1.6469
   84MOL   H33335359   5.630   4.218   2.858 -0.2498 -0.0599  0.7768
   84MOL   H33435360   5.717   4.069   2.865 -0.2581 -1.3538  2.5041
   84MOL   H33535361   5.807   4.313   3.015 -2.8028 -0.1137  0.6649
   84MOL   H33635362   5.886   4.202   2.912 -0.4532  3.1388 -0.2871
   84MOL   H33735363   5.857   4.167   3.085  0.9293 -1.5286 -2.0621
   84MOL   C33835364   5.671   4.248   3.515  0.7769 -0.5880 -0.0743
   84MOL   C33935365   5.637   4.305   3.650 -0.6007  0.2661 -0.4827
   84MOL   C34035366   5.497   4.366   3.652 -0.1148 -0.2633 -0.0553
   84MOL   O34135367   5.470   4.486   3.681  0.1021 -0.6357  0.1056
   84MOL   O34235368   5.404   4.267   3.631 -0.5930  0.2438  0.6115
   84MOL   C34335369   5.265   4.300   3.610 -0.4491  0.2150 -0.5219
   84MOL   C34435370   5.211   4.186   3.526  0.5743 -0.3485 -0.0004
   84MOL   C34535371   5.211   4.042   3.592 -0.1622 -0.4866 -0.3720
   84MOL   C34635372   5.151   3.935   3.501  0.9697 -0.0875 -0.4053
   84MOL   H34735373   5.761   4.191   3.536  0.8885 -0.0176  0.9964
   84MOL   H34835374   5.594   4.174   3.490 -0.1510  0.1246  0.6287
   84MOL   H34935375   5.706   4.388   3.668 -1.5946  0.8530  0.6892
   84MOL   H35035376   5.262   4.396   3.560  1.0610  0.0869 -0.8898
   84MOL   H35135377   5.212   4.309   3.705  0.5551  1.5394 -0.0647
   84MOL   H35235378   5.107   4.204   3.501  0.5809  1.1074  0.9558
   84MOL   H35335379   5.263   4.182   3.430 -1.8427  1.0566 -1.4266
   84MOL   H35435380   5.162   4.052   3.689  3.2466 -1.8553  1.6133
   84MOL   H35535381   5.317   4.027   3.612 -0.5817 -1.7398  0.9899
   84MOL   H35635382   5.042   3.939   3.494  1.1461  0.9546 -2.7066
   84MOL   H35735383   5.179   3.847   3.560 -1.1902 -0.8484 -0.4604
   84MOL   H35835384   5.189   3.927   3.399  0.1527 -1.1798 -0.6419
   84MOL   C35935385   5.659   4.200   3.761  0.4359  0.8092 -0.5882
   84MOL   C36035386   5.650   4.250   3.906  0.7026 -0.0651 -0.3461
   84MOL   C36135387   5.648   4.139   4.011 -0.5235  0.2333  0.2301
   84MOL   O36235388   5.567   4.134   4.109 -0.0632  0.2313  0.7416
   84MOL   O36335389   5.741   4.047   4.002 -0.2479  0.0711  0.0928
   84MOL   C36435390   5.730   3.927   4.079 -0.4906  0.4828 -0.1258
   84MOL   C36535391   5.801   3.916   4.214 -0.4486  0.8829  0.1769
   84MOL   C36635392   5.846   3.776   4.262  0.2091  0.1784  0.1946
   84MOL   C36735393   5.881   3.788   4.408 -0.4555 -0.5100 -0.5408
   84MOL   H36835394   5.761   4.161   3.758  0.4959  0.9881 -1.0992
   84MOL   H36935395   5.602   4.109   3.745  1.9090 -0.4279  0.9346
   84MOL   H37035396   5.551   4.296   3.907  0.4557 -0.5308 -1.5128
   84MOL   H37135397   5.762   3.849   4.010  1.2940  0.2702  0.9106
   84MOL   H37235398   5.628   3.898   4.106  0.3037 -1.6102  0.7186
   84MOL   H37335399   5.891   3.977   4.206  0.3861 -0.1825  1.2509
   84MOL   H37435400   5.742   3.961   4.294 -0.7969  0.6354  0.0612
   84MOL   H37535401   5.932   3.739   4.207  0.6794  2.0548 -0.3802
   84MOL   H37635402   5.767   3.704   4.245 -0.0262  0.7816 -1.2858
   84MOL   H37735403   5.903   3.688   4.446 -0.9004 -1.1129 -1.8502
   84MOL   H37835404   5.807   3.837   4.471 -1.0965  0.8743 -2.3080
   84MOL   H37935405   5.967   3.855   4.421 -2.2223  1.8408 -0.6115
   84MOL   C38035406   5.763   4.355   3.947 -0.1857 -0.0182  0.3617
   84MOL   C38135407   5.728   4.486   4.028 -0.2344 -0.1133 -0.1252
   84MOL   C38235408   5.627   4.571   3.961 -0.1104 -0.6676  0.2062
   84MOL   O38335409   5.509   4.568   3.998  0.2369 -0.5149 -0.0494
   84MOL   O38435410   5.681   4.654   3.876 -1.0758  0.1817  0.2224
   84MOL   C38535411   5.601   4.750   3.816  0.2536  0.0711  0.5202
   84MOL   C38635412   5.663   4.890   3.822 -0.1131 -0.0861  0.7940
   84MOL   C38735413   5.771   4.906   3.713  0.4910 -0.2016 -0.4149
   84MOL   C38835414   5.855   5.036   3.728  0.0414  0.4680 -0.4620
   84MOL   H38935415   5.804   4.392   3.853 -1.4601 -2.6349 -1.2911
   84MOL   H39035416   5.850   4.306   3.991 -0.6440  0.0456  1.3349
   84MOL   H39135417   5.819   4.546   4.025 -0.7340  0.7055  0.5706
   84MOL   H39235418   5.502   4.747   3.859 -0.0138 -0.7367 -0.1282
   84MOL   H39335419   5.597   4.712   3.713 -0.3985  0.1239  0.5289
   84MOL   H39435420   5.588   4.968   3.807 -0.7571 -1.0218 -0.9686
   84MOL   H39535421   5.713   4.915   3.915  1.2182 -0.2491  0.1386
   84MOL   H39635422   5.727   4.904   3.613  1.6737  0.7930 -0.9617
   84MOL   H39735423   5.838   4.821   3.711 -3.3371 -3.3575 -0.5544
   84MOL   H39835424   5.941   5.026   3.661 -0.4857  0.4430 -1.1446
   84MOL   H39935425   5.882   5.046   3.833  0.4850 -1.6013 -0.3483
   84MOL   H40035426   5.794   5.123   3.705 -1.8339 -0.7374 -0.1783
   84MOL   C40135427   5.698   4.453   4.172 -0.5503 -0.2230 -0.7529
   84MOL   C40235428   5.802   4.366   4.241 -0.1837  0.3235 -0.1483
   84MOL   C40335429   5.931   4.438   4.251  0.1808  0.3616 -0.5482
   84MOL   O40435430   6.034   4.390   4.206  0.2845 -0.0213  0.1300
   84MOL   O40535431   5.925   4.549   4.332  0.1868 -0.5237  0.4687
   84MOL   C40635432   6.043   4.632   4.338 -0.8637  0.3878 -0.1315
   84MOL   C40735433   6.007   4.757   4.421  0.4833  0.0142  0.9358
   84MOL   C40835434   5.981   4.731   4.572  0.2335 -0.3425 -0.0873
   84MOL   C40935435   5.944   4.859   4.645  0.1553  0.5545 -0.0763
   84MOL   H41035436   5.596   4.417   4.186 -0.8061  0.2653 -1.3303
   84MOL   H41135437   5.687   4.548   4.224 -0.4370 -0.3708 -0.4536
   84MOL   H41235438   5.803   4.272   4.185  0.3404 -0.2058  0.7360
   84MOL   H41335439   6.055   4.659   4.233  0.5452 -0.8567 -0.3201
   84MOL   H41435440   6.127   4.573   4.374 -1.2417 -0.2864 -0.3478
   84MOL   H41535441   6.085   4.833   4.417 -1.1584  1.8345  1.8780
   84MOL   H41635442   5.923   4.811   4.375 -0.5724 -1.7856  0.7168
   84MOL   H41735443   6.081   4.705   4.608  0.0323 -1.9503 -0.6489
   84MOL   H41835444   5.921   4.640   4.585 -3.1376  1.9861  1.2299
   84MOL   H41935445   5.851   4.901   4.607  0.4142  0.6238 -0.6396
   84MOL   H42035446   6.033   4.922   4.639 -0.7962  1.9839  0.7476
   84MOL   H42135447   5.939   4.827   4.749 -1.2812 -0.7137 -0.5134
   84MOL   H42235448   5.766   4.338   4.340 -0.3851 -0.8592 -0.5503
   85MOL     C135449   1.505   0.639   3.421 -0.5265  0.3629 -0.1812
   85MOL     C235450   1.394   0.748   3.436 -0.0443  0.0175  0.0947
   85MOL     C335451   1.362   0.811   3.300 -0.6778 -0.5215  0.6901
   85MOL     O435452   1.387   0.754   3.192  0.4431 -0.5650  0.2311
   85MOL     O535453   1.298   0.926   3.307  0.2579  0.2335 -0.3996
   85MOL     C635454   1.269   1.004   3.188 -0.9327  0.1236  0.5088
   85MOL     C735455   1.133   0.973   3.120  0.7812  0.1361  0.2659
   85MOL     C835456   1.100   1.060   3.007  0.1120  0.0813  0.1296
   85MOL     C935457   0.972   1.012   2.924 -0.6812 -0.0221  0.6334
   85MOL    H1035458   1.590   0.691   3.378 -0.1456 -1.1035 -1.2308
   85MOL    H1135459   1.533   0.604   3.520  1.1169 -0.0539 -0.7887
   85MOL    H1235460   1.430   0.830   3.498  1.4159 -0.5774  0.0765
   85MOL    H1335461   1.348   0.980   3.116 -1.2078  1.0777 -0.1230
   85MOL    H1435462   1.276   1.109   3.216  2.1322  0.4647 -1.3157
   85MOL    H1535463   1.142   0.871   3.083 -0.8196  0.3318 -0.7194
   85MOL    H1635464   1.058   0.978   3.199 -0.2961 -0.1059 -0.7109
   85MOL    H1735465   1.185   1.057   2.938 -1.5937 -1.3794 -2.0032
   85MOL    H1835466   1.088   1.159   3.051 -2.3565  0.6779 -1.7339
   85MOL    H1935467   0.887   1.019   2.992 -0.3191  2.0840  0.9050
   85MOL    H2035468   0.984   0.908   2.894 -0.6979  0.1299  0.1047
   85MOL    H2135469   0.960   1.064   2.830  3.5296 -2.6196 -1.4665
   85MOL    H2235470   1.470   0.555   3.362  0.2674 -0.4900  0.5571
   85MOL    C2335471   1.280   0.673   3.510  0.5377  0.2521  1.0155
   85MOL    C2435472   1.165   0.761   3.554 -0.0421  0.2182 -0.1534
   85MOL    C2535473   1.041   0.677   3.572 -0.4616 -0.1441  1.2740
   85MOL    O2635474   0.947   0.698   3.493  0.2427  0.2261  0.0898
   85MOL    O2735475   1.055   0.572   3.657  0.3106  0.1999 -0.6349
   85MOL    C2835476   0.949   0.481   3.679 -0.2440  0.1430  0.0213
   85MOL    C2935477   0.979   0.356   3.598 -0.0806  0.0503  0.6722
   85MOL    C3035478   0.842   0.272   3.585  0.9760  0.5022  0.2030
   85MOL    C3135479   0.859   0.152   3.481  0.1020  0.2279 -0.7382
   85MOL    H3235480   1.323   0.615   3.592  1.5161  0.5514  0.7089
   85MOL    H3335481   1.241   0.597   3.443  0.3399  0.4837  0.8668
   85MOL    H3435482   1.155   0.829   3.470 -0.5706 -0.1430 -0.3832
   85MOL    H3535483   0.857   0.531   3.647 -1.0139  1.4944  4.1142
   85MOL    H3635484   0.936   0.474   3.787 -0.8638  1.0567  0.0131
   85MOL    H3735485   1.016   0.374   3.497 -0.1707  2.9576  1.1229
   85MOL    H3835486   1.059   0.290   3.632  0.8269 -0.1932 -1.8555
   85MOL    H3935487   0.763   0.336   3.547 -0.1433 -0.2248  1.2571
   85MOL    H4035488   0.805   0.232   3.680 -1.0374 -0.3626 -0.9263
   85MOL    H4135489   0.936   0.083   3.516  0.6579 -0.1051 -2.5537
   85MOL    H4235490   0.888   0.200   3.388  0.7136 -0.2322 -0.7890
   85MOL    H4335491   0.773   0.092   3.453 -0.4804  0.7536 -0.1109
   85MOL    C4435492   1.195   0.863   3.670 -0.3159 -0.4223 -0.3511
   85MOL    C4535493   1.089   0.970   3.713 -0.5673  0.5510  0.3761
   85MOL    C4635494   0.983   0.919   3.817  0.0674 -0.1736 -0.1012
   85MOL    O4735495   1.021   0.856   3.913  0.8281 -0.1359 -0.2532
   85MOL    O4835496   0.859   0.947   3.797  0.3455 -0.8250 -0.1234
   85MOL    C4935497   0.758   0.907   3.877  0.5353 -0.0006  0.9734
   85MOL    C5035498   0.633   0.878   3.791  0.3262  0.0036 -0.2519
   85MOL    C5135499   0.650   0.780   3.679 -0.0879 -0.1257 -0.3098
   85MOL    C5235500   0.524   0.757   3.605  0.1400  0.0495 -0.7045
   85MOL    H5335501   1.282   0.919   3.636 -0.4364 -0.1085 -0.1434
   85MOL    H5435502   1.228   0.803   3.756  1.5369  2.1516  0.7864
   85MOL    H5535503   1.033   0.985   3.621  1.0724  0.5755 -0.6348
   85MOL    H5635504   0.749   0.996   3.938  2.6429  2.8437 -2.6390
   85MOL    H5735505   0.784   0.816   3.932  0.0821 -1.7924 -1.6585
   85MOL    H5835506   0.560   0.840   3.863  0.6292  0.6459  0.4001
   85MOL    H5935507   0.597   0.969   3.744  0.3954  0.0823 -0.1535
   85MOL    H6035508   0.680   0.683   3.719  0.7552 -0.0298 -0.7127
   85MOL    H6135509   0.725   0.806   3.605 -2.2943  1.3870 -2.1165
   85MOL    H6235510   0.500   0.844   3.545  1.1870  0.3367 -0.7217
   85MOL    H6335511   0.435   0.730   3.662  1.1976 -0.2097  0.8438
   85MOL    H6435512   0.539   0.669   3.542 -0.5017 -0.4017 -0.2340
   85MOL    C6535513   1.152   1.110   3.759  0.3061  0.3154  0.3293
   85MOL    C6635514   1.192   1.204   3.646  0.3639  0.0356  0.2186
   85MOL    C6735515   1.071   1.263   3.568 -0.7968 -0.0179 -0.6166
   85MOL    O6835516   1.017   1.362   3.603  0.2304  0.5008 -0.3889
   85MOL    O6935517   1.052   1.197   3.453  0.4664  0.5914 -0.5802
   85MOL    C7035518   0.944   1.214   3.364 -0.2098  0.7422  0.1180
   85MOL    C7135519   0.836   1.112   3.408  0.1043 -0.5417  0.7291
   85MOL    C7235520   0.705   1.130   3.325  0.4971  0.4008 -0.5800
   85MOL    C7335521   0.598   1.032   3.378  0.2025 -0.8537  0.1531
   85MOL    H7435522   1.239   1.096   3.824  0.4641 -0.5748 -0.0671
   85MOL    H7535523   1.081   1.168   3.818  0.8549  1.0226  0.2943
   85MOL    H7635524   1.239   1.146   3.566  0.0864  2.0743 -1.4728
   85MOL    H7735525   0.965   1.188   3.260  2.1147 -1.5000  1.1072
   85MOL    H7835526   0.894   1.311   3.368  0.1231  0.9457 -0.5690
   85MOL    H7935527   0.861   1.007   3.397 -0.5626 -0.5257 -0.9662
   85MOL    H8035528   0.809   1.144   3.509 -0.5873  1.8418 -0.1862
   85MOL    H8135529   0.733   1.120   3.221  0.7687  0.7349 -0.5427
   85MOL    H8235530   0.674   1.233   3.343  1.6740  0.7262 -0.3694
   85MOL    H8335531   0.629   0.930   3.358 -0.9814 -1.0484 -0.7339
   85MOL    H8435532   0.505   1.052   3.324 -0.2123 -1.3260  0.6958
   85MOL    H8535533   0.571   1.039   3.483 -1.9933 -0.3119 -0.4225
   85MOL    C8635534   1.292   1.316   3.689 -0.2115  0.4835  0.1462
   85MOL    C8735535   1.444   1.276   3.710 -0.0858 -0.2653 -0.6086
   85MOL    C8835536   1.505   1.189   3.597  0.5895  0.0390  0.6629
   85MOL    O8935537   1.532   1.068   3.615 -0.5772 -0.0639 -0.1267
   85MOL    O9035538   1.538   1.258   3.485 -0.0239  0.2810 -0.7660
   85MOL    C9135539   1.604   1.180   3.383 -0.7056 -0.4993 -0.3674
   85MOL    C9235540   1.633   1.271   3.260 -0.4366  0.0251 -0.1572
   85MOL    C9335541   1.706   1.191   3.156  0.5752 -0.2235 -0.8291
   85MOL    C9435542   1.702   1.257   3.018 -0.1541 -0.1378 -0.2705
   85MOL    H9535543   1.238   1.372   3.766 -2.7237 -1.0401 -0.4475
   85MOL    H9635544   1.287   1.393   3.611 -1.6907 -1.9878 -2.2703
   85MOL    H9735545   1.444   1.204   3.793  0.7593  0.7145  0.2593
   85MOL    H9835546   1.544   1.094   3.354 -0.9526 -0.4268 -0.0741
   85MOL    H9935547   1.698   1.153   3.431 -1.0865 -0.0618  0.6475
   85MOL   H10035548   1.542   1.316   3.221 -1.0005  0.0149  1.1138
   85MOL   H10135549   1.700   1.354   3.286 -1.5255  0.7988  0.1938
   85MOL   H10235550   1.660   1.093   3.144  0.6973 -0.0053 -3.1782
   85MOL   H10335551   1.805   1.156   3.185  0.3463  0.5346  0.9435
   85MOL   H10435552   1.600   1.268   2.982  0.6424  1.9399 -2.0329
   85MOL   H10535553   1.749   1.194   2.942 -0.0099 -0.9967  0.5302
   85MOL   H10635554   1.755   1.352   3.029 -0.0424 -0.2223 -0.0778
   85MOL   C10735555   1.529   1.392   3.752 -0.3088 -0.3563 -0.3628
   85MOL   C10835556   1.664   1.367   3.818 -0.3666 -0.2645  0.1501
   85MOL   C10935557   1.776   1.461   3.764  0.3108  0.4662  0.2039
   85MOL   O11035558   1.819   1.559   3.827 -0.3307 -0.0502  0.2246
   85MOL   O11135559   1.831   1.424   3.638  0.5161 -0.1482 -0.2927
   85MOL   C11235560   1.951   1.482   3.583  0.4409 -0.3377  0.6222
   85MOL   C11335561   2.079   1.419   3.649  0.5454  0.5600  0.4057
   85MOL   C11435562   2.215   1.473   3.601  0.0246  0.1038 -0.2749
   85MOL   C11535563   2.328   1.377   3.647  0.6239 -0.1767 -0.3841
   85MOL   H11635564   1.475   1.449   3.827  0.5521 -0.5349  0.4069
   85MOL   H11735565   1.548   1.464   3.673  2.3055 -2.6926 -1.9769
   85MOL   H11835566   1.701   1.268   3.793 -1.4673 -0.3106 -1.3439
   85MOL   H11935567   1.952   1.591   3.587  1.6800 -0.3376  0.5913
   85MOL   H12035568   1.947   1.457   3.477  3.0398  3.0490 -0.3881
   85MOL   H12135569   2.083   1.429   3.758  1.3718 -1.3488  0.5705
   85MOL   H12235570   2.075   1.311   3.640  0.6848  0.4200  1.8566
   85MOL   H12335571   2.228   1.572   3.645 -2.2476 -0.2502  1.2686
   85MOL   H12435572   2.221   1.498   3.495 -1.0398  0.3930 -0.2745
   85MOL   H12535573   2.327   1.340   3.749 -0.4480 -2.3405 -1.1545
   85MOL   H12635574   2.426   1.423   3.632  1.0660 -0.2781  2.0687
   85MOL   H12735575   2.332   1.285   3.589  1.3249 -0.9013  0.7884
   85MOL   C12835576   1.653   1.387   3.973 -0.2714 -0.4866  0.4535
   85MOL   C12935577   1.559   1.283   4.040 -0.4520 -0.3238  0.4813
   85MOL   C13035578   1.601   1.137   4.026 -0.4163 -0.0143  0.4132
   85MOL   O13135579   1.723   1.108   4.016  0.0878  0.0957 -0.0638
   85MOL   O13235580   1.498   1.056   4.035 -0.2789  1.0639  0.0324
   85MOL   C13335581   1.513   0.919   4.038  0.3080 -0.0988 -0.0664
   85MOL   C13435582   1.499   0.862   3.896 -0.0620 -0.0548 -0.1979
   85MOL   C13535583   1.533   0.712   3.878  0.1496  0.2017  0.3770
   85MOL   C13635584   1.689   0.684   3.874 -0.1580 -0.0299 -0.6760
   85MOL   H13735585   1.612   1.484   3.999  1.8158  0.5093  0.1532
   85MOL   H13835586   1.753   1.384   4.017 -0.7456  2.0708  1.7876
   85MOL   H13935587   1.471   1.288   3.975  1.5916 -1.6575 -2.5430
   85MOL   H14035588   1.443   0.874   4.108 -0.1155 -1.7471 -1.5318
   85MOL   H14135589   1.612   0.889   4.073  0.2861  0.7418  0.7346
   85MOL   H14235590   1.397   0.885   3.864  0.7046  0.1308 -2.6094
   85MOL   H14335591   1.565   0.925   3.837 -1.7170  1.4899 -0.4887
   85MOL   H14435592   1.495   0.679   3.781 -0.2396  1.0180  0.2475
   85MOL   H14535593   1.487   0.643   3.948 -1.4544  0.1014 -0.7396
   85MOL   H14635594   1.703   0.577   3.861  0.2162 -0.4157  2.4142
   85MOL   H14735595   1.749   0.709   3.961 -0.1446 -0.7385 -0.4820
   85MOL   H14835596   1.744   0.734   3.794 -1.4504  0.5750 -1.2070
   85MOL   C14935597   1.508   1.323   4.178 -0.1252  0.3999 -0.3203
   85MOL   C15035598   1.610   1.294   4.299  0.2257  0.0647 -0.4017
   85MOL   C15135599   1.686   1.420   4.342 -0.3227 -0.4010  0.7469
   85MOL   O15235600   1.810   1.426   4.316 -0.1052 -0.0206  0.3926
   85MOL   O15335601   1.611   1.514   4.406 -0.0466 -0.0908 -0.0913
   85MOL   C15435602   1.661   1.621   4.471 -0.3368  0.0343 -0.7417
   85MOL   C15535603   1.717   1.722   4.374  0.0608  0.1250  0.1412
   85MOL   C15635604   1.763   1.854   4.435 -0.2405  0.5024  0.1105
   85MOL   C15735605   1.651   1.940   4.487  0.9842  0.6215  0.2966
   85MOL   H15835606   1.417   1.264   4.193 -0.0714  0.5642  0.6386
   85MOL   H15935607   1.474   1.426   4.182 -0.1581  0.4821 -2.2086
   85MOL   H16035608   1.689   1.227   4.266 -1.2222 -1.5235 -0.7210
   85MOL   H16135609   1.735   1.598   4.547 -0.6711 -0.3407 -0.5323
   85MOL   H16235610   1.581   1.660   4.533 -0.9236 -1.3153 -0.6462
   85MOL   H16335611   1.812   1.682   4.338  0.4136  2.2710 -1.4591
   85MOL   H16435612   1.658   1.737   4.283 -0.2138 -4.1680 -0.5059
   85MOL   H16535613   1.826   1.897   4.358  0.4043 -2.1552 -0.9170
   85MOL   H16635614   1.825   1.839   4.524 -0.9323 -1.5197  0.2742
   85MOL   H16735615   1.601   1.997   4.409  0.8876 -0.6145 -0.5546
   85MOL   H16835616   1.691   2.021   4.547  0.3031 -0.9858  3.0362
   85MOL   H16935617   1.577   1.889   4.550 -0.0128  2.8407  0.9778
   85MOL   C17035618   1.550   1.228   4.429 -0.1498 -0.5523  0.4936
   85MOL   C17135619   1.585   1.080   4.455 -0.3241 -0.6511  0.4035
   85MOL   C17235620   1.738   1.062   4.459  0.0587  0.4245  0.3840
   85MOL   O17335621   1.789   0.997   4.367  0.5391  0.2259  0.2314
   85MOL   O17435622   1.808   1.135   4.549  0.1776 -0.2166  0.2294
   85MOL   C17535623   1.946   1.163   4.523  0.2419 -1.0027 -0.2967
   85MOL   C17635624   2.023   1.054   4.602 -0.4369 -1.0049 -0.0329
   85MOL   C17735625   2.180   1.058   4.593  0.0464  0.2490  0.9360
   85MOL   C17835626   2.243   0.981   4.709 -0.5504 -0.4208  0.3148
   85MOL   H17935627   1.442   1.238   4.437  0.0085  0.6471  1.3746
   85MOL   H18035628   1.589   1.278   4.518 -0.3216 -0.7573  0.6868
   85MOL   H18135629   1.545   1.025   4.370 -0.8880 -2.0548  1.5592
   85MOL   H18235630   1.973   1.260   4.565 -0.7317 -0.6917 -0.3878
   85MOL   H18335631   1.969   1.168   4.416 -2.1436  2.4416 -0.7218
   85MOL   H18435632   1.988   1.063   4.705 -0.9012  0.3277 -0.3063
   85MOL   H18535633   1.991   0.956   4.566 -0.4296 -1.8461  2.1385
   85MOL   H18635634   2.221   1.159   4.599 -0.5211  0.5921 -0.8096
   85MOL   H18735635   2.207   1.016   4.496 -0.6933  1.2595  0.2825
   85MOL   H18835636   2.242   1.034   4.805 -2.2265  1.4581 -0.7034
   85MOL   H18935637   2.350   0.968   4.700 -0.1536  2.5441  0.2536
   85MOL   H19035638   2.204   0.879   4.715  1.4202 -1.0897  2.5355
   85MOL   C19135639   1.520   1.015   4.570  0.5765  0.0475  0.4704
   85MOL   C19235640   1.529   0.857   4.575 -0.5474 -0.2848 -0.4848
   85MOL   C19335641   1.485   0.800   4.710  0.4720 -0.0690  0.4471
   85MOL   O19435642   1.430   0.868   4.803 -0.0719  0.0421 -0.3760
   85MOL   O19535643   1.511   0.668   4.721 -0.1403  0.1740 -0.2219
   85MOL   C19635644   1.492   0.598   4.847 -0.0109  0.6284 -0.1026
   85MOL   C19735645   1.561   0.462   4.837 -0.6736  0.4815 -0.0430
   85MOL   C19835646   1.561   0.394   4.979 -0.4628  0.2958  0.2254
   85MOL   C19935647   1.580   0.242   4.961  1.0541 -0.6092 -0.0348
   85MOL   H20035648   1.418   1.052   4.574  0.1655 -0.9191 -0.8696
   85MOL   H20135649   1.567   1.060   4.658  0.2102  3.1813 -0.8734
   85MOL   H20235650   1.637   0.840   4.573 -0.8999 -2.7781 -0.1950
   85MOL   H20335651   1.383   0.592   4.849  0.0732 -0.8646  0.4835
   85MOL   H20435652   1.528   0.657   4.931 -0.6028  2.5971 -1.1933
   85MOL   H20535653   1.509   0.402   4.763 -0.1614 -1.2960  1.0063
   85MOL   H20635654   1.661   0.471   4.794 -0.4964  0.3684  0.3457
   85MOL   H20735655   1.459   0.404   5.018  0.0269 -0.5022  1.7048
   85MOL   H20835656   1.624   0.447   5.050 -0.6046 -0.5149  0.9560
   85MOL   H20935657   1.682   0.232   4.924  1.1144  0.8505 -0.2756
   85MOL   H21035658   1.518   0.200   4.882 -0.7811  2.1609 -0.1248
   85MOL   H21135659   1.571   0.181   5.051 -0.0020 -0.7494 -0.2318
   85MOL   C21235660   1.443   0.797   4.461  0.2510 -0.1459 -0.2497
   85MOL   C21335661   1.480   0.650   4.429  0.4528 -0.2338 -0.3705
   85MOL   C21435662   1.364   0.583   4.358 -0.7631  0.3706 -0.7660
   85MOL   O21535663   1.296   0.503   4.419 -0.0670  0.0672 -0.3836
   85MOL   O21635664   1.352   0.626   4.232 -0.2326  0.1466 -0.0683
   85MOL   C21735665   1.260   0.566   4.150  0.2031  0.4537  0.3925
   85MOL   C21835666   1.299   0.431   4.080 -0.0715  0.5071  0.9114
   85MOL   C21935667   1.179   0.369   4.004  0.0628 -0.0107 -0.0474
   85MOL   C22035668   1.234   0.226   3.964  0.4617 -0.0335  0.4631
   85MOL   H22135669   1.453   0.858   4.371 -0.7757  3.2883  1.8868
   85MOL   H22235670   1.338   0.803   4.488 -0.1557 -1.2113 -1.5203
   85MOL   H22335671   1.483   0.589   4.520 -2.5976 -1.9925 -1.3649
   85MOL   H22435672   1.235   0.633   4.069  0.5185  1.6157  1.2518
   85MOL   H22535673   1.169   0.553   4.209  0.2905  1.0700  0.6617
   85MOL   H22635674   1.379   0.449   4.008 -0.1713 -1.0704  0.3877
   85MOL   H22735675   1.344   0.351   4.138  1.3719 -1.6251 -2.9198
   85MOL   H22835676   1.147   0.439   3.927 -2.2688 -0.0954  0.7921
   85MOL   H22935677   1.092   0.338   4.063 -1.2426 -1.0968 -2.4708
   85MOL   H23035678   1.321   0.229   3.897 -0.1838 -0.2729 -0.3971
   85MOL   H23135679   1.154   0.172   3.913  1.8489  0.1560 -2.0346
   85MOL   H23235680   1.250   0.162   4.050  0.2524  1.2664  1.4791
   85MOL   C23335681   1.612   0.637   4.355 -0.0784  0.5506  0.4548
   85MOL   C23435682   1.662   0.494   4.340  0.2650  0.2814 -0.1202
   85MOL   C23535683   1.770   0.475   4.222  0.3010  0.0385 -0.1539
   85MOL   O23635684   1.738   0.409   4.122 -0.7353  0.5042  0.2258
   85MOL   O23735685   1.889   0.536   4.247 -0.9732  0.2919 -0.4748
   85MOL   C23835686   1.987   0.541   4.148  0.1224 -0.0260 -0.6253
   85MOL   C23935687   2.040   0.682   4.112 -0.0151 -0.1058 -0.6041
   85MOL   C24035688   2.077   0.775   4.236  0.6148 -1.0565  0.3404
   85MOL   C24135689   2.137   0.912   4.181  0.2750  0.9479 -0.4496
   85MOL   H24235690   1.688   0.694   4.408  1.4598  1.1818 -2.2904
   85MOL   H24335691   1.614   0.677   4.253  0.8580  0.2905  0.3689
   85MOL   H24435692   1.572   0.439   4.309  1.2895 -1.1737 -0.5577
   85MOL   H24535693   1.952   0.491   4.057  0.8537 -2.1718  0.2471
   85MOL   H24635694   2.068   0.479   4.184 -1.5674 -1.5859  0.5601
   85MOL   H24735695   2.124   0.679   4.043 -0.1751 -0.3294 -0.7914
   85MOL   H24835696   1.961   0.727   4.052  0.3381 -0.5782 -1.4262
   85MOL   H24935697   2.163   0.733   4.289  0.2321 -0.6394  1.3044
   85MOL   H25035698   2.007   0.788   4.318  0.6052  1.7696 -0.0706
   85MOL   H25135699   2.231   0.896   4.128 -0.7238 -1.3807 -1.5979
   85MOL   H25235700   2.162   0.973   4.268 -0.0844 -0.1034  0.4041
   85MOL   H25335701   2.063   0.971   4.128  0.3212 -0.1505 -1.7614
   85MOL   C25435702   1.718   0.452   4.473  0.3236 -0.0564  0.9910
   85MOL   C25535703   1.708   0.301   4.526  0.7772 -0.2065 -0.5246
   85MOL   C25635704   1.567   0.242   4.507  0.8084 -0.7684  0.5065
   85MOL   O25735705   1.513   0.236   4.394 -0.4306  0.6698  0.7379
   85MOL   O25835706   1.512   0.204   4.628  0.2888 -0.7088 -0.4153
   85MOL   C25935707   1.388   0.135   4.629  1.0875 -0.8851 -0.6786
   85MOL   C26035708   1.403   7.849   4.673  0.2132 -0.4128 -0.6703
   85MOL   C26135709   1.272   7.757   4.664 -0.1180 -0.1127  0.1229
   85MOL   C26235710   1.156   7.804   4.757 -0.2064  0.1813  0.3242
   85MOL   H26335711   1.687   0.515   4.557 -0.5358 -2.6829  2.7144
   85MOL   H26435712   1.826   0.470   4.477  0.1363  1.7739 -1.2111
   85MOL   H26535713   1.729   0.302   4.633  1.9600  3.3206 -0.7321
   85MOL   H26635714   1.353   0.136   4.526  0.9323 -1.2264 -0.6314
   85MOL   H26735715   1.311   0.177   4.694  2.5458  0.4670  0.1980
   85MOL   H26835716   1.482   7.805   4.612  0.8589 -0.4398  0.1588
   85MOL   H26935717   1.429   7.841   4.779 -2.3183  2.2202  0.2113
   85MOL   H27035718   1.293   7.659   4.706 -0.2163  0.5335  1.7198
   85MOL   H27135719   1.223   7.739   4.568 -1.0687 -2.4438  1.0179
   85MOL   H27235720   1.059   7.763   4.728  0.5497 -0.4957 -1.3413
   85MOL   H27335721   1.142   0.058   4.738 -0.0401 -0.1109 -1.5724
   85MOL   H27435722   1.176   7.778   4.860 -1.3336 -1.3619  0.1676
   85MOL   C27535723   1.814   0.208   4.472 -0.2225 -0.8201 -0.0429
   85MOL   C27635724   1.802   0.053   4.510  0.0204 -0.9605  0.0334
   85MOL   C27735725   1.907   7.831   4.423  0.0833 -0.0369  0.3061
   85MOL   O27835726   1.969   0.036   4.333  0.0172 -0.0298  0.3733
   85MOL   O27935727   1.917   7.701   4.459 -0.1648  0.2231  0.5707
   85MOL   C28035728   2.015   7.624   4.409  0.9169 -1.2679  0.2777
   85MOL   C28135729   1.979   7.478   4.448  0.1412 -0.0692  0.0167
   85MOL   C28235730   1.989   7.445   4.597  0.1401  0.5298 -0.4211
   85MOL   C28335731   1.918   7.312   4.642 -0.6789  0.6842 -0.0460
   85MOL   H28435732   1.912   0.249   4.499 -0.8223  0.7909 -0.2623
   85MOL   H28535733   1.798   0.210   4.364 -1.8493 -0.1372  0.2031
   85MOL   H28635734   1.705   0.024   4.471  1.0909 -2.7798 -1.3459
   85MOL   H28735735   2.117   7.645   4.442 -0.1645  1.0789  2.2459
   85MOL   H28835736   2.023   7.630   4.300 -2.4461  2.0545  0.1178
   85MOL   H28935737   1.873   7.466   4.425 -0.4608  1.9516  1.5854
   85MOL   H29035738   2.044   7.408   4.395 -0.0819 -1.0033  0.9744
   85MOL   H29135739   1.934   7.525   4.646 -1.4280 -1.3322  0.9269
   85MOL   H29235740   2.092   7.451   4.632 -0.1006 -0.2374  0.4351
   85MOL   H29335741   1.965   7.221   4.607 -3.4689 -0.5306 -0.7312
   85MOL   H29435742   1.825   7.312   4.585  0.2939 -1.6620 -1.7047
   85MOL   H29535743   1.901   7.299   4.749  0.2398  0.8828  0.1299
   85MOL   C29635744   1.806   0.029   4.662 -0.6383 -0.2325  0.7871
   85MOL   C29735745   1.948   0.011   4.727  0.3958 -0.2929  0.1744
   85MOL   C29835746   2.029   0.142   4.742  0.1115  0.6624 -0.0174
   85MOL   O29935747   1.972   0.242   4.782 -0.1362 -0.3100  0.3473
   85MOL   O30035748   2.154   0.132   4.700 -0.2765  0.0143 -0.1162
   85MOL   C30135749   2.248   0.239   4.711  0.4003  0.4127 -0.1999
   85MOL   C30235750   2.223   0.341   4.595 -0.9266  0.4357  1.0869
   85MOL   C30335751   2.233   0.284   4.448 -0.0414 -0.5813 -0.1587
   85MOL   C30435752   2.283   0.388   4.344 -0.1849  0.6838 -0.3877
   85MOL   H30535753   1.740   7.797   4.676 -1.7869  0.3664 -0.9431
   85MOL   H30635754   1.760   0.113   4.715  0.2890  0.7695  0.0282
   85MOL   H30735755   1.997   7.798   4.656 -0.2761 -1.9603  1.2348
   85MOL   H30835756   2.351   0.204   4.704  0.5135  0.2167  1.9613
   85MOL   H30935757   2.238   0.291   4.806  1.9106  1.2121 -0.4660
   85MOL   H31035758   2.128   0.392   4.611 -1.3391 -0.5316  1.8235
   85MOL   H31135759   2.285   0.430   4.606 -1.1763  0.7952 -0.3789
   85MOL   H31235760   2.135   0.255   4.412 -0.8640  0.6419  1.0461
   85MOL   H31335761   2.300   0.198   4.459  2.5492  1.6535  2.5101
   85MOL   H31435762   2.391   0.395   4.341 -0.2773  2.8943  0.5777
   85MOL   H31535763   2.244   0.490   4.351  0.8071  1.1235 -1.1311
   85MOL   H31635764   2.260   0.350   4.244  0.1825 -1.1427  0.2073
   85MOL   C31735765   1.935   7.799   4.867  0.4082  0.8148 -0.1077
   85MOL   C31835766   2.080   7.764   4.933  0.1183 -0.0176  0.8336
   85MOL   C31935767   2.071   7.675   5.056  0.0068  0.1835  0.4334
   85MOL   O32035768   1.999   7.570   5.058  0.2098  0.3505 -0.2826
   85MOL   O32135769   2.157   7.725   5.152  0.3685 -0.0380 -0.5645
   85MOL   C32235770   2.180   7.651   5.268  0.6576  0.3437 -0.7764
   85MOL   C32335771   2.082   7.693   5.377 -0.0329 -0.4006  0.0569
   85MOL   C32435772   2.080   7.609   5.505  0.2210  0.0496 -0.0987
   85MOL   C32535773   1.972   7.642   5.605  0.5783  0.1015  0.3563
   85MOL   H32635774   1.865   7.715   4.864 -0.5232  1.5469  0.6577
   85MOL   H32735775   1.889   0.022   4.931  2.9345  1.3213  1.1490
   85MOL   H32835776   2.126   0.010   4.941 -1.4328  0.7595  0.3377
   85MOL   H32935777   2.283   7.667   5.299  2.3200  1.1998 -6.0795
   85MOL   H33035778   2.167   7.547   5.240 -0.5415  0.7115 -1.6324
   85MOL   H33135779   2.105   7.798   5.399 -1.4709  0.0497 -0.5416
   85MOL   H33235780   1.984   7.693   5.329 -0.2498  2.3525  0.3827
   85MOL   H33335781   2.176   7.628   5.554  1.3134  0.2764 -2.2880
   85MOL   H33435782   2.086   7.504   5.478  1.9807  1.0958 -4.0220
   85MOL   H33535783   1.874   7.627   5.559 -0.0242 -1.4070  2.0441
   85MOL   H33635784   1.971   7.746   5.638 -1.1133 -0.1795  1.2862
   85MOL   H33735785   1.992   7.586   5.697 -0.8048  0.3294  0.8148
   85MOL   C33835786   2.164   7.680   4.836  0.6175 -0.3446 -0.4708
   85MOL   C33935787   2.322   7.662   4.860 -0.4782 -0.5583 -0.6100
   85MOL   C34035788   2.378   7.554   4.761  0.7234 -0.3069 -0.0090
   85MOL   O34135789   2.395   7.589   4.647  0.0950  0.2810 -0.0728
   85MOL   O34235790   2.409   7.436   4.825  0.1818  0.2268  0.0955
   85MOL   C34335791   2.448   7.319   4.758 -0.6943 -0.5552 -1.0301
   85MOL   C34435792   2.320   7.252   4.695 -0.4886 -0.3983 -0.1337
   85MOL   C34535793   2.352   7.109   4.659 -0.3939  0.6261 -0.3794
   85MOL   C34635794   2.237   7.023   4.605  0.2221 -0.4493 -0.1731
   85MOL   H34735795   2.162   7.727   4.737 -1.5458  0.3101 -0.1522
   85MOL   H34835796   2.131   7.576   4.831  0.0282 -0.0803 -4.0651
   85MOL   H34935797   2.336   7.605   4.952 -0.6779  0.7280  0.2345
   85MOL   H35035798   2.487   7.236   4.816  1.1915  0.1129 -1.3236
   85MOL   H35135799   2.527   7.338   4.686  1.5537 -2.9494  0.7222
   85MOL   H35235800   2.250   7.240   4.777  0.2418 -1.6229  0.3231
   85MOL   H35335801   2.266   7.304   4.616  1.1638  0.1469 -0.9335
   85MOL   H35435802   2.402   7.063   4.745  0.3020  0.2175 -0.9900
   85MOL   H35535803   2.424   7.112   4.577 -1.0210  0.1632 -0.9401
   85MOL   H35635804   2.156   7.007   4.676 -0.1329 -0.7217 -0.6422
   85MOL   H35735805   2.281   6.930   4.569  0.3693  0.1367 -1.5384
   85MOL   H35835806   2.209   7.072   4.512  0.8563 -3.2056 -1.8661
   85MOL   C35935807   2.417   7.790   4.859  0.3930 -0.9038 -0.3987
   85MOL   C36035808   2.495   7.802   4.991 -0.5083  0.7068  0.5942
   85MOL   C36135809   2.604   7.686   5.016 -0.0874  0.1489 -0.1179
   85MOL   O36235810   2.639   7.608   4.927 -0.4062  0.1777  0.3847
   85MOL   O36335811   2.664   7.699   5.145  0.5091  0.1653  0.5105
   85MOL   C36435812   2.746   7.590   5.188  0.7932  0.3486 -0.6118
   85MOL   C36535813   2.645   7.489   5.257 -0.5847 -0.2127 -0.7313
   85MOL   C36635814   2.566   7.541   5.385  0.6709 -0.5371  0.6856
   85MOL   C36735815   2.660   7.574   5.499  0.5657  0.4256 -0.1367
   85MOL   H36835816   2.350   0.023   4.855  0.8374 -0.6034 -1.9151
   85MOL   H36935817   2.485   7.789   4.774  0.4914  0.7845 -0.3452
   85MOL   H37035818   2.424   7.781   5.071 -1.4362  0.5174 -0.2645
   85MOL   H37135819   2.827   7.631   5.249 -0.2819 -1.1112  1.8573
   85MOL   H37235820   2.796   7.555   5.098 -0.4205  1.0444 -1.5768
   85MOL   H37335821   2.577   7.457   5.178  1.5940 -1.8215 -1.9901
   85MOL   H37435822   2.704   7.400   5.278 -1.4329 -0.4572  0.7394
   85MOL   H37535823   2.496   7.466   5.423 -0.7160  0.2355 -0.3322
   85MOL   H37635824   2.521   7.637   5.360  0.8054 -0.9786 -1.3615
   85MOL   H37735825   2.714   7.480   5.508 -0.3016 -0.0386  0.3537
   85MOL   H37835826   2.609   7.595   5.594 -0.6197  0.4142 -0.7564
   85MOL   H37935827   2.720   7.662   5.476  1.1364 -0.1462 -0.8353
   85MOL   C38035828   2.552   0.097   5.014 -0.2396  0.0929  0.2633
   85MOL   C38135829   2.478   0.178   5.131  0.4009 -0.3251  0.6045
   85MOL   C38235830   2.352   0.253   5.078  0.9084  1.2942  0.5375
   85MOL   O38335831   2.355   0.340   4.993 -0.3122  0.2183 -0.4541
   85MOL   O38435832   2.239   0.213   5.143 -0.2123  0.2520 -0.4599
   85MOL   C38535833   2.112   0.270   5.114 -0.4330 -0.0974 -0.1527
   85MOL   C38635834   2.002   0.198   5.195  0.3072 -0.6539 -0.3464
   85MOL   C38735835   1.865   0.262   5.176 -0.1482  0.9918 -0.0560
   85MOL   C38835836   1.765   0.166   5.249 -0.8709  0.5890 -0.0906
   85MOL   H38935837   2.571   0.149   4.920 -2.0470 -1.5457 -1.0446
   85MOL   H39035838   2.651   0.088   5.057 -0.1674 -0.5804 -0.0449
   85MOL   H39135839   2.549   0.258   5.153 -0.3359  0.8561 -1.1992
   85MOL   H39235840   2.093   0.254   5.007 -3.0929  1.2419  0.0978
   85MOL   H39335841   2.107   0.376   5.137  1.6201  0.1788 -0.8781
   85MOL   H39435842   1.989   0.093   5.166  0.7837 -0.7389 -0.2617
   85MOL   H39535843   2.029   0.200   5.300  0.4377  1.1284 -0.4018
   85MOL   H39635844   1.834   0.263   5.071 -1.0245  3.3719  0.1865
   85MOL   H39735845   1.869   0.369   5.198  0.2050  0.6787  1.3962
   85MOL   H39835846   1.795   0.162   5.354  0.5227 -0.9926 -0.5309
   85MOL   H39935847   1.763   0.069   5.199 -1.0481  1.4210 -1.7419
   85MOL   H40035848   1.662   0.201   5.249 -1.0255  0.1791 -1.6904
   85MOL   C40135849   2.469   0.099   5.265  0.2096 -0.0726  0.4893
   85MOL   C40235850   2.420   0.194   5.384  0.1334  0.1225 -0.5647
   85MOL   C40335851   2.404   0.111   5.512  0.1961  0.0796  0.1138
   85MOL   O40435852   2.346   0.001   5.519 -0.2223 -0.4194  0.3138
   85MOL   O40535853   2.473   0.170   5.608 -0.3039 -0.3184  0.1504
   85MOL   C40635854   2.480   0.121   5.740 -0.1487 -0.8233 -0.1332
   85MOL   C40735855   2.541   0.233   5.823 -0.3847 -0.0929 -0.6092
   85MOL   C40835856   2.563   0.207   5.974 -0.2052  0.5914  0.4866
   85MOL   C40935857   2.581   0.326   6.072  0.5317  0.4683 -0.6274
   85MOL   H41035858   2.570   0.073   5.294  0.2324 -1.4621 -0.8367
   85MOL   H41135859   2.405   0.012   5.255  0.7882 -0.5134  0.6353
   85MOL   H41235860   2.322   0.239   5.367  0.0328  1.1928  2.5221
   85MOL   H41335861   2.549   0.037   5.747  3.3209  2.0626  2.3751
   85MOL   H41435862   2.381   0.101   5.780  0.4316 -1.1911  1.1331
   85MOL   H41535863   2.639   0.252   5.778  0.1132 -1.2268 -0.0399
   85MOL   H41635864   2.476   0.319   5.812 -0.8598  0.4044  4.8687
   85MOL   H41735865   2.654   0.146   5.974 -0.5497  0.0710 -0.4616
   85MOL   H41835866   2.491   0.140   6.022  0.0483  0.9531  1.3927
   85MOL   H41935867   2.599   0.293   6.174  0.2546  0.9888 -0.4101
   85MOL   H42035868   2.481   0.369   6.068  0.9317  1.3014 -1.9401
   85MOL   H42135869   2.655   0.403   6.051  3.2365 -1.3215  1.9031
   85MOL   H42235870   2.494   0.273   5.390  1.2724 -0.9854  0.2779
   86MOL     C135871   4.452   1.677   0.435 -0.1393  0.0591 -0.3288
   86MOL     C235872   4.337   1.750   0.369 -0.6536  0.1935 -0.1248
   86MOL     C335873   4.317   1.728   0.220 -0.3260 -0.3046 -0.1110
   86MOL     O435874   4.374   1.634   0.156  0.0061 -0.0408 -1.0557
   86MOL     O535875   4.246   1.827   0.168 -0.1074  0.7393  0.1205
   86MOL     C635876   4.226   1.824   0.024  0.2674 -0.4347 -0.6140
   86MOL     C735877   4.328   1.889   7.785 -0.0170  0.3945  0.3713
   86MOL     C835878   4.463   1.816   7.791 -0.0036 -0.1712 -0.0178
   86MOL     C935879   4.575   1.864   7.696  0.0686 -0.2304 -0.3349
   86MOL    H1035880   4.421   1.575   0.456  0.0722  0.0951  0.1493
   86MOL    H1135881   4.540   1.675   0.370  0.5565 -0.6586  0.6303
   86MOL    H1235882   4.356   1.857   0.369 -2.9226  0.6158  1.0371
   86MOL    H1335883   4.132   1.877   0.015  0.6283  0.2953 -0.0531
   86MOL    H1435884   4.198   1.726   7.836 -2.2959  0.1146 -0.2656
   86MOL    H1535885   4.283   1.883   7.685 -2.1476 -0.9135  1.3758
   86MOL    H1635886   4.338   1.993   7.814 -2.1095  0.2798  1.5593
   86MOL    H1735887   4.444   1.710   7.772 -0.0947 -0.0026 -0.8937
   86MOL    H1835888   4.505   1.829   0.037 -0.3590 -0.4282  0.1664
   86MOL    H1935889   4.535   1.907   7.605 -2.6193 -2.4455 -0.2557
   86MOL    H2035890   4.625   1.776   7.657 -0.6642 -0.9809  0.4069
   86MOL    H2135891   4.660   1.919   7.737  1.0743 -1.5146 -0.6737
   86MOL    H2235892   4.474   1.717   0.533  1.8211 -1.3419 -0.1595
   86MOL    C2335893   4.209   1.737   0.446  0.6759 -0.0125  0.8362
   86MOL    C2435894   4.226   1.776   0.596 -0.0421 -0.1312  0.5245
   86MOL    C2535895   4.251   1.925   0.615  0.4950  0.6737 -1.0714
   86MOL    O2635896   4.231   2.010   0.535 -0.4158  0.2139  0.7968
   86MOL    O2735897   4.299   1.946   0.739 -0.3459  0.3420  0.2998
   86MOL    C2835898   4.318   2.076   0.791  0.5994 -0.2655 -0.5398
   86MOL    C2935899   4.465   2.097   0.809  0.4326  0.2393 -0.1272
   86MOL    C3035900   4.553   2.081   0.687 -0.3182  0.6204  0.2522
   86MOL    C3135901   4.703   2.047   0.729  0.4577  0.0464 -0.4296
   86MOL    H3235902   4.188   1.632   0.427  1.2867  0.2378 -1.2699
   86MOL    H3335903   4.128   1.795   0.401 -1.3668 -1.7072  2.2085
   86MOL    H3435904   4.307   1.723   0.647  0.6940  0.7806  0.3188
   86MOL    H3535905   4.261   2.089   0.883 -0.0905 -0.2017 -0.9728
   86MOL    H3635906   4.283   2.155   0.725 -1.6267 -1.6596 -1.0905
   86MOL    H3735907   4.488   2.202   0.830  2.7575 -0.5191  1.3018
   86MOL    H3835908   4.492   2.039   0.897  0.5402  0.2134 -0.1777
   86MOL    H3935909   4.532   2.169   0.628 -2.8832  1.5327  2.4284
   86MOL    H4035910   4.522   1.996   0.626  1.2013 -0.1437  0.5009
   86MOL    H4135911   4.711   1.953   0.782  1.2242  1.1258  1.4387
   86MOL    H4235912   4.749   2.123   0.793  0.9913  0.1136 -0.8872
   86MOL    H4335913   4.768   2.046   0.642  0.5751  3.7231 -0.4908
   86MOL    C4435914   4.092   1.738   0.660  0.5556  0.3069 -0.3798
   86MOL    C4535915   4.076   1.591   0.710  0.8476  0.1465  0.4378
   86MOL    C4635916   4.167   1.558   0.832  0.0291  0.2379  0.1538
   86MOL    O4735917   4.238   1.649   0.885  0.3700  0.2664  0.0544
   86MOL    O4835918   4.175   1.428   0.867  0.0300 -0.2428 -0.3552
   86MOL    C4935919   4.253   1.391   0.990  0.0080  0.2829  0.1956
   86MOL    C5035920   4.368   1.307   0.942 -0.2864  0.2549 -0.0217
   86MOL    C5135921   4.478   1.374   0.856 -0.5885  0.1010  0.0885
   86MOL    C5235922   4.584   1.261   0.826  0.3657  0.0104 -0.3048
   86MOL    H5335923   4.010   1.776   0.599 -0.2018 -1.3768 -0.4445
   86MOL    H5435924   4.086   1.797   0.752  1.9835 -2.1280  1.3547
   86MOL    H5535925   4.097   1.518   0.632 -0.1485 -0.8063  1.0549
   86MOL    H5635926   4.182   1.347   1.060  1.2545 -0.4405  1.0398
   86MOL    H5735927   4.285   1.476   1.050 -0.0036  0.8056 -0.5364
   86MOL    H5835928   4.417   1.268   1.030 -0.4801 -0.4943 -0.2445
   86MOL    H5935929   4.334   1.218   0.889  1.9066 -0.9264  0.4986
   86MOL    H6035930   4.523   1.463   0.901 -0.3582  0.2916 -0.5054
   86MOL    H6135931   4.445   1.404   0.757 -0.4743 -1.7375 -0.5244
   86MOL    H6235932   4.664   1.294   0.760  0.4281 -0.3829 -0.4291
   86MOL    H6335933   4.532   1.180   0.774  0.5382  0.0696 -0.5746
   86MOL    H6435934   4.632   1.229   0.919 -0.0588 -0.9414 -0.4042
   86MOL    C6535935   3.925   1.568   0.750 -0.2008  0.3115 -0.4466
   86MOL    C6635936   3.869   1.637   0.880  0.2325  0.8308 -0.2242
   86MOL    C6735937   3.754   1.730   0.862 -0.0360  0.4283  0.2055
   86MOL    O6835938   3.641   1.713   0.915 -0.1431  0.8838 -0.3473
   86MOL    O6935939   3.782   1.829   0.782 -0.1798  0.1914 -0.0667
   86MOL    C7035940   3.684   1.926   0.744 -0.6850  0.0801  1.3420
   86MOL    C7135941   3.719   2.067   0.804 -0.6591  0.7469 -0.2437
   86MOL    C7235942   3.815   2.147   0.722  0.0176 -0.2430 -0.5701
   86MOL    C7335943   3.888   2.256   0.811  0.7157  0.4414  0.6441
   86MOL    H7435944   3.914   1.460   0.757 -1.2240  0.3889 -0.8895
   86MOL    H7535945   3.864   1.595   0.664  0.4460  1.2875 -0.6194
   86MOL    H7635946   3.947   1.702   0.919  1.6464 -1.7735  1.4113
   86MOL    H7735947   3.586   1.893   0.778 -1.2137 -0.4037 -0.5917
   86MOL    H7835948   3.671   1.933   0.635  0.8039 -0.4267  1.1274
   86MOL    H7935949   3.629   2.128   0.815  0.0188  1.8846 -0.8615
   86MOL    H8035950   3.746   2.048   0.907  1.3373  0.8465 -0.7262
   86MOL    H8135951   3.765   2.193   0.637 -0.1582 -2.7044 -1.8302
   86MOL    H8235952   3.899   2.091   0.682  0.7570  0.1949  0.3363
   86MOL    H8335953   3.963   2.311   0.753  1.6555 -0.8764  0.5733
   86MOL    H8435954   3.948   2.215   0.893  1.4510  1.5823  0.6890
   86MOL    H8535955   3.826   2.338   0.847 -0.5753  0.7204 -2.1348
   86MOL    C8635956   3.843   1.524   0.988 -0.1598 -0.2873  0.0329
   86MOL    C8735957   3.837   1.578   1.130  0.1612  0.0293  0.2663
   86MOL    C8835958   3.778   1.474   1.222  1.0319 -0.1270 -0.0829
   86MOL    O8935959   3.680   1.497   1.297  0.3756  0.0221  0.6631
   86MOL    O9035960   3.844   1.365   1.220  0.0075  0.1508 -0.2923
   86MOL    C9135961   3.842   1.284   1.337  0.3647 -0.3523 -0.4568
   86MOL    C9235962   3.947   1.343   1.440  0.2847  0.4043  0.2970
   86MOL    C9335963   4.087   1.297   1.411  0.0204 -0.5287  0.3370
   86MOL    C9435964   4.179   1.359   1.516  0.1861 -1.0690  0.4626
   86MOL    H9535965   3.923   1.451   0.979  0.1104  0.2114 -1.8907
   86MOL    H9635966   3.747   1.481   0.956  0.4224 -1.5124 -0.0885
   86MOL    H9735967   3.779   1.670   1.128  1.6781  1.0728  2.4249
   86MOL    H9835968   3.887   1.194   1.296  2.6432  0.0623  1.0580
   86MOL    H9935969   3.745   1.278   1.387  0.5754  1.0991  0.1730
   86MOL   H10035970   3.931   1.447   1.468 -2.3466 -0.0419  0.6565
   86MOL   H10135971   3.920   1.301   1.537 -3.0779 -0.1343 -0.8091
   86MOL   H10235972   4.108   1.332   1.310 -1.6729 -0.2560  0.0584
   86MOL   H10335973   4.090   1.188   1.421 -0.4322 -0.5122  0.6808
   86MOL   H10435974   4.274   1.306   1.510  1.0449  0.6658 -1.6471
   86MOL   H10535975   4.142   1.339   1.617 -0.1305 -1.3504  0.2916
   86MOL   H10635976   4.206   1.463   1.499 -2.9903 -0.1604  0.7364
   86MOL   C10735977   3.972   1.623   1.187  0.1038 -0.0275 -0.7735
   86MOL   C10835978   3.970   1.758   1.256 -0.2781  0.2190 -0.1640
   86MOL   C10935979   4.067   1.752   1.372 -0.2889  0.9860  0.1075
   86MOL   O11035980   4.031   1.745   1.494 -0.1950  0.3067  0.2074
   86MOL   O11135981   4.198   1.739   1.334  0.0950 -0.1204  0.2156
   86MOL   C11235982   4.297   1.758   1.434 -0.1419 -0.2013  0.3149
   86MOL   C11335983   4.430   1.752   1.371 -0.1978  0.1636  0.9728
   86MOL   C11435984   4.547   1.747   1.482  0.0897  0.4943  0.1395
   86MOL   C11535985   4.683   1.771   1.410  0.1043 -0.3990  0.2848
   86MOL   H11635986   4.045   1.622   1.107  0.6586  1.2286 -0.2944
   86MOL   H11735987   4.009   1.546   1.255 -0.7079  0.7206  0.5367
   86MOL   H11835988   3.870   1.765   1.299 -0.5285  2.3246 -1.0552
   86MOL   H11935989   4.299   1.677   1.506  0.8174 -0.2439  0.2355
   86MOL   H12035990   4.277   1.853   1.483 -0.1000 -1.1273  2.1376
   86MOL   H12135991   4.434   1.658   1.315 -2.7713 -0.9873  2.5952
   86MOL   H12235992   4.448   1.835   1.304 -1.2948 -0.6763 -0.4034
   86MOL   H12335993   4.548   1.655   1.539  3.2227 -0.3509 -1.2046
   86MOL   H12435994   4.538   1.821   1.562 -1.0602 -0.5651  1.0208
   86MOL   H12535995   4.691   1.711   1.320 -3.5641 -1.4954  0.5964
   86MOL   H12635996   4.766   1.744   1.475  1.2198 -1.4891 -1.5546
   86MOL   H12735997   4.701   1.876   1.390  0.7317 -0.3967  0.8465
   86MOL   C12835998   3.996   1.873   1.163  0.4888 -0.3435 -0.0404
   86MOL   C12935999   3.975   2.011   1.228 -0.0368  0.3336  1.2863
   86MOL   C13036000   3.837   2.013   1.303 -0.5254 -1.1694  0.6027
   86MOL   O13136001   3.830   2.030   1.424 -0.3468  0.6258  0.3440
   86MOL   O13236002   3.735   2.011   1.213 -0.0028 -0.2968 -0.2757
   86MOL   C13336003   3.599   2.002   1.250  0.4442 -0.0480 -0.0203
   86MOL   C13436004   3.552   1.855   1.267 -0.0928  0.6495 -0.1854
   86MOL   C13536005   3.403   1.853   1.301 -0.0771  0.2834 -0.4231
   86MOL   C13636006   3.357   1.715   1.353  0.0156  0.5817 -0.3229
   86MOL   H13736007   3.918   1.864   1.088 -0.7358  3.4034  0.6702
   86MOL   H13836008   4.097   1.871   1.122  0.2516 -0.0259 -0.6485
   86MOL   H13936009   3.950   2.080   1.147  2.3470  0.4034  0.5879
   86MOL   H14036010   3.533   2.055   1.180  0.1754  1.2815  1.2137
   86MOL   H14136011   3.577   2.054   1.343 -2.6093 -0.0723 -0.6659
   86MOL   H14236012   3.565   1.791   1.180  0.5808 -0.5095  0.7405
   86MOL   H14336013   3.615   1.804   1.341 -0.4091 -1.2367 -1.1790
   86MOL   H14436014   3.342   1.865   1.211  0.6734 -1.8121 -1.2348
   86MOL   H14536015   3.372   1.937   1.363 -2.1687 -2.1016  1.8946
   86MOL   H14636016   3.408   1.708   1.449  1.0243 -1.9286 -1.0094
   86MOL   H14736017   3.390   1.632   1.291 -1.8902  0.8725 -1.7647
   86MOL   H14836018   3.252   1.715   1.380 -0.5920  2.4245 -2.5306
   86MOL   C14936019   4.098   2.069   1.314  0.4468  0.1578 -0.1867
   86MOL   C15036020   4.131   2.219   1.287 -0.1568  0.3398 -0.1524
   86MOL   C15136021   4.004   2.307   1.291  0.0784 -0.2043  0.2596
   86MOL   O15236022   3.947   2.352   1.188  0.4186 -0.2511 -0.5883
   86MOL   O15336023   3.943   2.320   1.414  0.2372  0.5167 -0.0558
   86MOL   C15436024   3.824   2.403   1.428 -0.1382  0.3059  0.1011
   86MOL   C15536025   3.762   2.387   1.570 -0.0315 -0.0844 -0.3703
   86MOL   C15636026   3.854   2.373   1.692 -0.4528  0.2665 -0.5146
   86MOL   C15736027   3.772   2.362   1.817 -0.3516  0.3103 -0.6154
   86MOL   H15836028   4.191   2.017   1.289  1.4675  1.0572  1.6239
   86MOL   H15936029   4.082   2.049   1.420 -1.8532 -0.4344 -0.6320
   86MOL   H16036030   4.160   2.227   1.183  0.4749  1.3518  0.0853
   86MOL   H16136031   3.762   2.353   1.353  1.6798  0.0951 -1.2861
   86MOL   H16236032   3.831   2.502   1.383 -2.1845  0.6503  0.4625
   86MOL   H16336033   3.723   2.487   1.587  0.7116  0.4024 -1.4797
   86MOL   H16436034   3.670   2.329   1.577 -0.8559  1.2118 -0.4909
   86MOL   H16536035   3.917   2.462   1.691  0.8179 -0.5544  1.9793
   86MOL   H16636036   3.913   2.284   1.669  2.3808  2.3971 -1.7928
   86MOL   H16736037   3.842   2.332   1.896 -0.7281  0.4742 -0.2224
   86MOL   H16836038   3.695   2.285   1.805 -1.1220  0.7307  1.5216
   86MOL   H16936039   3.720   2.455   1.838 -1.6406 -0.8100  1.2914
   86MOL   C17036040   4.239   2.265   1.388 -0.6015 -0.5141  0.8817
   86MOL   C17136041   4.374   2.194   1.381  0.0966 -0.4521  0.4313
   86MOL   C17236042   4.430   2.208   1.240  0.3261  0.1014  0.2153
   86MOL   O17336043   4.425   2.103   1.167  0.3370  0.4272 -0.4852
   86MOL   O17436044   4.483   2.330   1.201  0.7179 -0.4379 -0.3589
   86MOL   C17536045   4.526   2.364   1.073 -0.3174  0.2918 -0.4021
   86MOL   C17636046   4.446   2.485   1.010  0.5479  0.1206  0.0467
   86MOL   C17736047   4.294   2.466   0.988  0.1823 -0.7455  0.5171
   86MOL   C17836048   4.235   2.610   0.950  0.5373 -0.4243  0.4659
   86MOL   H17936049   4.200   2.253   1.489 -1.0687  1.9282  1.0276
   86MOL   H18036050   4.257   2.372   1.378 -0.1264 -0.6852 -0.1056
   86MOL   H18136051   4.367   2.087   1.404 -1.3115 -0.0567  2.0033
   86MOL   H18236052   4.509   2.277   1.009  1.0071 -0.1297 -0.1957
   86MOL   H18336053   4.632   2.389   1.080 -0.9897  2.8545  1.0107
   86MOL   H18436054   4.462   2.576   1.068  1.1108  0.2792 -0.3426
   86MOL   H18536055   4.499   2.508   0.917  2.2816  1.5029  1.3638
   86MOL   H18636056   4.256   2.411   1.074 -1.2401  1.6960  1.4998
   86MOL   H18736057   4.276   2.399   0.905 -1.8701  1.1038 -0.5708
   86MOL   H18836058   4.282   2.647   0.859  0.9160  2.1427  1.6457
   86MOL   H18936059   4.254   2.682   1.031 -2.6504 -0.3078  1.1570
   86MOL   H19036060   4.129   2.600   0.928  1.0255 -2.5144 -1.0781
   86MOL   C19136061   4.470   2.263   1.485 -0.6804  0.0752 -0.1603
   86MOL   C19236062   4.425   2.248   1.629  0.3001  0.0524 -0.4776
   86MOL   C19336063   4.454   2.114   1.698  0.0465  0.3622  0.3274
   86MOL   O19436064   4.365   2.028   1.718  0.9321 -0.0176  0.3429
   86MOL   O19536065   4.585   2.096   1.711  0.2519 -0.3237  0.3886
   86MOL   C19636066   4.630   1.993   1.797 -0.5177  0.3530  0.6994
   86MOL   C19736067   4.785   2.009   1.827  1.1573  0.3456  0.5037
   86MOL   C19836068   4.847   1.878   1.881  0.5001 -1.8058  0.9101
   86MOL   C19936069   4.990   1.911   1.915  0.0590  0.1745 -0.4800
   86MOL   H20036070   4.478   2.367   1.453  1.7481 -0.2609 -0.7869
   86MOL   H20136071   4.569   2.217   1.485 -0.4654  0.5328  0.0451
   86MOL   H20236072   4.316   2.260   1.630  0.2441 -0.4315 -0.7923
   86MOL   H20336073   4.619   1.895   1.750  0.3937  0.3507  0.4691
   86MOL   H20436074   4.570   1.988   1.887 -0.1871 -3.3267  0.7860
   86MOL   H20536075   4.835   2.046   1.738  0.8460 -0.8988 -0.2037
   86MOL   H20636076   4.795   2.094   1.895 -1.4054 -0.2796  1.7362
   86MOL   H20736077   4.840   1.794   1.812 -1.3768  0.4930 -1.8067
   86MOL   H20836078   4.815   1.847   1.981  0.0413 -3.2642  0.3267
   86MOL   H20936079   4.988   1.984   1.996 -1.8360 -0.4347  0.0589
   86MOL   H21036080   5.043   1.949   1.827  1.1527 -0.3893 -0.0657
   86MOL   H21136081   5.047   1.825   1.947  1.7248  2.0019  1.6411
   86MOL   C21236082   4.467   2.377   1.712  0.1184  0.1853  0.1757
   86MOL   C21336083   4.368   2.435   1.815 -0.2780 -0.2323  0.4317
   86MOL   C21436084   4.348   2.341   1.932  0.3787  0.0266  0.4037
   86MOL   O21536085   4.242   2.291   1.950  0.6175 -0.0471  0.2582
   86MOL   O21636086   4.456   2.329   2.012 -0.1620 -0.2874  0.2900
   86MOL   C21736087   4.455   2.225   2.109  0.8824  0.6508 -0.3270
   86MOL   C21836088   4.514   2.263   2.241  0.3886  0.3759  0.0556
   86MOL   C21936089   4.410   2.332   2.324 -0.4126 -0.4530 -0.3542
   86MOL   C22036090   4.448   2.346   2.472  0.2970 -0.3319  1.0553
   86MOL   H22136091   4.493   2.461   1.647  2.1640 -0.1902  0.4779
   86MOL   H22236092   4.562   2.354   1.762  1.1268  2.6992 -0.5082
   86MOL   H22336093   4.272   2.440   1.764  0.1662 -1.6142 -0.5459
   86MOL   H22436094   4.522   2.149   2.070 -1.1134 -1.3299 -0.0349
   86MOL   H22536095   4.353   2.187   2.119  1.2803 -0.0068  1.3719
   86MOL   H22636096   4.539   2.172   2.296 -0.5930 -1.6121 -2.6866
   86MOL   H22736097   4.609   2.315   2.229 -0.3340  2.0196  1.2669
   86MOL   H22836098   4.313   2.284   2.313 -0.0498 -1.5848  1.1762
   86MOL   H22936099   4.384   2.430   2.285  1.4490 -0.4702 -1.7437
   86MOL   H23036100   4.369   2.397   2.528 -0.1958 -1.3299  1.2739
   86MOL   H23136101   4.548   2.389   2.475  1.0758 -2.1706  2.1349
   86MOL   H23236102   4.451   2.250   2.524 -3.4297 -1.3087 -0.3814
   86MOL   C23336103   4.398   2.577   1.859  0.2139 -0.3082 -1.2709
   86MOL   C23436104   4.332   2.688   1.771  0.2007  0.3815  0.0460
   86MOL   C23536105   4.178   2.694   1.798  0.2573 -0.2815  0.1767
   86MOL   O23636106   4.100   2.676   1.708  0.3235 -0.1285  0.1892
   86MOL   O23736107   4.143   2.716   1.931  0.2832 -0.4322 -0.5967
   86MOL   C23836108   4.004   2.719   1.965  0.3257  0.4932  0.1921
   86MOL   C23936109   3.963   2.583   2.014  0.3858 -0.4801  0.7157
   86MOL   C24036110   4.030   2.537   2.140 -0.0415 -0.2129 -0.7525
   86MOL   C24136111   3.983   2.412   2.206  0.2371  0.2854  0.2497
   86MOL   H24236112   4.507   2.588   1.862  0.0333  1.3908 -0.3507
   86MOL   H24336113   4.387   2.590   1.966 -0.0065 -0.2660 -1.2980
   86MOL   H24436114   4.345   2.656   1.667  0.6969 -1.0792  0.5411
   86MOL   H24536115   3.942   2.753   1.882  1.2125  1.7184  0.0366
   86MOL   H24636116   3.986   2.802   2.033 -0.3943  0.6541 -0.1872
   86MOL   H24736117   3.855   2.571   2.020 -0.2953  3.2737 -2.1472
   86MOL   H24836118   4.005   2.513   1.940 -1.5104  0.3378 -1.1642
   86MOL   H24936119   4.025   2.618   2.214  1.1218 -1.3415  0.5911
   86MOL   H25036120   4.134   2.518   2.114  0.5720 -1.8164  2.5812
   86MOL   H25136121   4.055   2.389   2.284 -0.7028  0.0436  1.0658
   86MOL   H25236122   3.982   2.331   2.133 -1.3581  0.8723 -0.4137
   86MOL   H25336123   3.886   2.417   2.256 -0.2476  0.9013 -0.7253
   86MOL   C25436124   4.396   2.832   1.774  0.0920 -0.0029  0.5696
   86MOL   C25536125   4.546   2.835   1.740 -0.4331  1.1955 -0.0458
   86MOL   C25636126   4.568   2.749   1.615  0.5056 -0.1161  0.3823
   86MOL   O25736127   4.634   2.652   1.619  0.0606  0.1972 -0.0381
   86MOL   O25836128   4.519   2.805   1.505  0.6832 -0.6417  0.3282
   86MOL   C25936129   4.499   2.738   1.383  0.4479  0.0778  0.0232
   86MOL   C26036130   4.373   2.654   1.373 -0.4042  0.7200 -0.0566
   86MOL   C26136131   4.234   2.725   1.360 -0.8618 -0.3926  0.2154
   86MOL   C26236132   4.117   2.637   1.344 -0.0041  0.3915  0.0015
   86MOL   H26336133   4.391   2.863   1.878 -0.6631  0.2999  0.4472
   86MOL   H26436134   4.347   2.913   1.721  1.4485  1.2529  1.2062
   86MOL   H26536135   4.581   2.783   1.829  1.2141  1.8082 -0.3256
   86MOL   H26636136   4.589   2.677   1.370 -0.8919 -1.8633 -0.4339
   86MOL   H26736137   4.496   2.810   1.301  1.1632  1.1380  0.9068
   86MOL   H26836138   4.385   2.590   1.286 -0.6982 -0.0450  0.4536
   86MOL   H26936139   4.371   2.590   1.462  0.4412 -1.0299 -1.2738
   86MOL   H27036140   4.238   2.788   1.271 -1.3538 -0.5902  0.0488
   86MOL   H27136141   4.218   2.794   1.442  1.1482  0.0315  0.2746
   86MOL   H27236142   4.122   2.594   1.244  0.3165 -0.2171  0.2779
   86MOL   H27336143   4.024   2.693   1.352 -1.0795 -1.5289  1.2887
   86MOL   H27436144   4.114   2.570   1.430  3.8633 -0.2478 -0.2683
   86MOL   C27536145   4.620   2.974   1.758  0.2125 -0.2044  0.1856
   86MOL   C27636146   4.588   3.089   1.644  0.1099  0.7961 -0.1054
   86MOL   C27736147   4.464   3.163   1.692  0.1485  0.0125  0.5401
   86MOL   O27836148   4.474   3.238   1.793  0.1794 -0.2368 -0.2442
   86MOL   O27936149   4.355   3.153   1.616  0.2993  0.1034 -0.5277
   86MOL   C28036150   4.234   3.215   1.650 -0.9371 -0.4318  0.2499
   86MOL   C28136151   4.179   3.251   1.516  1.4141 -0.5127  0.1180
   86MOL   C28236152   4.036   3.309   1.541 -0.4341  0.1255  0.2853
   86MOL   C28336153   3.954   3.329   1.410 -0.5136  0.1447  0.2711
   86MOL   H28436154   4.726   2.949   1.754  0.3720  0.4879 -0.0012
   86MOL   H28536155   4.602   3.009   1.860  2.1902  1.2534  0.0590
   86MOL   H28636156   4.552   3.048   1.550  2.3217 -1.6390  0.0677
   86MOL   H28736157   4.251   3.303   1.712  0.6780 -0.4909 -0.0991
   86MOL   H28836158   4.164   3.163   1.716  0.0669  0.9018  2.4007
   86MOL   H28936159   4.248   3.324   1.473 -1.2736 -0.0363 -3.5744
   86MOL   H29036160   4.171   3.164   1.451  0.0357  0.2968 -0.8212
   86MOL   H29136161   4.048   3.410   1.580  0.3115  0.5692 -1.0376
   86MOL   H29236162   3.988   3.257   1.623  1.1732 -0.5464  0.8246
   86MOL   H29336163   4.004   3.407   1.353  2.6707  1.0289  4.0317
   86MOL   H29436164   3.854   3.364   1.436 -1.3140 -1.6793 -0.2714
   86MOL   H29536165   3.930   3.245   1.346 -0.6304  0.8374 -0.5982
   86MOL   C29636166   4.713   3.175   1.607 -0.8150  1.0948  0.5127
   86MOL   C29736167   4.787   3.140   1.476  0.2535 -0.1233  0.4792
   86MOL   C29836168   4.709   3.196   1.354  0.4270  0.2016 -0.3728
   86MOL   O29936169   4.758   3.278   1.277 -0.3361  0.3672 -0.1153
   86MOL   O30036170   4.576   3.156   1.349  0.1615  0.2358  0.9615
   86MOL   C30136171   4.488   3.220   1.256 -0.5880  0.0292  0.2309
   86MOL   C30236172   4.443   3.114   1.153  0.1856  0.0668  0.9115
   86MOL   C30336173   4.547   3.026   1.089 -0.4448 -0.2845 -0.4466
   86MOL   C30436174   4.488   2.904   1.019  0.0665 -0.1071 -1.0216
   86MOL   H30536175   4.785   3.186   1.688 -2.5016  0.6410  2.1108
   86MOL   H30636176   4.696   3.283   1.597  1.6747  1.6904  2.1860
   86MOL   H30736177   4.783   3.031   1.475 -1.1821 -0.0788  0.2107
   86MOL   H30836178   4.540   3.299   1.202  1.7824 -0.4523  1.7195
   86MOL   H30936179   4.404   3.266   1.307 -0.5034  0.3111  0.1144
   86MOL   H31036180   4.375   3.057   1.217 -3.1089  3.0804  0.2845
   86MOL   H31136181   4.380   3.166   1.082  1.2283  0.2509  0.1206
   86MOL   H31236182   4.608   2.982   1.167 -1.5140  1.4022  1.4076
   86MOL   H31336183   4.614   3.067   1.014  2.1126 -2.3498  0.6448
   86MOL   H31436184   4.416   2.935   0.943 -0.8511  0.0927 -0.0799
   86MOL   H31536185   4.430   2.850   1.093 -0.0881  1.5112  0.0714
   86MOL   H31636186   4.562   2.838   0.973  1.2456  0.5311 -0.0810
   86MOL   C31736187   4.933   3.186   1.475  0.3244 -0.0834  0.0474
   86MOL   C31836188   5.036   3.123   1.577  0.1152  0.0254 -0.2572
   86MOL   C31936189   5.028   2.969   1.584  0.0225 -0.9163 -0.1129
   86MOL   O32036190   4.955   2.921   1.673  0.0161 -0.1733  0.4788
   86MOL   O32136191   5.095   2.908   1.487 -0.0440 -0.4421 -0.3977
   86MOL   C32236192   5.085   2.768   1.485 -0.2043  0.5361 -0.4658
   86MOL   C32336193   5.181   2.702   1.584 -0.1989 -0.1384  0.2467
   86MOL   C32436194   5.325   2.721   1.550  0.2859 -0.2723  0.2625
   86MOL   C32536195   5.417   2.643   1.645  0.2466 -0.6728  0.8190
   86MOL   H32636196   4.932   3.295   1.487 -3.5195  0.0400 -0.7607
   86MOL   H32736197   4.977   3.157   1.380 -2.4960 -0.5805 -1.1526
   86MOL   H32836198   5.009   3.161   1.675  1.2651  1.1281 -0.3562
   86MOL   H32936199   5.112   2.728   1.388 -0.6093  1.3606 -0.9219
   86MOL   H33036200   4.988   2.726   1.513 -0.7216  2.0248  0.0395
   86MOL   H33136201   5.162   2.723   1.689  0.1266 -1.9604  0.7028
   86MOL   H33236202   5.161   2.594   1.579  0.1814 -0.1526 -0.9778
   86MOL   H33336203   5.357   2.825   1.544 -1.5323  0.3222  0.4029
   86MOL   H33436204   5.349   2.687   1.449  2.6331  1.6317  0.1403
   86MOL   H33536205   5.419   2.706   1.734  1.7144 -0.0399  0.3571
   86MOL   H33636206   5.519   2.630   1.608 -0.1849  1.3083 -1.1894
   86MOL   H33736207   5.390   2.543   1.680 -0.0505 -0.1280  2.1815
   86MOL   C33836208   5.179   3.183   1.561 -1.2485 -0.4784  0.2106
   86MOL   C33936209   5.246   3.231   1.687 -0.8458  0.2599 -0.4039
   86MOL   C34036210   5.277   3.117   1.784  0.0799 -0.5940  0.9176
   86MOL   O34136211   5.368   3.032   1.761  0.1635 -0.1994 -0.7409
   86MOL   O34236212   5.182   3.096   1.875  0.1460  0.0158 -0.5676
   86MOL   C34336213   5.175   2.979   1.955 -0.2450  0.0389 -0.1506
   86MOL   C34436214   5.070   3.011   2.064  0.1746  0.2500  0.9282
   86MOL   C34536215   4.927   3.025   2.022 -0.2726  0.6115 -0.0647
   86MOL   C34636216   4.831   3.084   2.121 -0.5901  0.0154 -0.2526
   86MOL   H34736217   5.168   3.278   1.508 -0.7204 -0.2573  0.4956
   86MOL   H34836218   5.237   3.115   1.499 -0.5615 -0.8989  1.3037
   86MOL   H34936219   5.174   3.295   1.738 -0.7696  1.4626 -1.7667
   86MOL   H35036220   5.270   2.949   1.998  1.5581  5.3021 -0.1038
   86MOL   H35136221   5.140   2.896   1.894 -0.5835 -1.2069  1.6914
   86MOL   H35236222   5.064   2.920   2.123 -1.1003 -0.2205  0.0774
   86MOL   H35336223   5.097   3.102   2.118 -0.3176 -1.0162  3.3569
   86MOL   H35436224   4.883   2.932   1.987  3.0667 -0.1848 -2.4700
   86MOL   H35536225   4.931   3.094   1.937  3.0693 -1.1488 -1.4253
   86MOL   H35636226   4.752   3.126   2.059 -1.5683  2.4252  2.4752
   86MOL   H35736227   4.865   3.173   2.176  0.1733 -0.2962 -0.2131
   86MOL   H35836228   4.789   3.015   2.194  0.1619 -1.0672 -0.8377
   86MOL   C35936229   5.381   3.306   1.661 -0.8968  0.1203  0.1594
   86MOL   C36036230   5.361   3.458   1.707 -0.5513  0.1520 -0.2000
   86MOL   C36136231   5.346   3.456   1.859  0.0109  0.0696  0.1466
   86MOL   O36236232   5.244   3.491   1.921  0.0686  0.4215 -0.5190
   86MOL   O36336233   5.459   3.429   1.914  0.2598  0.1573  0.2094
   86MOL   C36436234   5.480   3.450   2.052  0.6567 -0.1994  1.2457
   86MOL   C36536235   5.632   3.474   2.074 -0.2640 -0.3833 -0.2644
   86MOL   C36636236   5.691   3.598   2.009  0.2916  0.3778 -0.9600
   86MOL   C36736237   5.850   3.605   2.005  0.0798 -0.4653  0.2990
   86MOL   H36836238   5.413   3.293   1.558 -1.1293 -1.3468  0.2692
   86MOL   H36936239   5.469   3.269   1.714 -3.4182 -4.1315  1.6024
   86MOL   H37036240   5.265   3.495   1.672 -1.0978 -0.7358  0.3287
   86MOL   H37136241   5.445   3.367   2.113  1.6149 -0.9850  0.7368
   86MOL   H37236242   5.425   3.541   2.080 -0.3652 -0.7648  1.0850
   86MOL   H37336243   5.661   3.479   2.179  0.5705  0.4779 -0.5330
   86MOL   H37436244   5.690   3.385   2.050  0.0119  0.1082 -1.4884
   86MOL   H37536245   5.653   3.680   2.069  2.3257  0.7040 -0.1021
   86MOL   H37636246   5.645   3.602   1.910  0.4545  0.6395 -1.0249
   86MOL   H37736247   5.879   3.615   2.110  1.4212 -0.5838 -0.0559
   86MOL   H37836248   5.890   3.691   1.951  2.4325 -0.8631  1.3723
   86MOL   H37936249   5.893   3.513   1.966  1.4688  0.3837 -0.2062
   86MOL   C38036250   5.488   3.552   1.673  0.0310 -0.1446  0.2757
   86MOL   C38136251   5.504   3.586   1.527  0.4976  0.4093  0.0638
   86MOL   C38236252   5.372   3.627   1.459 -0.1297 -0.4077  0.2740
   86MOL   O38336253   5.326   3.564   1.370 -0.1993  0.4952  0.6493
   86MOL   O38436254   5.317   3.734   1.524  0.6816  0.6434  0.0752
   86MOL   C38536255   5.213   3.803   1.464 -0.2117 -0.1974  1.0757
   86MOL   C38636256   5.162   3.921   1.556  0.3644  0.4035  0.4438
   86MOL   C38736257   5.270   4.029   1.585 -0.9148 -0.0768 -0.8289
   86MOL   C38836258   5.215   4.153   1.666 -0.2156  0.0302 -0.0564
   86MOL   H38936259   5.578   3.502   1.709 -0.3918 -1.2402 -0.1740
   86MOL   H39036260   5.484   3.638   1.741  2.2898 -0.6676  1.1422
   86MOL   H39136261   5.528   3.489   1.484 -0.7447 -1.0991  2.7010
   86MOL   H39236262   5.119   3.749   1.452  0.1174 -0.7617  1.0170
   86MOL   H39336263   5.248   3.849   1.372  0.4861  2.8272  2.7973
   86MOL   H39436264   5.090   3.976   1.495  3.6832  2.2591 -1.9775
   86MOL   H39536265   5.103   3.881   1.638 -0.5220  2.8976  1.0851
   86MOL   H39636266   5.305   4.061   1.486  1.9652  1.5222  0.6537
   86MOL   H39736267   5.361   3.996   1.634 -0.6200  1.5186 -0.2789
   86MOL   H39836268   5.179   4.119   1.762 -0.1722  1.1948  0.3743
   86MOL   H39936269   5.132   4.211   1.627 -0.5677  0.9400  1.9966
   86MOL   H40036270   5.300   4.219   1.681  1.4412 -1.5313 -2.0240
   86MOL   C40136271   5.613   3.694   1.515 -0.3749 -0.2269 -0.2464
   86MOL   C40236272   5.674   3.690   1.376 -0.0975 -0.0312  0.2492
   86MOL   C40336273   5.798   3.778   1.370  0.0003 -0.5972  0.2593
   86MOL   O40436274   5.907   3.722   1.366 -0.4946 -0.0011  0.1361
   86MOL   O40536275   5.771   3.908   1.345 -0.5416  0.4458 -0.0433
   86MOL   C40636276   5.874   3.996   1.331  0.0469  0.6102 -0.0961
   86MOL   C40736277   5.882   4.067   1.197 -0.5260  0.4739 -0.1894
   86MOL   C40836278   6.004   4.157   1.186  0.4737  0.2987 -0.2572
   86MOL   C40936279   5.995   4.263   1.072  0.0333 -0.2229  0.3497
   86MOL   H41036280   5.697   3.677   1.583 -0.6450  0.0264  0.1527
   86MOL   H41136281   5.571   3.793   1.533  1.0734  0.2656  0.5588
   86MOL   H41236282   5.595   3.734   1.316 -1.7349 -1.1666  1.5222
   86MOL   H41336283   5.972   3.957   1.360  0.6193  1.9816 -0.1576
   86MOL   H41436284   5.853   4.076   1.403 -0.2510 -0.3508  0.9007
   86MOL   H41536285   5.892   3.984   1.126  2.3997  0.2048  0.4487
   86MOL   H41636286   5.787   4.116   1.178 -0.2025  0.6805 -1.2945
   86MOL   H41736287   6.097   4.100   1.181 -0.0952 -0.7962  1.3563
   86MOL   H41836288   6.007   4.200   1.286 -0.3458  0.7915 -0.4408
   86MOL   H41936289   6.048   4.223   0.986  1.8542  0.8247  0.9554
   86MOL   H42036290   6.038   4.357   1.106  0.8172 -0.4991  0.1240
   86MOL   H42136291   5.895   4.288   1.037 -0.2718  0.6719  1.7960
   86MOL   H42236292   5.689   3.587   1.345 -1.7843  0.4172 -2.1968
   87MOL     C136293   2.432   1.100   4.045 -0.7457 -0.6691  0.2309
   87MOL     C236294   2.560   1.180   4.012 -0.1960  1.1185 -0.1074
   87MOL     C336295   2.612   1.147   3.877  0.8274  0.8733  0.5645
   87MOL     O436296   2.611   1.230   3.785  0.5614 -0.2252  0.6759
   87MOL     O536297   2.638   1.015   3.866  0.3587  0.2400  0.3390
   87MOL     C636298   2.675   0.963   3.740 -0.1225  0.1303  0.4597
   87MOL     C736299   2.721   0.818   3.736 -0.0020 -0.1133 -0.5147
   87MOL     C836300   2.831   0.782   3.838  0.0768 -0.2004 -0.2193
   87MOL     C936301   2.896   0.648   3.825 -0.0839 -0.3087  0.0084
   87MOL    H1036302   2.363   1.148   3.976  0.9567 -0.2458 -1.2201
   87MOL    H1136303   2.430   0.991   4.044  2.4304 -0.8031  1.5978
   87MOL    H1236304   2.645   1.143   4.069  0.9560 -1.4190 -3.2993
   87MOL    H1336305   2.754   1.024   3.697 -2.4940  1.8678 -1.6527
   87MOL    H1436306   2.596   0.976   3.666  1.0453  1.5968 -0.5431
   87MOL    H1536307   2.644   0.751   3.776  0.8380 -1.0494 -0.4404
   87MOL    H1636308   2.743   0.790   3.633 -0.6144  0.0364 -0.6917
   87MOL    H1736309   2.802   0.807   3.940 -1.5971  1.4931 -1.0606
   87MOL    H1836310   2.908   0.856   3.819  1.3489 -1.6252 -0.7563
   87MOL    H1936311   2.990   0.657   3.772 -0.6301  0.5914 -0.8159
   87MOL    H2036312   2.827   0.574   3.786  2.6869 -1.8398 -2.1302
   87MOL    H2136313   2.922   0.604   3.922 -0.8819 -1.8205 -0.4375
   87MOL    H2236314   2.411   1.133   4.147  0.0754 -1.1871  0.5692
   87MOL    C2336315   2.563   1.339   4.038 -0.1902  0.2215  0.4108
   87MOL    C2436316   2.564   1.400   4.181  0.0528  0.2656  0.2660
   87MOL    C2536317   2.427   1.398   4.244  0.4908 -0.3674  0.0173
   87MOL    O2636318   2.403   1.339   4.350  0.2420  0.4866 -0.2696
   87MOL    O2736319   2.333   1.478   4.179  0.0164 -0.2018  0.2804
   87MOL    C2836320   2.203   1.484   4.229 -0.4259  0.4452 -0.2302
   87MOL    C2936321   2.107   1.452   4.107  0.3185  0.7307  0.9010
   87MOL    C3036322   2.086   1.307   4.095  0.4698  0.3088  0.4052
   87MOL    C3136323   2.048   1.247   3.959  0.0680  0.8775  0.5166
   87MOL    H3236324   2.480   1.379   3.979  0.8512 -0.7964 -1.7830
   87MOL    H3336325   2.653   1.377   3.991 -0.0884  1.9567  1.9666
   87MOL    H3436326   2.574   1.505   4.155  0.9744  0.3082  0.7528
   87MOL    H3536327   2.178   1.582   4.270 -0.8288  0.7697 -1.2459
   87MOL    H3636328   2.192   1.425   4.320 -1.3224 -0.3369 -0.8466
   87MOL    H3736329   2.006   1.494   4.100  0.1804  0.5412  1.7546
   87MOL    H3836330   2.159   1.482   4.016 -1.1759  3.5852  0.9142
   87MOL    H3936331   2.002   1.287   4.162  0.3588  1.3233  0.5864
   87MOL    H4036332   2.167   1.247   4.137  0.0338 -0.8560 -0.4048
   87MOL    H4136333   2.135   1.253   3.894 -0.6228 -2.7645 -0.8492
   87MOL    H4236334   1.961   1.292   3.913 -0.8785 -0.8134  0.6161
   87MOL    H4336335   2.030   1.140   3.971  1.0366  0.3883 -2.0147
   87MOL    C4436336   2.684   1.345   4.268 -0.5097 -0.4504  0.2448
   87MOL    C4536337   2.824   1.377   4.209 -0.1139  0.1471 -0.0758
   87MOL    C4636338   2.849   1.525   4.192 -0.4958  0.3420  0.2449
   87MOL    O4736339   2.890   1.564   4.084  1.0797 -0.3246  0.0738
   87MOL    O4836340   2.817   1.604   4.289  0.6869  0.1478 -0.0494
   87MOL    C4936341   2.824   1.746   4.287  0.1885  0.3779  0.9219
   87MOL    C5036342   2.712   1.818   4.218 -0.2500 -0.5337  0.2185
   87MOL    C5136343   2.709   1.970   4.251 -0.1287 -0.5005  0.4609
   87MOL    C5236344   2.610   2.038   4.163  1.0036 -0.0510  0.7785
   87MOL    H5336345   2.669   1.237   4.267 -1.3870 -0.3387  1.1597
   87MOL    H5436346   2.675   1.392   4.366 -0.8835 -1.0612  0.5061
   87MOL    H5536347   2.829   1.328   4.112  2.0303 -1.3599  0.7394
   87MOL    H5636348   2.925   1.780   4.263 -0.1445 -0.2116 -1.4956
   87MOL    H5736349   2.811   1.776   4.391 -1.7807  0.9266  0.5324
   87MOL    H5836350   2.734   1.815   4.111 -1.0750  0.5813  0.0024
   87MOL    H5936351   2.610   1.784   4.229 -0.8702  1.3568  0.4698
   87MOL    H6036352   2.805   2.017   4.235  0.4397 -1.8050 -0.0124
   87MOL    H6136353   2.680   1.981   4.356  0.6526  0.1789  0.6121
   87MOL    H6236354   2.620   2.044   4.054 -1.2974 -2.4846  0.3895
   87MOL    H6336355   2.606   2.141   4.199 -0.6359 -0.6112  2.2471
   87MOL    H6436356   2.513   1.990   4.178  0.9802 -0.7051 -1.3012
   87MOL    C6536357   2.930   1.308   4.302  0.2174  0.4815 -0.6452
   87MOL    C6636358   3.058   1.242   4.240  0.1780  0.0076  0.6124
   87MOL    C6736359   3.019   1.109   4.166  0.4586 -0.0133  0.4158
   87MOL    O6836360   2.910   1.094   4.098 -0.0149  0.1310 -0.0525
   87MOL    O6936361   3.119   1.011   4.177  0.5912 -0.7977 -0.3107
   87MOL    C7036362   3.108   0.885   4.113 -0.4949  0.1913  0.4664
   87MOL    C7136363   3.188   0.886   3.980  0.1499 -0.6041 -0.0474
   87MOL    C7236364   3.335   0.870   4.007 -0.3604  0.0626  0.4368
   87MOL    C7336365   3.421   0.870   3.874  0.5276 -0.2179 -0.6787
   87MOL    H7436366   2.887   1.228   4.363  1.8924 -0.3095 -0.4619
   87MOL    H7536367   2.956   1.370   4.387 -0.6288  0.4625 -0.3666
   87MOL    H7636368   3.122   1.213   4.323 -0.1237 -0.3585  0.7168
   87MOL    H7736369   3.005   0.850   4.102  0.1656 -1.5072 -0.6050
   87MOL    H7836370   3.148   0.803   4.173  0.6375  0.4376  0.0445
   87MOL    H7936371   3.166   0.809   3.907  0.0700  0.2946 -0.9937
   87MOL    H8036372   3.179   0.988   3.941  1.6424 -0.0464  1.0116
   87MOL    H8136373   3.344   0.775   4.060 -3.5321 -0.8208 -0.5298
   87MOL    H8236374   3.377   0.951   4.067  0.8504  1.3967 -2.1682
   87MOL    H8336375   3.377   0.802   3.801 -0.3603  0.7052 -1.0273
   87MOL    H8436376   3.527   0.848   3.879  0.7000  0.4511 -1.2413
   87MOL    H8536377   3.418   0.972   3.834  1.4191  0.6304  1.3836
   87MOL    C8636378   3.138   1.347   4.152  0.1955  0.0515 -1.0104
   87MOL    C8736379   3.284   1.311   4.119 -0.5497 -0.3874  0.0554
   87MOL    C8836380   3.319   1.396   3.994 -0.1053 -0.8659  0.7588
   87MOL    O8936381   3.338   1.339   3.885  0.4438  0.1864 -0.1684
   87MOL    O9036382   3.337   1.522   4.031 -0.2074  0.1021 -0.2709
   87MOL    C9136383   3.363   1.616   3.939  0.4882  0.3591  0.5235
   87MOL    C9236384   3.238   1.691   3.903 -0.1199 -0.5838 -0.7533
   87MOL    C9336385   3.192   1.770   4.025 -0.6275 -0.6206  0.2474
   87MOL    C9436386   3.084   1.874   4.018  0.8839  0.4036  0.5943
   87MOL    H9536387   3.135   1.441   4.206 -2.3930 -0.6884  0.2147
   87MOL    H9636388   3.078   1.365   4.063  0.8384  1.8290 -1.1019
   87MOL    H9736389   3.287   1.205   4.094 -0.4190 -0.2081 -0.7277
   87MOL    H9836390   3.404   1.586   3.842  0.1130  2.0903 -0.1919
   87MOL    H9936391   3.444   1.676   3.981 -0.1865  0.5107  1.6052
   87MOL   H10036392   3.280   1.762   3.831 -0.2249 -0.4536 -0.6863
   87MOL   H10136393   3.157   1.637   3.854 -0.8350  0.8579 -1.1990
   87MOL   H10236394   3.284   1.817   4.060 -0.2102  1.1335 -3.0167
   87MOL   H10336395   3.163   1.698   4.101 -2.7384  1.4670  1.5142
   87MOL   H10436396   2.983   1.833   4.024  0.8467  0.4330  0.2039
   87MOL   H10536397   3.086   1.939   3.931  2.9664  1.1240  1.1644
   87MOL   H10636398   3.086   1.943   4.101  2.5667  1.3646 -0.2264
   87MOL   C10736399   3.387   1.334   4.231  0.0716  0.1195  0.0715
   87MOL   C10836400   3.533   1.295   4.205 -0.1045  0.4250 -0.1285
   87MOL   C10936401   3.631   1.381   4.279  0.1500  0.2918 -0.1517
   87MOL   O11036402   3.599   1.444   4.379 -0.0886  0.6608  0.0796
   87MOL   O11136403   3.752   1.375   4.219 -0.0172  0.1963  0.1518
   87MOL   C11236404   3.863   1.465   4.262  0.2226  0.4862 -0.2803
   87MOL   C11336405   3.832   1.608   4.217  0.0325 -0.7015 -0.3195
   87MOL   C11436406   3.819   1.633   4.072  0.4398  0.4887 -0.2328
   87MOL   C11536407   3.776   1.777   4.047  0.2234 -0.2013  0.4961
   87MOL   H11636408   3.344   1.268   4.307  0.4943  0.1926  0.3727
   87MOL   H11736409   3.376   1.435   4.273 -1.4773  0.7185 -1.6897
   87MOL   H11836410   3.554   1.304   4.098 -0.1476  0.6360 -0.1199
   87MOL   H11936411   3.958   1.432   4.221  0.2470 -0.6583  0.6971
   87MOL   H12036412   3.874   1.457   4.370 -1.4870  2.2665  0.0661
   87MOL   H12136413   3.757   1.656   4.281  0.2755 -0.9376  0.1411
   87MOL   H12236414   3.917   1.655   4.266 -1.6578  1.2569  0.8661
   87MOL   H12336415   3.756   1.557   4.025  0.8653 -1.1073  1.7251
   87MOL   H12436416   3.910   1.615   4.014 -0.1251  1.8547 -1.5725
   87MOL   H12536417   3.670   1.791   4.066 -0.3185 -1.8828 -1.1135
   87MOL   H12636418   3.789   1.790   3.939  1.7469 -0.6283  0.6134
   87MOL   H12736419   3.835   1.845   4.107  1.8407 -1.5163  0.4432
   87MOL   C12836420   3.547   1.143   4.246 -0.3312 -0.3920 -0.0745
   87MOL   C12936421   3.678   1.066   4.227  0.0886 -0.0571 -0.3052
   87MOL   C13036422   3.674   0.918   4.266  0.3794  1.1371 -0.4213
   87MOL   O13136423   3.696   0.889   4.380  0.2912  0.4877 -0.8167
   87MOL   O13236424   3.645   0.836   4.166 -0.1927  0.3115 -0.0753
   87MOL   C13336425   3.658   0.692   4.184 -0.7143 -0.3257  0.2475
   87MOL   C13436426   3.709   0.628   4.054 -0.2080  0.3096 -0.0178
   87MOL   C13536427   3.768   0.487   4.077 -0.5943 -0.5046  0.8801
   87MOL   C13636428   3.786   0.405   3.952  0.8267  0.4254  0.0176
   87MOL   H13736429   3.473   1.089   4.187 -0.1244 -2.5788  1.6133
   87MOL   H13836430   3.509   1.137   4.348  0.0639  0.3296  0.1217
   87MOL   H13936431   3.757   1.109   4.290 -1.8551  1.0947  1.4022
   87MOL   H14036432   3.581   0.645   4.244 -0.6989 -1.6069 -0.7061
   87MOL   H14136433   3.740   0.679   4.256 -1.0043 -0.8131  0.4931
   87MOL   H14236434   3.631   0.636   3.979 -0.0853 -2.2514 -0.4665
   87MOL   H14336435   3.790   0.686   4.009  1.9793 -1.8637  1.0019
   87MOL   H14436436   3.711   0.417   4.138 -1.6452 -0.0804  0.4008
   87MOL   H14536437   3.865   0.500   4.126 -0.4878 -0.0387  0.5488
   87MOL   H14636438   3.844   0.458   3.877  1.1338 -0.5268 -0.4301
   87MOL   H14736439   3.691   0.380   3.904  0.0894  3.0551  0.0421
   87MOL   H14836440   3.845   0.315   3.968  1.2126  0.7743  0.5715
   87MOL   C14936441   3.728   1.098   4.078 -0.1942  0.3229  0.3596
   87MOL   C15036442   3.867   1.044   4.042 -0.0863 -0.3926 -0.0926
   87MOL   C15136443   3.886   0.980   3.905  0.5293 -0.1372  0.4765
   87MOL   O15236444   3.966   0.889   3.887 -0.3475 -0.1801  0.1239
   87MOL   O15336445   3.826   1.054   3.805  0.1770 -0.1571  0.3980
   87MOL   C15436446   3.835   1.021   3.666  0.0026 -0.4125 -0.4200
   87MOL   C15536447   3.695   1.005   3.611  0.4790  0.2798 -0.2294
   87MOL   C15636448   3.684   1.009   3.457 -0.7744  0.1974  0.2679
   87MOL   C15736449   3.545   1.001   3.400  0.1523  0.0755 -0.2795
   87MOL   H15836450   3.729   1.201   4.044 -0.8594 -0.1574 -1.1808
   87MOL   H15936451   3.654   1.044   4.018  2.3051 -1.9341 -0.7989
   87MOL   H16036452   3.895   0.953   4.096 -0.3282 -0.2732  0.2352
   87MOL   H16136453   3.903   0.936   3.658  0.6166  0.1780 -1.6450
   87MOL   H16236454   3.878   1.114   3.628 -1.2031 -0.9373 -3.2025
   87MOL   H16336455   3.652   0.915   3.655  1.6867 -0.2906 -0.1880
   87MOL   H16436456   3.629   1.084   3.646  0.3411 -0.1045  0.3963
   87MOL   H16536457   3.751   0.936   3.411  1.1472  1.8735  0.3460
   87MOL   H16636458   3.729   1.104   3.431  0.9023 -0.3296  1.1723
   87MOL   H16736459   3.470   1.059   3.453  0.0814  0.7604 -1.1111
   87MOL   H16836460   3.515   0.898   3.417  1.2127 -0.0535  0.8609
   87MOL   H16936461   3.533   1.014   3.292 -1.0653  2.2694  0.0957
   87MOL   C17036462   3.982   1.142   4.072  0.3643  0.3342 -0.5241
   87MOL   C17136463   4.089   1.082   4.169  0.2942  0.0043  0.4225
   87MOL   C17236464   4.212   1.168   4.164  0.3090 -0.2220  0.4529
   87MOL   O17336465   4.251   1.229   4.257 -0.3734 -0.2227 -0.4606
   87MOL   O17436466   4.262   1.164   4.036 -0.2950 -0.2919 -0.3751
   87MOL   C17536467   4.372   1.256   4.007 -0.5090 -0.3724  0.3740
   87MOL   C17636468   4.508   1.180   4.010 -0.3052 -0.2645 -0.1032
   87MOL   C17736469   4.631   1.271   3.965  0.3288  0.1482  0.1545
   87MOL   C17836470   4.767   1.197   3.972  0.0412 -0.8332  0.0362
   87MOL   H17936471   3.933   1.227   4.122 -0.9048  0.3942 -1.8347
   87MOL   H18036472   4.007   1.189   3.977  1.0385  2.0876  0.4906
   87MOL   H18136473   4.115   0.986   4.123  0.3973 -0.1285  0.7562
   87MOL   H18236474   4.380   1.332   4.085 -0.2659 -0.4317  0.4077
   87MOL   H18336475   4.368   1.309   3.912  3.4351  2.2378  1.5441
   87MOL   H18436476   4.535   1.148   4.111 -2.8364  0.0363  0.7019
   87MOL   H18536477   4.511   1.087   3.953  1.6554  0.7162 -1.6443
   87MOL   H18636478   4.643   1.359   4.029  0.4241  0.9415 -0.9462
   87MOL   H18736479   4.607   1.307   3.865 -0.4400  1.1626  0.6942
   87MOL   H18836480   4.820   1.218   3.880 -0.4955 -1.1240 -0.3447
   87MOL   H18936481   4.749   1.090   3.974  0.1107 -0.8722 -1.1984
   87MOL   H19036482   4.833   1.231   4.052  0.5908  1.3902 -1.3157
   87MOL   C19136483   4.041   1.058   4.322 -0.5548  0.2793 -0.2577
   87MOL   C19236484   4.133   0.983   4.428  0.4265  0.5520  0.7839
   87MOL   C19336485   4.240   0.889   4.357  0.2490  0.0641 -0.2555
   87MOL   O19436486   4.360   0.912   4.347  0.0467  0.1777  0.4917
   87MOL   O19536487   4.169   0.795   4.290 -0.1303 -0.3211  0.3832
   87MOL   C19636488   4.233   0.692   4.212  0.1629  0.0515 -0.0472
   87MOL   C19736489   4.125   0.618   4.117 -0.3399 -0.1300 -0.4581
   87MOL   C19836490   4.172   0.485   4.052 -0.0028 -0.4209  0.0654
   87MOL   C19936491   4.195   0.378   4.153 -0.2158  0.6251 -0.1143
   87MOL   H20036492   3.958   0.987   4.320  0.9913 -1.6147  1.0384
   87MOL   H20136493   3.994   1.148   4.362  1.3225  1.5628 -0.9155
   87MOL   H20236494   4.074   0.927   4.501 -1.2955  2.0242  0.5559
   87MOL   H20336495   4.266   0.616   4.282 -0.2761 -1.1397 -1.1077
   87MOL   H20436496   4.324   0.714   4.157  0.1419 -2.2808 -1.0885
   87MOL   H20536497   4.041   0.585   4.178 -0.3248  0.4338 -0.1269
   87MOL   H20636498   4.087   0.692   4.047  1.7484  2.6228  1.2338
   87MOL   H20736499   4.256   0.492   3.982 -1.0264 -0.1471 -1.1462
   87MOL   H20836500   4.086   0.465   3.988  0.1936  1.1246 -0.7128
   87MOL   H20936501   4.222   0.294   4.089 -1.1327 -0.8592  1.3864
   87MOL   H21036502   4.101   0.360   4.204  0.1306  0.1291  0.3631
   87MOL   H21136503   4.279   0.381   4.223  0.8638 -3.4486 -1.0680
   87MOL   C21236504   4.208   1.079   4.528 -0.1898 -0.3225 -0.9183
   87MOL   C21336505   4.135   1.203   4.583 -0.3843  0.6321  0.0116
   87MOL   C21436506   3.995   1.181   4.639 -0.0868 -0.3703  0.0098
   87MOL   O21536507   3.963   1.064   4.681  0.0354  0.7507 -0.0959
   87MOL   O21636508   3.909   1.278   4.611  0.0853 -0.3202 -0.2283
   87MOL   C21736509   3.779   1.265   4.657  0.3037 -0.2959 -0.1973
   87MOL   C21836510   3.755   1.301   4.803  0.6037 -0.0579 -0.4276
   87MOL   C21936511   3.623   1.242   4.844  0.4950  0.0593  0.4808
   87MOL   C22036512   3.567   1.285   4.982  0.3997 -0.5584 -0.1015
   87MOL   H22136513   4.302   1.112   4.483 -1.0451  0.7607 -1.9469
   87MOL   H22236514   4.244   1.012   4.606  1.6776  0.6072 -0.9718
   87MOL   H22336515   4.133   1.264   4.493  2.9271 -0.7936 -1.1237
   87MOL   H22436516   3.741   1.165   4.636 -2.1704  0.7489 -0.9082
   87MOL   H22536517   3.717   1.332   4.598  0.2019 -0.3645 -0.1697
   87MOL   H22636518   3.834   1.259   4.865 -1.1032 -0.2154  1.7124
   87MOL   H22736519   3.766   1.408   4.816 -1.2069 -0.0362  1.0864
   87MOL   H22836520   3.633   1.134   4.858 -0.5162 -0.1886 -0.6832
   87MOL   H22936521   3.549   1.269   4.770  0.4127 -1.0678  0.1421
   87MOL   H23036522   3.467   1.245   5.001  0.0557  0.8355  1.1448
   87MOL   H23136523   3.565   1.394   4.986 -1.8118 -0.6222  1.6943
   87MOL   H23236524   3.629   1.241   5.059 -1.6336  0.5463  2.2475
   87MOL   C23336525   4.223   1.276   4.691  0.0168 -0.2504 -0.1034
   87MOL   C23436526   4.204   1.425   4.685  0.0418 -0.2711  0.4365
   87MOL   C23536527   4.227   1.509   4.815 -0.6617 -0.3821  0.4924
   87MOL   O23636528   4.335   1.503   4.875  0.0036 -0.4692 -0.4824
   87MOL   O23736529   4.129   1.592   4.842  0.4836  0.3474  0.2494
   87MOL   C23836530   4.123   1.680   4.954  0.6650  0.5910 -0.4595
   87MOL   C23936531   3.983   1.712   5.006 -0.2353 -0.2788 -0.3402
   87MOL   C24036532   3.902   1.587   5.038 -0.0905 -0.5641 -0.2186
   87MOL   C24136533   3.783   1.613   5.127 -0.3764 -0.4312 -0.1267
   87MOL   H24236534   4.327   1.244   4.681  0.1293  0.5708 -1.7814
   87MOL   H24336535   4.195   1.236   4.788 -2.1431 -1.1321 -1.0673
   87MOL   H24436536   4.098   1.441   4.662 -0.1387  1.4402  2.3519
   87MOL   H24536537   4.169   1.778   4.946 -1.2729  1.5923  0.3247
   87MOL   H24636538   4.176   1.635   5.038 -0.6213 -0.7145 -0.3199
   87MOL   H24736539   3.992   1.780   5.090  4.8792  1.1614 -1.8880
   87MOL   H24836540   3.939   1.770   4.924 -1.5057  0.5032  0.8812
   87MOL   H24936541   3.963   1.511   5.088  0.4089  1.1675  1.8744
   87MOL   H25036542   3.872   1.542   4.943  2.5510  1.0382 -1.8555
   87MOL   H25136543   3.806   1.665   5.220  0.5888  1.5399 -1.4361
   87MOL   H25236544   3.732   1.519   5.147 -2.6286  0.5835 -0.8934
   87MOL   H25336545   3.718   1.682   5.073  1.5281  1.7671  0.3018
   87MOL   C25436546   4.272   1.489   4.561  0.6262  0.0209 -0.1877
   87MOL   C25536547   4.187   1.577   4.463  0.1733  0.0317  0.5202
   87MOL   C25636548   4.094   1.675   4.540 -0.2900 -0.0482 -0.6388
   87MOL   O25736549   4.144   1.771   4.603  0.0459 -0.4021  0.3088
   87MOL   O25836550   3.972   1.648   4.526  0.1521  0.3421  0.3317
   87MOL   C25936551   3.873   1.733   4.571  0.2251 -0.6151 -0.1286
   87MOL   C26036552   3.773   1.651   4.646 -0.6818  0.0497 -1.2335
   87MOL   C26136553   3.656   1.732   4.702  0.4123  0.1474  0.1359
   87MOL   C26236554   3.536   1.647   4.742  0.2659  0.2796  0.0939
   87MOL   H26336555   4.305   1.399   4.508  0.6310 -0.6555  0.9536
   87MOL   H26436556   4.371   1.526   4.588 -0.4894 -0.1143  4.4026
   87MOL   H26536557   4.131   1.502   4.408  1.0074  1.5755 -2.5868
   87MOL   H26636558   3.828   1.794   4.493  0.1489  0.6169  0.8603
   87MOL   H26736559   3.915   1.803   4.643  1.0928 -2.2070  0.9495
   87MOL   H26836560   3.731   1.581   4.573  1.8651 -2.1474 -0.6789
   87MOL   H26936561   3.814   1.590   4.726 -1.6800  0.2330 -0.5688
   87MOL   H27036562   3.626   1.801   4.624  1.7226 -0.7210 -1.1782
   87MOL   H27136563   3.698   1.788   4.786  0.9166  0.0285 -0.0361
   87MOL   H27236564   3.482   1.611   4.654 -1.6054 -1.5947  1.9262
   87MOL   H27336565   3.466   1.711   4.794  1.4253  2.7538 -1.3257
   87MOL   H27436566   3.563   1.567   4.811  1.1269  0.5684  0.0971
   87MOL   C27536567   4.277   1.654   4.366  0.2832  0.3448  0.5199
   87MOL   C27636568   4.206   1.732   4.250 -0.7495  0.1339 -0.0487
   87MOL   C27736569   4.153   1.874   4.294  0.7949  0.6249 -0.0775
   87MOL   O27836570   4.037   1.914   4.263 -0.5547  0.0538 -0.6985
   87MOL   O27936571   4.250   1.942   4.360  0.9326  0.4863 -0.1134
   87MOL   C28036572   4.229   2.069   4.415  0.2443  0.1383  0.4260
   87MOL   C28136573   4.362   2.123   4.476  0.4573  0.0782 -0.2653
   87MOL   C28236574   4.466   2.143   4.366 -0.0398 -0.6606 -0.5235
   87MOL   C28336575   4.427   2.260   4.273  0.4076 -0.0354  0.4855
   87MOL   H28436576   4.334   1.575   4.318  1.4548 -0.2108  2.7485
   87MOL   H28536577   4.341   1.724   4.421 -0.2839  0.5344  0.9425
   87MOL   H28636578   4.120   1.670   4.227 -0.3430 -0.5772  0.3176
   87MOL   H28736579   4.154   2.058   4.493  0.1127 -0.3517  0.2337
   87MOL   H28836580   4.196   2.133   4.333 -2.6214 -0.9264  0.6819
   87MOL   H28936581   4.342   2.219   4.524 -1.5708 -1.5153  2.2145
   87MOL   H29036582   4.401   2.058   4.554 -0.9153 -2.6282 -1.7441
   87MOL   H29136583   4.489   2.050   4.313  2.7677  1.4820 -3.2444
   87MOL   H29236584   4.558   2.173   4.415  0.0953  0.2607 -1.3280
   87MOL   H29336585   4.354   2.224   4.201  0.7541 -1.6409  0.9093
   87MOL   H29436586   4.518   2.298   4.226  0.1530  0.5456  0.4590
   87MOL   H29536587   4.381   2.347   4.319  1.9500  0.5564  0.9639
   87MOL   C29636588   4.308   1.752   4.139 -0.5550 -0.2038  0.2797
   87MOL   C29736589   4.336   1.626   4.049 -0.6376 -0.4619  0.0696
   87MOL   C29836590   4.206   1.567   3.989 -0.8591  0.0952 -0.0830
   87MOL   O29936591   4.135   1.482   4.051 -0.5687 -0.5608 -0.3292
   87MOL   O30036592   4.167   1.623   3.872  0.1273  0.3885 -0.1966
   87MOL   C30136593   4.049   1.580   3.799 -0.0454  0.8026  0.0493
   87MOL   C30236594   4.092   1.480   3.685  0.4131  0.3967  0.1154
   87MOL   C30336595   4.092   1.333   3.725  0.2096 -0.4207  0.0933
   87MOL   C30436596   4.137   1.235   3.611  0.3424  0.3789  0.5077
   87MOL   H30536597   4.395   1.798   4.185 -0.5989  0.1944 -0.0225
   87MOL   H30636598   4.264   1.825   4.070  0.0860 -0.2387 -0.1719
   87MOL   H30736599   4.374   1.551   4.119  2.6197  1.7407  0.7246
   87MOL   H30836600   3.996   1.669   3.765  0.2976  1.0788  0.2248
   87MOL   H30936601   3.973   1.527   3.855 -0.5522  1.0246 -0.4269
   87MOL   H31036602   4.027   1.491   3.598 -0.1586 -3.2003 -0.0052
   87MOL   H31136603   4.186   1.507   3.636 -0.0290  0.0796 -0.9201
   87MOL   H31236604   3.990   1.314   3.759  0.3390 -0.8271  0.2654
   87MOL   H31336605   4.155   1.309   3.810 -1.3062 -0.2642  1.2747
   87MOL   H31436606   4.121   1.134   3.648  0.8429  0.7903  1.8888
   87MOL   H31536607   4.244   1.229   3.591  0.5044 -1.5244  1.8384
   87MOL   H31636608   4.081   1.250   3.519  2.6346 -0.0110 -0.9859
   87MOL   C31736609   4.447   1.642   3.937 -0.4957  0.8074  0.0805
   87MOL   C31836610   4.466   1.771   3.857  0.3981 -0.3350  0.2885
   87MOL   C31936611   4.549   1.878   3.934  0.5160 -0.2453 -0.0924
   87MOL   O32036612   4.642   1.838   4.006 -0.2276 -0.2744 -0.1791
   87MOL   O32136613   4.513   2.006   3.900 -0.8238  0.1504  0.5955
   87MOL   C32236614   4.603   2.110   3.933 -0.4302 -0.6302  0.2150
   87MOL   C32336615   4.556   2.242   3.866  0.2781  0.2133 -0.0252
   87MOL   C32436616   4.656   2.358   3.883  0.6575  0.0412 -0.0845
   87MOL   C32536617   4.622   2.481   3.809  0.4911 -0.6636  0.5831
   87MOL   H32636618   4.433   1.556   3.871  0.8803  2.0982 -1.9482
   87MOL   H32736619   4.543   1.612   3.981 -0.8330  0.2672  0.4566
   87MOL   H32836620   4.367   1.816   3.855 -0.1976 -1.6679 -0.8378
   87MOL   H32936621   4.706   2.090   3.901 -0.3568 -1.5633  0.9963
   87MOL   H33036622   4.611   2.122   4.041  0.5487 -0.2428  0.1116
   87MOL   H33136623   4.536   2.222   3.761 -1.8219  1.0104  0.1892
   87MOL   H33236624   4.463   2.261   3.919  0.4953  1.4829 -0.0859
   87MOL   H33336625   4.752   2.315   3.852 -1.0737 -1.0428 -4.3003
   87MOL   H33436626   4.660   2.383   3.989 -0.9293 -0.0916  0.0231
   87MOL   H33536627   4.709   2.546   3.818 -0.2817  0.6079 -0.7606
   87MOL   H33636628   4.541   2.537   3.856  0.9111 -1.8441  2.7523
   87MOL   H33736629   4.596   2.456   3.706  0.0121 -2.5375  1.1499
   87MOL   C33836630   4.543   1.758   3.724  0.2386  0.3172 -0.2369
   87MOL   C33936631   4.480   1.668   3.623 -0.3971  0.3864  0.7919
   87MOL   C34036632   4.353   1.722   3.558  0.3266 -0.6296 -0.4420
   87MOL   O34136633   4.293   1.819   3.597 -0.4996 -0.2922  0.3494
   87MOL   O34236634   4.300   1.640   3.455  0.4882 -0.2113 -0.6174
   87MOL   C34336635   4.184   1.679   3.394 -0.1428 -0.1615  0.1868
   87MOL   C34436636   4.137   1.571   3.296 -0.1585 -0.6515 -0.2373
   87MOL   C34536637   4.229   1.543   3.181  0.2416 -0.4275 -0.5362
   87MOL   C34636638   4.187   1.430   3.083 -0.1201 -0.5082  0.4859
   87MOL   H34736639   4.651   1.743   3.733  0.9707  4.7502 -0.1443
   87MOL   H34836640   4.535   1.858   3.681 -1.2593  0.4150  0.2550
   87MOL   H34936641   4.444   1.580   3.675 -1.6974 -0.2690 -1.1617
   87MOL   H35036642   4.191   1.777   3.347  2.3869 -1.0149 -1.3419
   87MOL   H35136643   4.103   1.699   3.464  0.3005  0.4313  0.5335
   87MOL   H35236644   4.133   1.476   3.349 -2.3444  1.2673  3.2517
   87MOL   H35336645   4.036   1.590   3.260 -0.0812  3.2492  1.4131
   87MOL   H35436646   4.322   1.505   3.223  0.0473  1.6292  1.8533
   87MOL   H35536647   4.234   1.634   3.120  1.1141 -1.3639 -1.8923
   87MOL   H35636648   4.097   1.469   3.034  1.0729  3.7640  1.4580
   87MOL   H35736649   4.175   1.329   3.121 -1.1658 -0.5925 -0.0417
   87MOL   H35836650   4.262   1.416   3.005 -1.6679 -0.5255 -1.0227
   87MOL   C35936651   4.581   1.619   3.514  0.0184  0.4825  0.2782
   87MOL   C36036652   4.647   1.481   3.560  0.2904  0.2330 -0.1091
   87MOL   C36136653   4.552   1.362   3.531  0.2994 -0.1264 -0.2173
   87MOL   O36236654   4.486   1.305   3.619  0.4163 -0.0444  0.4155
   87MOL   O36336655   4.550   1.334   3.405 -0.1060 -0.2471 -0.1737
   87MOL   C36436656   4.511   1.201   3.363  0.2046 -0.2351  0.1123
   87MOL   C36536657   4.499   1.195   3.212 -0.4515 -0.6023  0.0734
   87MOL   C36636658   4.434   1.067   3.162  0.4489  0.0121  0.6691
   87MOL   C36736659   4.398   1.062   3.012 -0.2336  0.3489  0.2959
   87MOL   H36836660   4.659   1.695   3.502  2.0729 -1.0804  3.1831
   87MOL   H36936661   4.537   1.615   3.414  0.0213 -0.5981  0.3120
   87MOL   H37036662   4.643   1.484   3.669  0.5463 -1.4744 -0.0490
   87MOL   H37136663   4.418   1.170   3.411 -0.6951  2.7044  0.3175
   87MOL   H37236664   4.587   1.126   3.387  0.7810  0.5583  0.8083
   87MOL   H37336665   4.436   1.277   3.179  0.8512  0.4746  0.2529
   87MOL   H37436666   4.597   1.222   3.173 -0.0555 -1.7333  0.2566
   87MOL   H37536667   4.342   1.044   3.215 -0.4339  0.5699 -0.5899
   87MOL   H37636668   4.494   0.984   3.199  0.7345  0.4414  1.1711
   87MOL   H37736669   4.483   1.087   2.948  0.6473 -3.1644  0.0109
   87MOL   H37836670   4.313   1.127   2.993 -0.5815  0.5868  2.4976
   87MOL   H37936671   4.365   0.962   2.984 -0.9479 -0.0353  2.3916
   87MOL   C38036672   4.793   1.450   3.515 -0.4511  0.3433  0.1417
   87MOL   C38136673   4.900   1.555   3.565  0.0167  0.3432 -0.1491
   87MOL   C38236674   4.896   1.580   3.718 -0.1969  0.8168  0.0206
   87MOL   O38336675   4.894   1.483   3.797  0.2952  0.3595  0.2353
   87MOL   O38436676   4.909   1.704   3.758 -0.0537  0.0704  0.5296
   87MOL   C38536677   4.913   1.742   3.895 -0.3818  0.4820  0.1543
   87MOL   C38636678   5.050   1.725   3.957  0.2691 -0.2929  0.1364
   87MOL   C38736679   5.066   1.773   4.101  0.2042  0.7518 -0.1334
   87MOL   C38836680   5.212   1.747   4.140  0.2462  0.2445 -0.4094
   87MOL   H38936681   4.803   1.435   3.408  3.0002  1.3270  0.2564
   87MOL   H39036682   4.826   1.352   3.550 -1.0055  0.1464  0.1087
   87MOL   H39136683   4.874   1.649   3.516 -1.4802 -1.1573 -2.2792
   87MOL   H39236684   4.840   1.679   3.945  0.3442 -0.8312 -0.4049
   87MOL   H39336685   4.873   1.844   3.900  0.9744  1.0460 -0.2680
   87MOL   H39436686   5.072   1.619   3.960  1.8386 -0.0278 -1.5054
   87MOL   H39536687   5.119   1.775   3.889  0.3365 -0.4237  0.1089
   87MOL   H39636688   4.994   1.729   4.170  0.8668  1.7607  1.2221
   87MOL   H39736689   5.045   1.880   4.111  0.0390  0.6356  0.7922
   87MOL   H39836690   5.243   1.751   4.245 -0.2324 -1.1454 -0.2054
   87MOL   H39936691   5.269   1.818   4.079 -0.3728 -0.4279 -1.7953
   87MOL   H40036692   5.248   1.650   4.107 -1.1150 -0.2569 -0.4679
   87MOL   C40136693   5.042   1.522   3.526 -0.4589 -0.2227  0.0269
   87MOL   C40236694   5.147   1.636   3.508  0.1749 -0.0315 -0.8813
   87MOL   C40336695   5.131   1.712   3.378 -0.3497  0.2292  0.2494
   87MOL   O40436696   5.023   1.754   3.339 -0.3290  0.2446 -0.4272
   87MOL   O40536697   5.251   1.748   3.330 -0.1322 -0.2808  0.3044
   87MOL   C40636698   5.263   1.832   3.212  0.0501 -0.3766  0.7546
   87MOL   C40736699   5.262   1.731   3.087 -0.7722  0.0259  0.1955
   87MOL   C40836700   5.272   1.816   2.955  0.4299  0.7009  0.0206
   87MOL   C40936701   5.314   1.725   2.842 -0.5916  0.0713  0.3607
   87MOL   H41036702   5.028   1.469   3.431  2.0449  0.2970 -0.6776
   87MOL   H41136703   5.082   1.442   3.589 -3.0201 -1.7948 -0.2931
   87MOL   H41236704   5.247   1.595   3.523 -0.6994 -2.7670 -2.3304
   87MOL   H41336705   5.356   1.888   3.217  0.5757 -1.2694  1.2722
   87MOL   H41436706   5.180   1.901   3.228  0.3322 -0.3753  2.2766
   87MOL   H41536707   5.340   1.655   3.099 -0.0628  0.8395  0.7868
   87MOL   H41636708   5.164   1.683   3.092  0.1391 -1.7900  1.4175
   87MOL   H41736709   5.342   1.897   2.974  0.9642  0.1783  0.2894
   87MOL   H41836710   5.178   1.869   2.940  0.2759  0.3347 -0.3288
   87MOL   H41936711   5.325   1.789   2.755 -1.4497 -0.0297  0.1664
   87MOL   H42036712   5.247   1.644   2.812  0.1122 -0.1308 -0.6962
   87MOL   H42136713   5.405   1.673   2.872 -0.2124 -0.6692 -1.9735
   87MOL   H42236714   5.135   1.707   3.590  2.5085 -0.9256  0.2673
   88MOL     C136715   0.329   5.710   4.718 -0.3326 -0.2470  0.3992
   88MOL     C236716   0.388   5.815   4.622  0.2836 -0.6268 -0.4089
   88MOL     C336717   0.519   5.756   4.563 -0.7200 -0.4036 -0.1349
   88MOL     O436718   0.525   5.708   4.447 -0.3284 -0.6112  0.2263
   88MOL     O536719   0.624   5.754   4.654  0.3930 -0.0075 -0.1405
   88MOL     C636720   0.742   5.676   4.623  0.4070 -0.1022  0.3137
   88MOL     C736721   0.846   5.745   4.544 -0.0347  0.2868 -0.4867
   88MOL     C836722   0.881   5.888   4.587  0.9085 -0.2771  0.7486
   88MOL     C936723   0.986   5.958   4.502  0.2304  0.9485  0.1647
   88MOL    H1036724   0.246   5.760   4.768  0.2060  1.0099  0.0347
   88MOL    H1136725   0.289   5.623   4.666  1.3318 -0.8453  0.0967
   88MOL    H1236726   0.422   5.900   4.682  1.4682 -0.8893 -0.6945
   88MOL    H1336727   0.709   5.578   4.589 -0.7152  0.6130 -0.7137
   88MOL    H1436728   0.790   5.657   4.719  1.6318  0.4610 -0.1686
   88MOL    H1536729   0.931   5.677   4.538 -2.0159 -2.5814  2.4167
   88MOL    H1636730   0.818   5.744   4.438  1.3287 -0.1442 -0.8550
   88MOL    H1736731   0.898   5.902   4.694  0.0764  0.7379  0.7589
   88MOL    H1836732   0.800   5.960   4.580  2.0494  0.9561 -0.0178
   88MOL    H1936733   1.081   5.905   4.503 -0.4041 -0.2404 -0.9895
   88MOL    H2036734   1.004   6.060   4.538  1.7007  1.2115 -1.2618
   88MOL    H2136735   0.956   5.979   4.399 -1.1116 -0.8874  0.1524
   88MOL    H2236736   0.392   5.677   4.801  0.9853 -0.2675 -0.6082
   88MOL    C2336737   0.291   5.866   4.509 -0.3787  0.5771  0.1485
   88MOL    C2436738   0.335   6.006   4.452  0.3654  0.1451  0.7934
   88MOL    C2536739   0.264   6.038   4.321 -0.2030 -0.2926  0.2120
   88MOL    O2636740   0.186   5.959   4.265 -0.7440 -0.3203  0.1331
   88MOL    O2736741   0.314   6.153   4.266  0.1080  0.1917  0.0559
   88MOL    C2836742   0.233   6.211   4.171  0.1672  0.5598  0.7786
   88MOL    C2936743   0.287   6.346   4.145  0.6011  0.3977  0.4352
   88MOL    C3036744   0.213   6.418   4.039 -0.1474 -0.0099  0.5238
   88MOL    C3136745   0.279   6.558   4.010  0.7466 -0.0116  0.0141
   88MOL    H3236746   0.192   5.864   4.554 -0.6533 -0.4695 -0.4851
   88MOL    H3336747   0.282   5.794   4.427 -0.2700  1.0688 -0.2925
   88MOL    H3436748   0.439   5.998   4.421  0.1432 -2.1488  0.4987
   88MOL    H3536749   0.130   6.226   4.203 -0.4346 -0.2319 -0.7414
   88MOL    H3636750   0.227   6.148   4.082  0.6867  1.7755 -0.1487
   88MOL    H3736751   0.277   6.408   4.234  0.6885  2.0395 -0.6764
   88MOL    H3836752   0.390   6.337   4.110 -0.3246 -1.2067 -2.0552
   88MOL    H3936753   0.109   6.443   4.062  0.1866  2.1354 -0.2120
   88MOL    H4036754   0.215   6.353   3.952 -2.3101 -0.6661  0.9237
   88MOL    H4136755   0.220   6.611   3.936  0.8775 -0.7540 -0.6247
   88MOL    H4236756   0.379   6.540   3.970  0.4689  1.0339 -1.1809
   88MOL    H4336757   0.284   6.623   4.097  1.2676 -0.5540  0.3965
   88MOL    C4436758   0.319   6.121   4.554  0.4330 -0.3156  0.2986
   88MOL    C4536759   0.439   6.203   4.599  0.6007 -0.2228  0.1428
   88MOL    C4636760   0.485   6.295   4.479 -0.9877  0.3210 -0.9079
   88MOL    O4736761   0.447   6.409   4.466 -0.4613 -0.0235  0.3119
   88MOL    O4836762   0.565   6.226   4.393  0.2397  0.2692  0.5488
   88MOL    C4936763   0.610   6.301   4.286  0.2231  0.0100  0.9917
   88MOL    C5036764   0.741   6.371   4.313 -0.6676 -0.1052 -0.0810
   88MOL    C5136765   0.844   6.271   4.371  0.6278  0.0740 -0.5423
   88MOL    C5236766   0.978   6.345   4.374 -0.0050  0.2448  0.2000
   88MOL    H5336767   0.270   6.076   4.641 -3.1556 -0.4472 -1.6769
   88MOL    H5436768   0.246   6.195   4.520 -0.9521 -1.8583 -0.1361
   88MOL    H5536769   0.529   6.143   4.614  0.9751  0.1674 -0.5110
   88MOL    H5636770   0.535   6.374   4.254 -0.4295 -1.3021 -0.5564
   88MOL    H5736771   0.624   6.232   4.202 -2.5174 -0.1268  0.5786
   88MOL    H5836772   0.777   6.420   4.223 -0.3175 -0.7915 -0.3221
   88MOL    H5936773   0.716   6.443   4.391  1.4792  0.8646 -0.2370
   88MOL    H6036774   0.847   6.184   4.307  0.7762  1.3753 -2.3378
   88MOL    H6136775   0.818   6.232   4.469 -0.5529 -1.6120 -1.5018
   88MOL    H6236776   1.051   6.270   4.403 -1.0151 -1.6989 -2.1125
   88MOL    H6336777   0.990   6.428   4.444 -0.8836 -0.1663  0.8460
   88MOL    H6436778   1.008   6.379   4.275 -1.6644 -0.0438 -0.4214
   88MOL    C6536779   0.410   6.288   4.733 -0.2872 -0.1403 -0.5695
   88MOL    C6636780   0.541   6.343   4.807 -0.1821  0.0752 -0.4375
   88MOL    C6736781   0.500   6.428   4.927  0.0851 -0.0179  0.2126
   88MOL    O6836782   0.546   6.540   4.949 -0.5608 -0.1698  0.5151
   88MOL    O6936783   0.427   6.356   5.006 -0.1078 -0.5856  0.0552
   88MOL    C7036784   0.398   6.393   5.138  0.4290  0.9068 -0.1767
   88MOL    C7136785   0.262   6.332   5.172  0.2511  0.4941 -0.0733
   88MOL    C7236786   0.187   6.387   5.293 -0.0539 -0.1521 -0.0006
   88MOL    C7336787   0.076   6.293   5.332 -0.4866 -0.8670  0.3924
   88MOL    H7436788   0.354   6.225   4.802  1.6699 -0.5289  0.6959
   88MOL    H7536789   0.337   6.359   4.694 -0.3618  0.8104  1.2360
   88MOL    H7636790   0.587   6.411   4.736 -0.6915  0.2542 -0.5963
   88MOL    H7736791   0.387   6.501   5.139  0.8297  0.9588  2.1930
   88MOL    H7836792   0.476   6.361   5.208  1.6040  1.7136 -1.0871
   88MOL    H7936793   0.197   6.357   5.088  0.8777  0.8210 -0.4649
   88MOL    H8036794   0.275   6.225   5.187 -0.6119  0.4838  0.7097
   88MOL    H8136795   0.158   6.486   5.257  1.2023  1.0750  2.2637
   88MOL    H8236796   0.251   6.410   5.378 -0.4250 -0.2071  0.2920
   88MOL    H8336797   7.849   6.329   5.397  1.1806  0.8689  1.5240
   88MOL    H8436798   0.122   6.213   5.390  0.2363  0.4729  1.6957
   88MOL    H8536799   0.035   6.246   5.242 -2.5908 -0.2281  0.9845
   88MOL    C8636800   0.643   6.226   4.835  0.7558 -0.0860 -0.0304
   88MOL    C8736801   0.774   6.276   4.902 -0.5104 -0.0355 -0.2119
   88MOL    C8836802   0.836   6.165   4.984 -0.4509  0.0265  0.2840
   88MOL    O8936803   0.859   6.054   4.930  0.0726  0.1597  0.0782
   88MOL    O9036804   0.855   6.201   5.122 -0.2816 -0.2211  0.1635
   88MOL    C9136805   0.914   6.096   5.206 -0.0827  0.2216 -0.1591
   88MOL    C9236806   0.959   6.151   5.343 -0.4042  0.6350 -0.4590
   88MOL    C9336807   1.027   6.292   5.331 -0.4615  0.0639  0.3138
   88MOL    C9436808   1.080   6.349   5.458 -0.1901  0.3197 -1.0266
   88MOL    H9536809   0.671   6.171   4.745 -0.0768 -0.5738  0.0005
   88MOL    H9636810   0.595   6.146   4.893  0.5892 -1.2049 -1.6936
   88MOL    H9736811   0.759   6.367   4.961 -1.5186  1.1374 -2.2272
   88MOL    H9836812   0.996   6.045   5.155  2.5249  1.8058  2.3252
   88MOL    H9936813   0.837   6.023   5.231 -0.0830  0.6746  1.1850
   88MOL   H10036814   0.870   6.152   5.406 -0.4231 -1.1414 -0.4574
   88MOL   H10136815   1.022   6.074   5.389 -0.1834  0.6176 -0.7925
   88MOL   H10236816   0.964   6.362   5.276  0.3370  0.0105 -0.6909
   88MOL   H10336817   1.119   6.279   5.272 -0.5621 -2.0411  0.5769
   88MOL   H10436818   1.000   6.368   5.530  1.1062  0.4148  0.4064
   88MOL   H10536819   1.126   6.446   5.440  1.1266 -0.1894 -0.4328
   88MOL   H10636820   1.156   6.284   5.502  1.4135  1.6984 -1.7188
   88MOL   C10736821   0.880   6.298   4.789 -0.5479 -0.2254 -0.0367
   88MOL   C10836822   1.021   6.354   4.828  0.2486  0.9272 -0.3397
   88MOL   C10936823   1.116   6.243   4.876  0.0956 -0.2151  0.1448
   88MOL   O11036824   1.169   6.240   4.979  0.3721  0.9272  0.3363
   88MOL   O11136825   1.143   6.148   4.783  0.0003  0.3361 -0.1877
   88MOL   C11236826   1.235   6.044   4.816 -0.1901  0.1589  1.1937
   88MOL   C11336827   1.154   5.930   4.882  0.1598  1.0273 -0.4638
   88MOL   C11436828   1.228   5.813   4.947 -0.2070 -0.2772  0.5129
   88MOL   C11536829   1.356   5.860   5.008  0.1603 -0.3552  0.1423
   88MOL   H11636830   0.844   6.382   4.731  1.0084 -1.0894 -2.3174
   88MOL   H11736831   0.894   6.210   4.725 -1.8608 -0.7476  0.3732
   88MOL   H11836832   1.009   6.421   4.912 -1.8549 -0.6087  0.6142
   88MOL   H11936833   1.320   6.096   4.860  1.5909 -0.7143 -1.1218
   88MOL   H12036834   1.278   6.006   4.723 -0.1143  1.6431  0.5979
   88MOL   H12136835   1.096   5.963   4.968  0.1312 -0.8241  0.2507
   88MOL   H12236836   1.094   5.877   4.808  0.4873  1.6103 -1.1529
   88MOL   H12336837   1.254   5.722   4.892 -1.3845 -0.8703  0.9274
   88MOL   H12436838   1.172   5.776   5.033 -2.8076  0.1701 -0.9385
   88MOL   H12536839   1.425   5.909   4.939 -1.1512  1.5406  0.1221
   88MOL   H12636840   1.401   5.778   5.063 -0.6078 -1.3669 -0.7063
   88MOL   H12736841   1.327   5.946   5.068 -2.7332 -0.9163 -0.3886
   88MOL   C12836842   1.084   6.434   4.712  0.2571 -0.4400  0.5179
   88MOL   C12936843   1.208   6.518   4.737  0.1247  0.1173  0.5712
   88MOL   C13036844   1.337   6.442   4.702 -0.2320 -0.1558  0.2631
   88MOL   O13136845   1.420   6.423   4.790 -0.3051  0.5296  0.0965
   88MOL   O13236846   1.344   6.394   4.576  0.2426 -0.7266  0.2050
   88MOL   C13336847   1.467   6.338   4.531 -0.2212  0.6843 -0.1988
   88MOL   C13436848   1.455   6.248   4.403 -0.3926 -0.0337 -0.2616
   88MOL   C13536849   1.381   6.111   4.422  0.1906 -0.0447 -0.2223
   88MOL   C13636850   1.329   6.073   4.280  0.0179  0.0040  0.2622
   88MOL   H13736851   1.001   6.498   4.682 -1.3851 -0.8885  3.7565
   88MOL   H13836852   1.104   6.372   4.625  0.9389  1.8583 -1.0117
   88MOL   H13936853   1.212   6.532   4.845 -0.4516 -1.0383  0.7435
   88MOL   H14036854   1.518   6.285   4.612  0.1827 -0.1107 -0.9586
   88MOL   H14136855   1.523   6.428   4.508  0.7952  0.7133  2.2331
   88MOL   H14236856   1.411   6.311   4.326 -1.3288  1.3443  1.3677
   88MOL   H14336857   1.560   6.237   4.376  0.0937 -0.9023  1.8085
   88MOL   H14436858   1.296   6.122   4.490 -0.3449 -2.6607 -0.3874
   88MOL   H14536859   1.447   6.029   4.451  4.3413  2.6549 -1.6611
   88MOL   H14636860   1.243   6.007   4.274  1.1463 -1.4232 -0.7293
   88MOL   H14736861   1.407   6.034   4.214  0.6787 -1.2700  1.7566
   88MOL   H14836862   1.286   6.161   4.232 -0.4742  0.1495  0.9712
   88MOL   C14936863   1.194   6.652   4.667 -0.4602 -0.0928 -0.0854
   88MOL   C15036864   1.316   6.749   4.700  0.1560 -0.1705 -0.9957
   88MOL   C15136865   1.289   6.880   4.622 -0.3140 -0.7070 -0.7898
   88MOL   O15236866   1.258   6.983   4.679 -0.0983  0.4250  0.0261
   88MOL   O15336867   1.323   6.869   4.493 -0.1497 -0.1971  0.4270
   88MOL   C15436868   1.313   6.968   4.395  0.4079 -0.0055 -0.6081
   88MOL   C15536869   1.376   6.928   4.262 -0.3193  0.7789 -0.2716
   88MOL   C15636870   1.527   6.920   4.277 -0.3458 -0.3237  0.3929
   88MOL   C15736871   1.596   6.879   4.149  0.1049 -0.8339  0.0143
   88MOL   H15836872   1.100   6.691   4.707 -0.1419  0.8849 -0.2599
   88MOL   H15936873   1.180   6.640   4.560  0.4058 -1.6656 -0.0277
   88MOL   H16036874   1.403   6.693   4.663  1.8627  1.0682  0.9856
   88MOL   H16136875   1.368   7.051   4.440  1.9397 -1.2053 -0.2427
   88MOL   H16236876   1.210   6.997   4.375  1.0914  1.7548 -1.6599
   88MOL   H16336877   1.331   6.845   4.208  0.0386 -0.1520  0.8412
   88MOL   H16436878   1.341   7.016   4.208 -0.1370  2.6169  2.4931
   88MOL   H16536879   1.545   6.841   4.350 -0.2133 -0.9218 -0.2916
   88MOL   H16636880   1.570   7.006   4.329 -1.4773  0.4822  0.0204
   88MOL   H16736881   1.561   6.953   4.078 -1.5000  0.9597  2.5840
   88MOL   H16836882   1.562   6.780   4.122 -1.3612 -0.4423  0.4095
   88MOL   H16936883   1.705   6.879   4.160  0.3217  0.5049 -1.9285
   88MOL   C17036884   1.333   6.769   4.857 -0.4048 -0.5122  0.1424
   88MOL   C17136885   1.472   6.821   4.892  0.1550 -0.8355  0.1562
   88MOL   C17236886   1.466   6.959   4.965  0.0237  0.7142  0.1959
   88MOL   O17336887   1.531   7.055   4.924  0.0065  0.2949  0.8053
   88MOL   O17436888   1.380   6.963   5.074  0.1147  0.1304  0.4602
   88MOL   C17536889   1.330   7.090   5.111 -0.2461  0.1061 -0.1991
   88MOL   C17636890   1.197   7.060   5.171  0.0287  0.4854  0.7873
   88MOL   C17736891   1.094   7.026   5.060 -0.5589 -0.0247 -0.2667
   88MOL   C17836892   0.945   7.048   5.095 -0.9097  0.5387  0.0422
   88MOL   H17936893   1.321   6.680   4.918 -0.8125 -1.6119 -1.5224
   88MOL   H18036894   1.253   6.834   4.892 -0.8275 -0.4746 -0.8556
   88MOL   H18136895   1.531   6.858   4.808 -1.4853 -0.8594 -1.0250
   88MOL   H18236896   1.305   7.150   5.024  0.1527  0.4310 -0.0874
   88MOL   H18336897   1.395   7.131   5.188  1.9925 -0.0543 -1.9640
   88MOL   H18436898   1.206   6.987   5.251 -0.2000  0.5544  0.8763
   88MOL   H18536899   1.148   7.143   5.221 -0.0830  0.6758  0.3666
   88MOL   H18636900   1.102   6.920   5.036  1.3542  0.0725 -0.1497
   88MOL   H18736901   1.116   7.067   4.961  1.0670 -1.6077 -0.6012
   88MOL   H18836902   0.918   7.153   5.080 -1.0973  0.1765 -2.2400
   88MOL   H18936903   0.915   7.022   5.197 -1.8385 -1.0498 -0.6214
   88MOL   H19036904   0.881   6.988   5.031  0.8506 -0.9557 -0.3573
   88MOL   C19136905   1.544   6.716   4.976 -0.5181  0.4052 -0.2715
   88MOL   C19236906   1.698   6.727   4.975 -0.3218 -0.0846  0.2492
   88MOL   C19336907   1.752   6.813   5.091  0.1760  0.2598 -0.6823
   88MOL   O19436908   1.821   6.916   5.071  0.4726  0.1007  0.2989
   88MOL   O19536909   1.712   6.760   5.217  0.5101  0.6963 -0.1407
   88MOL   C19636910   1.743   6.827   5.336 -0.4781 -0.0562 -0.3544
   88MOL   C19736911   1.612   6.865   5.403  0.4316 -0.3823  0.4917
   88MOL   C19836912   1.642   6.926   5.538  1.0330  0.8664 -0.7161
   88MOL   C19936913   1.522   6.963   5.626  0.1715  0.1091 -0.3609
   88MOL   H20036914   1.526   6.621   4.924  1.5741  0.1420 -0.5375
   88MOL   H20136915   1.508   6.722   5.078 -0.4402  0.1592 -0.2284
   88MOL   H20236916   1.724   6.783   4.885  1.1120  1.1066  1.3842
   88MOL   H20336917   1.799   6.919   5.315  1.3972 -0.4745  2.5164
   88MOL   H20436918   1.807   6.765   5.399  0.4677  0.1641 -1.0840
   88MOL   H20536919   1.561   6.935   5.338  0.3035 -1.9413 -1.1177
   88MOL   H20636920   1.539   6.785   5.415 -1.2384  1.0384  0.0427
   88MOL   H20736921   1.684   7.026   5.527  1.8709  0.7208  1.0091
   88MOL   H20836922   1.694   6.850   5.597 -2.7476 -0.2556  1.3868
   88MOL   H20936923   1.554   6.968   5.730 -0.3814  1.2615 -0.2439
   88MOL   H21036924   1.443   6.889   5.614 -1.5755  1.7806  0.7009
   88MOL   H21136925   1.470   7.052   5.591 -1.5305 -0.6709  0.1429
   88MOL   C21236926   1.762   6.579   4.976 -0.7867 -0.2788 -0.0616
   88MOL   C21336927   1.916   6.557   4.988 -0.2822  1.2314  0.1423
   88MOL   C21436928   1.953   6.521   5.130 -0.4665  0.9312 -0.2608
   88MOL   O21536929   2.039   6.582   5.193 -0.3638 -1.0237 -0.2527
   88MOL   O21636930   1.899   6.405   5.167  0.3820  0.1792 -0.5111
   88MOL   C21736931   1.945   6.347   5.277  0.5042 -0.4637 -0.2232
   88MOL   C21836932   1.887   6.418   5.401  0.3164 -0.5886 -0.2776
   88MOL   C21936933   1.737   6.408   5.412 -0.1613 -0.2983  0.2753
   88MOL   C22036934   1.684   6.452   5.546  0.6483  0.7122  0.1564
   88MOL   H22136935   1.756   6.537   4.876  3.5074  1.6497 -1.2747
   88MOL   H22236936   1.713   6.524   5.056  0.0753  0.6013  1.0890
   88MOL   H22336937   1.971   6.650   4.973  1.5169  0.0497 -0.7470
   88MOL   H22436938   2.053   6.357   5.288  0.5541  0.3026 -1.2937
   88MOL   H22536939   1.925   6.240   5.274  1.2454 -0.6267  0.3475
   88MOL   H22636940   1.925   6.368   5.490 -0.5563  0.4252  0.6809
   88MOL   H22736941   1.910   6.525   5.398  1.1467 -0.7857 -0.9247
   88MOL   H22836942   1.718   6.301   5.400  0.1619 -0.3116 -0.1171
   88MOL   H22936943   1.689   6.455   5.326  1.2326  0.3850 -0.1359
   88MOL   H23036944   1.721   6.549   5.581  0.5107  1.5169 -1.8941
   88MOL   H23136945   1.715   6.375   5.617  1.8395  1.2893  0.2759
   88MOL   H23236946   1.575   6.457   5.550  0.5690 -1.8192  2.9003
   88MOL   C23336947   1.973   6.447   4.898  0.1474 -0.6577  0.2878
   88MOL   C23436948   1.987   6.500   4.752 -0.2559 -0.0141  0.4295
   88MOL   C23536949   2.105   6.599   4.727 -0.2785 -0.1823 -0.0025
   88MOL   O23636950   2.132   6.630   4.613 -0.6784  0.1019 -0.0445
   88MOL   O23736951   2.171   6.646   4.835 -0.0209  0.0859 -0.2096
   88MOL   C23836952   2.226   6.780   4.836 -0.4813 -0.0486 -1.2517
   88MOL   C23936953   2.284   6.811   4.974 -0.6060 -0.6998  0.0677
   88MOL   C24036954   2.276   6.958   5.013 -0.4726  0.0448 -0.2409
   88MOL   C24136955   2.139   6.990   5.078 -0.0894  0.0679 -0.1759
   88MOL   H24236956   1.903   6.363   4.898 -0.3176 -0.2885 -1.7911
   88MOL   H24336957   2.068   6.411   4.936 -0.1781  0.4190  2.2092
   88MOL   H24436958   1.902   6.562   4.723  0.3134  2.2526  3.3128
   88MOL   H24536959   2.160   6.861   4.808  0.0395  1.0033  0.5313
   88MOL   H24636960   2.317   6.778   4.775  1.0747  0.3496  1.0010
   88MOL   H24736961   2.232   6.750   5.047 -2.1415 -1.6430 -1.7677
   88MOL   H24836962   2.386   6.774   4.984 -0.2681  0.8069  2.6935
   88MOL   H24936963   2.301   7.030   4.935  1.9247 -1.4769 -0.9007
   88MOL   H25036964   2.362   6.979   5.077  0.5993  0.7135 -1.8756
   88MOL   H25136965   2.067   6.958   5.003  1.6958 -2.9845 -0.6915
   88MOL   H25236966   2.125   7.097   5.089 -1.5648 -0.0288 -1.0844
   88MOL   H25336967   2.113   6.935   5.169  1.7199  0.3157  0.5146
   88MOL   C25436968   1.990   6.377   4.662 -0.4410 -0.3840  0.4149
   88MOL   C25536969   1.851   6.340   4.603 -0.0069 -0.2841  0.4175
   88MOL   C25636970   1.828   6.419   4.474  0.4045 -0.1507 -0.4138
   88MOL   O25736971   1.788   6.363   4.375 -0.3274  0.1065 -0.1551
   88MOL   O25836972   1.846   6.554   4.493 -0.5486  0.1839  0.2370
   88MOL   C25936973   1.808   6.647   4.396 -0.2094 -0.2633 -0.3439
   88MOL   C26036974   1.819   6.783   4.445  0.0822 -0.6476 -0.1277
   88MOL   C26136975   1.725   6.817   4.566 -0.9006  0.4748  0.5600
   88MOL   C26236976   1.750   6.948   4.630  0.4775 -0.5770  0.4396
   88MOL   H26336977   2.038   6.286   4.700  1.0019  1.4857  3.3480
   88MOL   H26436978   2.048   6.394   4.571  1.7029 -2.4367  1.3290
   88MOL   H26536979   1.783   6.386   4.674  0.9496  1.6117  0.1537
   88MOL   H26636980   1.703   6.628   4.375 -0.0203  1.2830 -2.9377
   88MOL   H26736981   1.863   6.622   4.305  1.0505  1.4491 -0.0865
   88MOL   H26836982   1.917   6.803   4.490 -0.6678  2.9858  0.0175
   88MOL   H26936983   1.788   6.851   4.366 -2.2275 -0.3307  1.0160
   88MOL   H27036984   1.748   6.747   4.646  1.3606  2.9071  2.1407
   88MOL   H27136985   1.621   6.794   4.542 -0.7635 -0.4434  0.8355
   88MOL   H27236986   1.842   6.959   4.687  2.3188 -1.5844 -2.2058
   88MOL   H27336987   1.660   6.957   4.690 -0.0478 -1.0079 -0.2853
   88MOL   H27436988   1.744   7.024   4.552  1.2649  1.2517  2.1121
   88MOL   C27536989   1.836   6.184   4.574  0.1341  0.3180  0.3164
   88MOL   C27636990   1.823   6.096   4.703  0.6221  0.0218 -0.0829
   88MOL   C27736991   1.684   6.102   4.761 -0.1173 -0.1727 -0.0399
   88MOL   O27836992   1.588   6.059   4.698  0.1498  0.4753  0.1414
   88MOL   O27936993   1.689   6.161   4.878  0.5434 -0.2302  0.3828
   88MOL   C28036994   1.563   6.169   4.949 -0.4321  0.1961  0.9399
   88MOL   C28136995   1.582   6.245   5.081  0.3520  0.7103  0.0685
   88MOL   C28236996   1.468   6.217   5.186  0.3229  0.2263 -0.2706
   88MOL   C28336997   1.407   6.340   5.251 -0.1029 -0.1314  0.0615
   88MOL   H28436998   1.923   6.153   4.517  2.0168  0.3056  3.0815
   88MOL   H28536999   1.747   6.164   4.515 -0.6883 -0.1016  1.6744
   88MOL   H28637000   1.885   6.134   4.784  0.8731  0.9403 -0.6909
   88MOL   H28737001   1.539   6.066   4.973  2.2566 -0.2407  1.9109
   88MOL   H28837002   1.483   6.204   4.883  0.8069 -1.3337 -1.4041
   88MOL   H28937003   1.674   6.218   5.132  0.4288  0.7974 -0.0241
   88MOL   H29037004   1.598   6.349   5.051  2.0188  0.6198  0.6155
   88MOL   H29137005   1.513   6.163   5.269 -1.6468  0.0980  0.7496
   88MOL   H29237006   1.402   6.154   5.128 -0.8961  1.9713 -0.8327
   88MOL   H29337007   1.476   6.388   5.321  0.9835 -0.2036 -0.9617
   88MOL   H29437008   1.322   6.299   5.306 -1.2040 -0.7260 -2.0376
   88MOL   H29537009   1.360   6.410   5.183 -1.0181  0.3132  1.1270
   88MOL   C29637010   1.874   5.958   4.684 -0.3175 -0.0797 -0.6907
   88MOL   C29737011   1.869   5.863   4.805  0.3501 -0.4812 -0.0091
   88MOL   C29837012   1.795   5.736   4.781  0.4949 -0.5231  0.6892
   88MOL   O29937013   1.840   5.627   4.806  0.0168 -0.7900  0.5163
   88MOL   O30037014   1.672   5.754   4.737  0.4656  0.3152 -0.1947
   88MOL   C30137015   1.580   5.643   4.737 -0.2544 -0.6194  0.0912
   88MOL   C30237016   1.446   5.688   4.672  0.5877  0.6090 -0.5941
   88MOL   C30337017   1.345   5.575   4.659 -0.2997 -0.0552  0.7783
   88MOL   C30437018   1.216   5.604   4.576  0.3627  0.1680 -0.0871
   88MOL   H30537019   1.967   5.943   4.630 -1.0188 -0.3383 -1.8555
   88MOL   H30637020   1.811   5.916   4.605  1.1329 -1.0867 -1.3250
   88MOL   H30737021   1.811   5.913   4.883  2.8346  1.5172  0.6264
   88MOL   H30837022   1.557   5.609   4.838 -0.3684  0.4743  0.4444
   88MOL   H30937023   1.616   5.558   4.680 -0.1026  1.4223 -3.0054
   88MOL   H31037024   1.402   5.774   4.723  0.1443  0.8109 -1.3173
   88MOL   H31137025   1.483   5.728   4.578  0.8951 -0.7941 -1.0853
   88MOL   H31237026   1.320   5.551   4.762 -3.1786  3.0163  0.8946
   88MOL   H31337027   1.398   5.490   4.616  1.3540  1.0046  0.6531
   88MOL   H31437028   1.160   5.513   4.557  0.4814  0.1887 -0.5604
   88MOL   H31537029   1.228   5.661   4.483  0.2425 -1.5108 -1.1532
   88MOL   H31637030   1.160   5.670   4.643 -0.4531  0.5212 -1.0964
   88MOL   C31737031   2.015   5.842   4.867 -0.5288  0.3039 -0.4604
   88MOL   C31837032   2.070   5.962   4.956 -0.5735  0.1857 -0.0323
   88MOL   C31937033   1.966   6.013   5.058 -0.2318  0.4318  0.0219
   88MOL   O32037034   1.932   6.132   5.061  0.7347  0.1363  0.0655
   88MOL   O32137035   1.930   5.911   5.143 -0.4428 -0.2952 -0.0656
   88MOL   C32237036   1.823   5.935   5.233  0.2948  0.3611 -0.4256
   88MOL   C32337037   1.693   5.865   5.180  0.2574  0.4545  0.0542
   88MOL   C32437038   1.716   5.709   5.200  0.5163 -0.0262  0.8823
   88MOL   C32537039   1.601   5.632   5.163  0.0543 -0.5076  0.1075
   88MOL   H32637040   2.086   5.821   4.787  1.2113 -1.4647  1.4688
   88MOL   H32737041   2.015   5.757   4.935  0.7575  0.0165 -0.8064
   88MOL   H32837042   2.083   6.042   4.883 -0.7573  0.5056  0.2867
   88MOL   H32937043   1.807   6.041   5.254 -0.1408  0.0840  0.6439
   88MOL   H33037044   1.848   5.893   5.330 -1.6017 -0.0737 -0.1071
   88MOL   H33137045   1.607   5.890   5.241 -0.3203 -1.1534 -0.0608
   88MOL   H33237046   1.677   5.890   5.075  2.6849 -3.3204 -1.3321
   88MOL   H33337047   1.756   5.685   5.298 -0.6720 -2.2985  0.8360
   88MOL   H33437048   1.794   5.690   5.126  0.0810  1.6778 -0.0491
   88MOL   H33537049   1.629   5.528   5.180 -1.9675 -1.3698 -1.6968
   88MOL   H33637050   1.587   5.657   5.058 -1.1360  0.4960  0.4988
   88MOL   H33737051   1.507   5.652   5.214  0.1614  1.2546 -0.3710
   88MOL   C33837052   2.198   5.927   5.023 -0.2338 -0.3676  0.0712
   88MOL   C33937053   2.298   6.046   5.018  0.0511 -0.3392  0.5329
   88MOL   C34037054   2.260   6.168   5.099 -0.5799 -0.1665 -0.0390
   88MOL   O34137055   2.224   6.158   5.219  0.6398 -0.4649  0.0364
   88MOL   O34237056   2.285   6.278   5.029  0.1272 -0.3703  0.2430
   88MOL   C34337057   2.290   6.403   5.099 -0.6043  0.2243 -0.4684
   88MOL   C34437058   2.430   6.432   5.141 -1.1480 -0.1762 -0.4199
   88MOL   C34537059   2.433   6.567   5.208 -0.1217 -0.3621 -0.0947
   88MOL   C34637060   2.507   6.584   5.335 -0.1872  0.5569  0.7784
   88MOL   H34737061   2.233   5.836   4.976  0.3989 -1.1861  2.0930
   88MOL   H34837062   2.190   5.903   5.129  2.1674  0.1302  0.3925
   88MOL   H34937063   2.303   6.084   4.916  0.2255 -2.1046 -0.1315
   88MOL   H35037064   2.220   6.400   5.183 -0.4383  0.6764 -0.3116
   88MOL   H35137065   2.251   6.471   5.024  1.3072  0.8415 -0.9230
   88MOL   H35237066   2.475   6.358   5.206  0.9301  1.3748 -0.0442
   88MOL   H35337067   2.488   6.437   5.049  0.6110 -1.4589  0.6045
   88MOL   H35437068   2.336   6.591   5.252  0.5932  0.8134  0.8635
   88MOL   H35537069   2.464   6.645   5.138  0.7615 -1.1912 -0.6531
   88MOL   H35637070   2.457   6.545   5.423  2.1296  1.1698  2.4188
   88MOL   H35737071   2.545   6.684   5.356  1.2569 -0.1719  1.7159
   88MOL   H35837072   2.596   6.521   5.343 -0.8842 -0.4092  1.0024
   88MOL   C35937073   2.441   6.004   5.048  0.2957 -0.1128 -0.3626
   88MOL   C36037074   2.541   6.078   4.951  0.2950  0.2621 -0.5769
   88MOL   C36137075   2.671   6.123   5.033  0.7399 -0.4306 -1.0202
   88MOL   O36237076   2.696   6.241   5.046 -0.6346 -0.0972  0.1844
   88MOL   O36337077   2.719   6.018   5.113 -0.1644 -0.4760 -0.4428
   88MOL   C36437078   2.807   6.045   5.220 -0.1249 -0.1259 -0.3367
   88MOL   C36537079   2.929   5.957   5.186  0.5258 -0.1233  0.0873
   88MOL   C36637080   2.902   5.812   5.169  0.2626  0.9908  0.6209
   88MOL   C36737081   3.029   5.730   5.165  0.5672 -0.1190  0.1667
   88MOL   H36837082   2.444   5.900   5.016 -1.0418 -0.5056  0.7506
   88MOL   H36937083   2.457   6.021   5.154  2.6099 -2.2091 -0.3292
   88MOL   H37037084   2.507   6.172   4.907  1.9307  0.7816 -0.7489
   88MOL   H37137085   2.779   6.006   5.318  0.8107 -0.1417 -0.0738
   88MOL   H37237086   2.819   6.153   5.228 -1.1007  0.0957 -1.6036
   88MOL   H37337087   2.984   5.983   5.095 -2.1907 -0.0927 -1.6281
   88MOL   H37437088   2.995   5.970   5.271  0.5442  1.7720 -0.1977
   88MOL   H37537089   2.857   5.796   5.071  1.0532  2.3887  0.0235
   88MOL   H37637090   2.821   5.770   5.229 -0.2867 -0.4415 -1.0758
   88MOL   H37737091   3.105   5.767   5.096  1.1214 -2.0242 -0.2819
   88MOL   H37837092   3.007   5.627   5.138  0.2996  0.8021 -3.4070
   88MOL   H37937093   3.075   5.729   5.264  0.4125 -0.7065  0.2299
   88MOL   C38037094   2.588   5.987   4.828 -0.0020  0.2205  0.6905
   88MOL   C38137095   2.675   6.041   4.721  0.1054  0.3091 -0.6805
   88MOL   C38237096   2.617   6.163   4.650  0.1614 -0.5741  0.1442
   88MOL   O38337097   2.685   6.267   4.638  0.1142  1.0241  0.1110
   88MOL   O38437098   2.494   6.135   4.598 -0.3117 -0.3936 -0.3527
   88MOL   C38537099   2.416   6.245   4.548 -0.6034  0.0169 -0.2373
   88MOL   C38637100   2.324   6.314   4.656 -0.4779  0.0401  0.6864
   88MOL   C38737101   2.409   6.409   4.745  0.2199 -0.1781 -0.2991
   88MOL   C38837102   2.454   6.541   4.678 -0.1675  0.7591  0.2792
   88MOL   H38937103   2.496   5.958   4.778 -0.5398  1.7892  0.7633
   88MOL   H39037104   2.627   5.897   4.875  0.9558 -0.7268 -1.7947
   88MOL   H39137105   2.685   5.969   4.640  2.2615 -0.0509 -0.1250
   88MOL   H39237106   2.346   6.207   4.474 -0.2932 -1.2032  0.0977
   88MOL   H39337107   2.477   6.319   4.495 -1.1305 -0.6698 -1.8390
   88MOL   H39437108   2.249   6.368   4.598  1.1810  0.6862 -0.9172
   88MOL   H39537109   2.278   6.229   4.706 -2.1297 -0.2628 -1.2799
   88MOL   H39637110   2.488   6.352   4.795 -0.9848 -2.4988 -0.9914
   88MOL   H39737111   2.356   6.448   4.831  2.0694 -1.3970  1.4545
   88MOL   H39837112   2.486   6.613   4.754  0.2055  0.9291 -0.0356
   88MOL   H39937113   2.372   6.579   4.618 -1.7203 -2.2911  0.3689
   88MOL   H40037114   2.536   6.533   4.607 -0.3048  0.6040  0.1389
   88MOL   C40137115   2.820   6.061   4.772  0.3730  0.0076 -0.3945
   88MOL   C40237116   2.917   6.038   4.658 -0.4198 -0.2625 -0.4194
   88MOL   C40337117   3.061   6.045   4.693 -0.6307  0.3132 -0.0145
   88MOL   O40437118   3.097   6.076   4.805 -1.0300 -0.4794 -0.3486
   88MOL   O40537119   3.145   6.010   4.589 -0.0899 -0.1439  0.2763
   88MOL   C40637120   3.276   5.980   4.619  0.0708  0.2290  1.4443
   88MOL   C40737121   3.302   5.826   4.581 -0.4804  0.2011  0.2883
   88MOL   C40837122   3.439   5.775   4.615 -0.7741  0.1835 -0.5679
   88MOL   C40937123   3.442   5.624   4.591 -0.2809  0.1136 -0.4293
   88MOL   H41037124   2.847   5.988   4.849  0.7752  0.9145  0.3344
   88MOL   H41137125   2.841   6.159   4.816  1.6860 -0.2210 -0.4951
   88MOL   H41237126   2.900   6.120   4.588  2.2867  0.7824  0.0791
   88MOL   H41337127   3.297   5.998   4.725 -0.2904  1.0623  1.3725
   88MOL   H41437128   3.341   6.038   4.555  1.1026 -2.1362  0.2780
   88MOL   H41537129   3.224   5.764   4.626 -1.3630  0.2010 -1.2008
   88MOL   H41637130   3.292   5.817   4.473  1.5442 -2.4463  0.2759
   88MOL   H41737131   3.480   5.798   4.713 -0.6119  1.8944 -1.0180
   88MOL   H41837132   3.514   5.815   4.546  1.2564 -1.2912  0.7157
   88MOL   H41937133   3.536   5.574   4.615 -0.3451  0.0056 -0.4015
   88MOL   H42037134   3.422   5.608   4.485  1.7176 -1.3000 -0.6144
   88MOL   H42137135   3.381   5.567   4.661  0.3655 -0.3996 -0.2794
   88MOL   H42237136   2.904   5.942   4.609 -0.2470  0.5637 -2.1423
   89MOL     C137137   0.641   2.102   5.690  0.0402 -0.1897 -0.2378
   89MOL     C237138   0.554   1.988   5.633 -1.0687  0.0008  0.3734
   89MOL     C337139   0.494   1.910   5.750  0.1584 -0.5991 -0.0299
   89MOL     O437140   0.550   1.811   5.795 -0.3518 -0.2153 -0.3881
   89MOL     O537141   0.384   1.964   5.801 -0.7777  0.1794  0.1447
   89MOL     C637142   0.317   1.895   5.906  0.4041 -0.2594 -0.0483
   89MOL     C737143   0.178   1.962   5.930  0.2523  0.5575 -0.0974
   89MOL     C837144   0.176   2.101   5.988 -1.1059  0.4288 -0.3078
   89MOL     C937145   0.052   2.184   5.960  0.0014  0.1001  0.1988
   89MOL    H1037146   0.582   2.187   5.723  0.8054  0.9040 -1.5969
   89MOL    H1137147   0.693   2.062   5.777  0.3882 -1.8937 -1.1945
   89MOL    H1237148   0.622   1.920   5.583  0.1196  1.8326 -0.5692
   89MOL    H1337149   0.365   1.905   6.004  1.0979  0.7792 -0.4887
   89MOL    H1437150   0.314   1.789   5.880  0.6278  0.0342 -1.3117
   89MOL    H1537151   0.125   1.977   5.836  0.0582  0.4828  0.0004
   89MOL    H1637152   0.111   1.898   5.988 -0.2147 -1.1718 -2.4259
   89MOL    H1737153   0.262   2.147   5.940 -1.6606  0.2573 -1.5146
   89MOL    H1837154   0.202   2.102   6.094 -0.0743 -2.5631 -0.4758
   89MOL    H1937155   0.042   2.272   6.024  1.1518  1.9844 -2.1494
   89MOL    H2037156   7.822   2.122   5.993 -1.6733  1.8098 -0.7705
   89MOL    H2137157   0.046   2.213   5.856 -1.3925  2.0938  0.8100
   89MOL    H2237158   0.724   2.141   5.631  1.6813 -1.3751  1.2390
   89MOL    C2337159   0.452   2.048   5.527  0.9325 -0.1156 -0.7116
   89MOL    C2437160   0.378   1.950   5.435  0.0166  0.8445  0.1965
   89MOL    C2537161   0.267   1.873   5.502  0.1042 -0.1723  0.0854
   89MOL    O2637162   0.283   1.762   5.550  0.3537 -0.2361  0.2010
   89MOL    O2737163   0.153   1.943   5.508 -0.3856 -0.7529 -0.6678
   89MOL    C2837164   0.042   1.890   5.561 -0.4802 -0.2529 -0.0047
   89MOL    C2937165   7.786   1.993   5.588  0.6099 -0.8742  0.0225
   89MOL    C3037166   7.644   1.942   5.630  0.0917  0.2626 -0.2387
   89MOL    C3137167   7.637   1.892   5.775  0.4877  0.3322  0.0601
   89MOL    H3237168   0.514   2.115   5.467 -1.1853  3.3942  0.8618
   89MOL    H3337169   0.385   2.107   5.590  2.3032  0.5760  0.1389
   89MOL    H3437170   0.450   1.870   5.415 -0.2551  0.9495 -1.1871
   89MOL    H3537171   0.051   1.838   5.657  0.6450  1.3016  0.7468
   89MOL    H3637172   0.005   1.811   5.495 -0.9652  0.8258 -1.0252
   89MOL    H3737173   7.819   2.069   5.659  1.1335  0.2807 -1.4040
   89MOL    H3837174   7.764   2.044   5.494  1.4669 -0.0301  0.2725
   89MOL    H3937175   7.620   1.858   5.565  2.3403 -0.1343 -0.5853
   89MOL    H4037176   7.571   2.019   5.605 -2.0914 -1.5024  0.5596
   89MOL    H4137177   7.532   1.888   5.805 -0.2790  0.8513 -2.4034
   89MOL    H4237178   7.702   1.947   5.842  1.3655  1.0097 -1.3320
   89MOL    H4337179   7.681   1.792   5.769 -0.1747  0.0541 -0.3225
   89MOL    C4437180   0.331   2.001   5.299  0.3878 -0.1606 -0.5450
   89MOL    C4537181   0.267   1.910   5.192 -0.0303 -0.0159 -0.8189
   89MOL    C4637182   0.244   1.995   5.065 -0.6656 -0.1094 -0.7976
   89MOL    O4737183   0.283   2.110   5.055 -0.7762 -0.2716 -0.6371
   89MOL    O4837184   0.172   1.936   4.973 -0.0814  0.1848 -0.1474
   89MOL    C4937185   0.148   1.999   4.843  0.6970 -0.1216  0.5043
   89MOL    C5037186   0.237   1.928   4.736  0.2578  0.1921 -0.7231
   89MOL    C5137187   0.389   1.969   4.737  0.3885 -0.4089 -0.4815
   89MOL    C5237188   0.463   1.933   4.604  0.5161  0.1455  0.0332
   89MOL    H5337189   0.407   2.056   5.244 -1.3094  0.0937 -2.7273
   89MOL    H5437190   0.260   2.080   5.323  0.4647 -0.4972  0.8169
   89MOL    H5537191   0.167   1.890   5.230  0.4330 -0.5332  0.1470
   89MOL    H5637192   0.170   2.106   4.849  1.8647 -0.3481  0.3340
   89MOL    H5737193   0.042   1.988   4.821  0.8598 -0.1843 -0.2447
   89MOL    H5837194   0.226   1.822   4.761  0.8827  0.4948  0.8851
   89MOL    H5937195   0.195   1.937   4.635 -0.9495  0.1141 -0.2406
   89MOL    H6037196   0.431   1.917   4.823  0.7757 -0.4062 -0.6722
   89MOL    H6137197   0.392   2.075   4.762  0.7034 -0.6458  0.5132
   89MOL    H6237198   0.564   1.974   4.609  0.2143  0.8342  0.5666
   89MOL    H6337199   0.409   1.976   4.519 -0.6017  1.6189  1.4568
   89MOL    H6437200   0.477   1.828   4.582  3.8113  0.8237 -1.4838
   89MOL    C6537201   0.343   1.780   5.159 -0.5849 -0.4597  0.0985
   89MOL    C6637202   0.252   1.665   5.109 -0.4390 -0.5595  0.3502
   89MOL    C6737203   0.333   1.559   5.026  0.1661 -0.3428  0.4028
   89MOL    O6837204   0.324   1.440   5.048 -0.1971  0.2646 -0.6033
   89MOL    O6937205   0.408   1.609   4.928  0.4881 -0.0026  0.1368
   89MOL    C7037206   0.500   1.523   4.861  0.4995  0.2075 -0.0529
   89MOL    C7137207   0.636   1.587   4.837 -0.5308 -0.1179  0.5791
   89MOL    C7237208   0.688   1.668   4.953 -0.6219 -0.3697 -0.1244
   89MOL    C7337209   0.823   1.730   4.925  0.4478 -0.1793  1.0092
   89MOL    H7437210   0.389   1.743   5.250 -3.3269  0.5243  1.9612
   89MOL    H7537211   0.431   1.795   5.097 -2.1643 -1.9952 -2.6130
   89MOL    H7637212   0.182   1.703   5.035  0.6647  0.9430  0.0597
   89MOL    H7737213   0.463   1.491   4.763 -0.7939 -0.7413  0.7293
   89MOL    H7837214   0.515   1.434   4.922  0.5744  0.9328  1.0029
   89MOL    H7937215   0.703   1.507   4.807 -0.8938 -0.5042  0.7943
   89MOL    H8037216   0.635   1.660   4.756  1.7627  1.0497  1.5438
   89MOL    H8137217   0.705   1.609   5.044  1.1758  1.5967  0.8504
   89MOL    H8237218   0.614   1.738   4.993  1.4144  2.3243 -0.9476
   89MOL    H8337219   0.854   1.804   4.999  0.6901 -0.9588  1.6979
   89MOL    H8437220   0.829   1.770   4.825 -0.2836 -0.8792  0.6757
   89MOL    H8537221   0.895   1.649   4.941 -1.2997 -1.7485  1.1620
   89MOL    C8637222   0.163   1.606   5.225 -0.5584  0.2535 -0.1511
   89MOL    C8737223   0.058   1.497   5.194  0.8247 -0.4715 -0.7898
   89MOL    C8837224   0.034   1.432   5.329 -0.0083  0.7084  0.2784
   89MOL    O8937225   0.027   1.312   5.341  0.0888  0.8189  0.1614
   89MOL    O9037226   0.002   1.527   5.425 -0.0832  0.6701 -0.5097
   89MOL    C9137227   7.833   1.493   5.562  0.8138  0.0826  0.4033
   89MOL    C9237228   7.712   1.554   5.626 -0.2785  0.2972  0.0843
   89MOL    C9337229   7.694   1.523   5.778 -0.5045 -0.2364 -0.1298
   89MOL    C9437230   7.818   1.566   5.855 -1.0199 -0.3022 -0.1393
   89MOL    H9537231   0.110   1.688   5.274 -0.8999 -0.1358  0.1320
   89MOL    H9637232   0.231   1.575   5.304 -1.8665  2.0990  1.7720
   89MOL    H9737233   0.106   1.415   5.140 -1.7267 -2.1607 -0.6092
   89MOL    H9837234   0.072   1.509   5.618  1.2200 -1.4126  0.1804
   89MOL    H9937235   7.820   1.385   5.569 -1.0433  0.3308  0.9360
   89MOL   H10037236   7.706   1.659   5.597  2.0224  0.4299 -0.0350
   89MOL   H10137237   7.630   1.502   5.576 -1.1573  0.1312  1.6594
   89MOL   H10237238   7.678   1.416   5.791  0.2952 -0.3776 -0.2403
   89MOL   H10337239   7.607   1.578   5.812  1.5550  2.2264  1.2559
   89MOL   H10437240   7.796   1.596   5.958 -0.5199 -0.7918  0.1146
   89MOL   H10537241   0.011   1.656   5.815 -0.3491 -0.8569 -0.6238
   89MOL   H10637242   0.049   1.496   5.848  0.6897  1.2991  2.9593
   89MOL   C10737243   7.776   1.541   5.121  0.2658  0.2478 -0.0676
   89MOL   C10837244   7.770   1.540   4.973 -0.3357  0.2326 -0.3812
   89MOL   C10937245   7.786   1.403   4.914 -0.4889 -0.1218 -0.6132
   89MOL   O11037246   0.022   1.359   4.842 -0.0945 -0.2388 -0.3845
   89MOL   O11137247   7.678   1.326   4.943 -0.4505 -0.4112  0.1286
   89MOL   C11237248   7.679   1.196   4.882  0.0896  0.4218 -0.4210
   89MOL   C11337249   7.554   1.113   4.936  0.1970  0.4729 -0.4904
   89MOL   C11437250   7.562   0.962   4.893  0.3420 -0.1601  0.0818
   89MOL   C11537251   7.454   0.868   4.942  0.1639  0.1107  0.3311
   89MOL   H11637252   7.759   1.646   5.148  1.6751  0.9810 -1.9196
   89MOL   H11737253   7.690   1.489   5.163  0.6516  1.1001  1.8499
   89MOL   H11837254   0.004   1.599   4.944  0.9761 -0.5658  1.8691
   89MOL   H11937255   7.764   1.128   4.887  0.4608  0.9667  0.9983
   89MOL   H12037256   7.660   1.203   4.775 -0.0870  0.2119 -0.4049
   89MOL   H12137257   7.553   1.119   5.044  1.0723  1.0985 -0.5115
   89MOL   H12237258   7.465   1.171   4.910  2.1932  3.9072  0.0191
   89MOL   H12337259   7.654   0.936   4.945  0.9303 -1.6335 -1.6167
   89MOL   H12437260   7.576   0.959   4.785 -0.9438 -0.8149 -0.0806
   89MOL   H12537261   7.375   0.926   4.989  0.2344  1.4021 -1.1237
   89MOL   H12637262   7.490   0.799   5.018 -0.9886 -1.7312 -0.7430
   89MOL   H12737263   7.412   0.800   4.868  0.0348  2.0003 -1.3840
   89MOL   C12837264   7.643   1.613   4.927 -0.0228 -0.2560  0.5808
   89MOL   C12937265   7.664   1.766   4.904 -0.2980 -0.1411  0.7857
   89MOL   C13037266   7.712   1.799   4.762  0.9390 -0.1220  0.2817
   89MOL   O13137267   7.681   1.898   4.694  0.3275 -0.6734  0.7808
   89MOL   O13237268   7.801   1.715   4.718 -0.3714 -0.6712  0.2276
   89MOL   C13337269   7.848   1.717   4.582 -0.0414 -0.0695 -0.1258
   89MOL   C13437270   0.116   1.619   4.570 -0.4576 -0.5227 -0.8284
   89MOL   C13537271   0.175   1.601   4.431 -0.4499  0.0303  0.1820
   89MOL   C13637272   0.302   1.518   4.432 -0.5217 -0.1374  0.8307
   89MOL   H13737273   7.561   1.599   4.997  0.8721  1.6592  2.0628
   89MOL   H13837274   7.612   1.572   4.830  0.1399 -1.4974  1.0458
   89MOL   H13937275   7.753   1.778   4.965 -0.8357  0.6991  1.4206
   89MOL   H14037276   0.037   1.815   4.562  1.3197 -0.2929  1.5474
   89MOL   H14137277   7.762   1.701   4.517 -0.3622  0.8133  0.0740
   89MOL   H14237278   0.198   1.637   4.640 -0.9737  0.6982 -0.5182
   89MOL   H14337279   0.074   1.525   4.605  1.2059 -0.4260  1.5427
   89MOL   H14437280   0.188   1.701   4.390  2.2301 -1.0402 -1.7793
   89MOL   H14537281   0.095   1.545   4.382  0.1994 -1.6874  1.0447
   89MOL   H14637282   0.378   1.570   4.489 -1.0851  0.3456  1.1342
   89MOL   H14737283   0.339   1.500   4.331  0.4543  3.6187  0.4446
   89MOL   H14837284   0.282   1.417   4.470  1.1639 -1.3982 -1.4818
   89MOL   C14937285   7.554   1.861   4.954  0.3770 -0.7661 -1.3316
   89MOL   C15037286   7.577   1.906   5.101  0.0240 -0.0979 -0.1645
   89MOL   C15137287   7.700   1.998   5.125 -0.4963 -0.0534  0.2334
   89MOL   O15237288   7.781   1.981   5.213 -0.2565  0.3052  0.0307
   89MOL   O15337289   7.703   2.098   5.032 -0.1445 -0.2567 -0.2609
   89MOL   C15437290   7.791   2.206   5.052 -0.6140 -0.9507 -0.5143
   89MOL   C15537291   7.717   2.337   5.024  0.7533  0.7328  0.0298
   89MOL   C15637292   7.816   2.453   5.011 -0.2943  0.5582 -0.0909
   89MOL   C15737293   7.740   2.591   4.995  0.4973 -0.2787 -0.0071
   89MOL   H15837294   7.463   1.802   4.949 -0.5434  0.5818 -0.8409
   89MOL   H15937295   7.531   1.947   4.890 -0.3919 -0.1307 -0.2315
   89MOL   H16037296   7.603   1.811   5.149 -0.0485 -0.4105 -0.7395
   89MOL   H16137297   0.017   2.180   4.982  2.1298  0.6751  1.9003
   89MOL   H16237298   7.842   2.207   5.149 -2.2207  0.4024  0.3428
   89MOL   H16337299   7.674   2.313   4.927  1.9724  0.2456 -0.3966
   89MOL   H16437300   7.638   2.359   5.096  0.0743 -1.6004  0.0263
   89MOL   H16537301   0.019   2.428   4.921 -0.4481 -2.5352  0.6166
   89MOL   H16637302   0.039   2.454   5.089 -0.1477  0.7134 -0.2380
   89MOL   H16737303   7.810   2.673   5.009 -1.0465  0.7309  2.0017
   89MOL   H16837304   7.659   2.605   5.067 -1.9417  1.3168 -2.9186
   89MOL   H16937305   7.703   2.598   4.892  2.9221  1.3557 -0.8035
   89MOL   C17037306   7.449   1.940   5.184  0.8783 -0.2292 -0.4555
   89MOL   C17137307   7.362   1.816   5.209 -0.4693  0.2957  0.1056
   89MOL   C17237308   7.431   1.710   5.294 -0.6112  0.3744 -0.0676
   89MOL   O17337309   7.529   1.738   5.361  0.0251 -0.2700  0.5156
   89MOL   O17437310   7.378   1.587   5.273 -0.8010 -0.0199 -0.0031
   89MOL   C17537311   7.438   1.474   5.336 -0.0575  0.3750 -0.2450
   89MOL   C17637312   7.320   1.393   5.386  0.2638 -0.1474 -0.6550
   89MOL   C17737313   7.360   1.261   5.453 -0.2951  0.2081 -0.0163
   89MOL   C17837314   7.254   1.187   5.540  0.9735 -0.0883 -0.4166
   89MOL   H17937315   7.386   2.009   5.127  0.1907 -0.0929  0.4506
   89MOL   H18037316   7.465   1.981   5.284  1.3403  0.8148 -0.9412
   89MOL   H18137317   7.345   1.757   5.118  1.5842  0.3660 -0.3492
   89MOL   H18237318   7.505   1.515   5.411  1.4245  0.0672 -1.3646
   89MOL   H18337319   7.503   1.422   5.265 -0.0020  2.7638 -1.9963
   89MOL   H18437320   7.268   1.463   5.452  0.5083  0.4341 -1.0730
   89MOL   H18537321   7.259   1.373   5.298  0.2356 -1.8123 -0.2714
   89MOL   H18637322   7.445   1.279   5.518  0.8139 -0.8036 -1.1429
   89MOL   H18737323   7.398   1.191   5.377 -1.6160 -0.4994 -0.0297
   89MOL   H18837324   7.247   1.233   5.638  3.3837 -1.4468  0.4546
   89MOL   H18937325   7.269   1.081   5.560  0.3049 -0.8304 -3.5983
   89MOL   H19037326   7.156   1.198   5.493  1.0236  0.3689 -0.4197
   89MOL   C19137327   7.221   1.854   5.273 -0.6475  0.3623 -0.1235
   89MOL   C19237328   7.114   1.912   5.173 -0.0495  0.1277  0.1055
   89MOL   C19337329   7.123   1.857   5.023 -0.3386  0.5899 -0.4158
   89MOL   O19437330   7.182   1.927   4.945 -0.2617 -0.0212  0.1173
   89MOL   O19537331   7.074   1.733   5.008 -0.2881 -0.0787 -0.2230
   89MOL   C19637332   7.084   1.670   4.883 -0.2240  0.2056 -0.8081
   89MOL   C19737333   7.187   1.561   4.885  0.2495  0.6020  0.1440
   89MOL   C19837334   7.158   1.439   4.972  0.6266  0.3761  0.0254
   89MOL   C19937335   7.270   1.339   4.998  0.3255 -0.3641 -0.4320
   89MOL   H20037336   7.240   1.926   5.353 -0.1905 -0.0221  0.1236
   89MOL   H20137337   7.177   1.773   5.331 -1.3875  0.9111  0.0923
   89MOL   H20237338   7.134   2.018   5.159  0.0576  0.2825  1.4143
   89MOL   H20337339   7.105   1.738   4.801  3.2017  1.8545  1.3068
   89MOL   H20437340   6.987   1.621   4.877 -1.3730  2.1890  0.7648
   89MOL   H20537341   7.198   1.539   4.779 -1.5426 -0.4150  0.1382
   89MOL   H20637342   7.284   1.609   4.898  0.9654 -0.8450  0.2487
   89MOL   H20737343   7.078   1.391   4.916  0.1244  0.9991  0.2035
   89MOL   H20837344   7.119   1.471   5.068 -1.1566 -0.5097 -0.3958
   89MOL   H20937345   7.305   1.319   4.897 -1.6727 -0.5873 -1.1088
   89MOL   H21037346   7.229   1.249   5.045  3.2865 -1.0185  1.0351
   89MOL   H21137347   7.363   1.367   5.046  1.4552 -1.0161 -2.2061
   89MOL   C21237348   6.978   1.901   5.246  0.3907  0.5596  0.6548
   89MOL   C21337349   6.865   1.991   5.188  0.0428  0.4675  0.0389
   89MOL   C21437350   6.730   1.952   5.249  0.1090 -0.5638  0.8108
   89MOL   O21537351   6.721   1.875   5.343 -0.1644 -0.1242  0.7237
   89MOL   O21637352   6.632   2.003   5.184  0.2937  0.1833  0.8045
   89MOL   C21737353   6.498   1.947   5.198  0.3036 -0.0139  0.2481
   89MOL   C21837354   6.395   2.042   5.125  0.7092 -0.7475 -0.1184
   89MOL   C21937355   6.377   2.185   5.191 -0.3895  0.3861  0.7428
   89MOL   C22037356   6.318   2.289   5.094 -0.7831  0.6119  0.2709
   89MOL   H22137357   6.981   1.938   5.349 -1.4967 -2.6621  1.9477
   89MOL   H22237358   6.955   1.796   5.259 -1.0317  1.0184  1.9096
   89MOL   H22337359   6.852   1.968   5.082 -0.1307 -1.4288  0.4460
   89MOL   H22437360   6.472   1.936   5.304  0.1769 -1.6895  0.0511
   89MOL   H22537361   6.497   1.847   5.155  0.6646 -0.4248  1.1782
   89MOL   H22637362   6.423   2.053   5.021 -0.2406 -1.9671 -0.5139
   89MOL   H22737363   6.298   1.995   5.138  1.3780 -1.9419  0.7569
   89MOL   H22837364   6.479   2.214   5.217  0.2033 -2.5916  2.0150
   89MOL   H22937365   6.313   2.179   5.279 -0.4128 -0.3570  0.6813
   89MOL   H23037366   6.287   2.372   5.158 -0.1411  1.2189 -0.2005
   89MOL   H23137367   6.230   2.259   5.038  1.0914 -2.5407 -1.1466
   89MOL   H23237368   6.387   2.339   5.027  1.2627 -2.5008 -0.0286
   89MOL   C23337369   6.890   2.147   5.209  0.2631  0.5186 -0.2065
   89MOL   C23437370   6.814   2.243   5.113 -0.2419  0.0716  0.1269
   89MOL   C23537371   6.821   2.386   5.163  0.7557  0.9028  0.3085
   89MOL   O23637372   6.919   2.455   5.151 -0.4047  0.0230 -0.5070
   89MOL   O23737373   6.721   2.409   5.246 -0.5057  1.1166  0.1301
   89MOL   C23837374   6.726   2.511   5.339  0.7697 -0.5757 -0.5187
   89MOL   C23937375   6.602   2.529   5.419 -0.8485 -0.4174  0.2020
   89MOL   C24037376   6.484   2.565   5.331 -0.0483 -0.0840  0.3477
   89MOL   C24137377   6.346   2.553   5.397 -0.6941  0.0200 -0.1814
   89MOL   H24237378   6.997   2.168   5.205 -0.0597  2.3919  0.5280
   89MOL   H24337379   6.857   2.176   5.309 -1.3056  0.5990 -0.7388
   89MOL   H24437380   6.708   2.220   5.102 -0.5252  1.8876 -1.0361
   89MOL   H24537381   6.748   2.607   5.292 -0.2587 -0.3287 -0.5082
   89MOL   H24637382   6.807   2.492   5.409  0.5820 -2.5662 -0.8140
   89MOL   H24737383   6.584   2.449   5.491 -0.9069 -0.7951 -0.2280
   89MOL   H24837384   6.612   2.615   5.485 -0.2990 -0.5799  0.3307
   89MOL   H24937385   6.476   2.500   5.244 -2.0554  1.8274 -0.9363
   89MOL   H25037386   6.498   2.667   5.295 -0.2563 -0.8562 -2.0103
   89MOL   H25137387   6.266   2.573   5.326 -0.8069 -1.3642 -0.4557
   89MOL   H25237388   6.347   2.630   5.474 -0.1624  0.7637 -0.9291
   89MOL   H25337389   6.326   2.455   5.440  1.1631  0.7027  2.3617
   89MOL   C25437390   6.875   2.227   4.969  0.3914 -0.8365  0.2277
   89MOL   C25537391   6.771   2.221   4.850  0.2141 -0.0962  0.4066
   89MOL   C25637392   6.714   2.362   4.832 -0.1353 -0.0770  0.4204
   89MOL   O25737393   6.591   2.385   4.846 -0.1246 -0.4637 -0.8752
   89MOL   O25837394   6.805   2.444   4.786  0.3840  0.2995 -0.0651
   89MOL   C25937395   6.781   2.577   4.754  0.2970 -0.9920 -1.0802
   89MOL   C26037396   6.783   2.673   4.865  0.5503  0.9744 -0.1512
   89MOL   C26137397   6.785   2.827   4.825 -0.4271  0.4941 -0.4905
   89MOL   C26237398   6.867   2.910   4.923  0.7385 -0.1662  0.2418
   89MOL   H26337399   6.934   2.136   4.975 -1.8693 -2.3284  0.5391
   89MOL   H26437400   6.943   2.310   4.951 -0.5483  0.2086  1.3791
   89MOL   H26537401   6.687   2.155   4.874 -0.3131  0.7838  1.0049
   89MOL   H26637402   6.685   2.592   4.704 -0.4387 -1.1380  0.2687
   89MOL   H26737403   6.856   2.600   4.678 -0.4710  1.8123 -1.0287
   89MOL   H26837404   6.704   2.648   4.935 -1.2004  0.2154 -2.3213
   89MOL   H26937405   6.876   2.649   4.917  1.6257 -0.7792 -2.7785
   89MOL   H27037406   6.681   2.854   4.807 -0.3864  1.7645  1.0864
   89MOL   H27137407   6.845   2.831   4.734  1.8580  0.7812  0.9809
   89MOL   H27237408   6.825   2.899   5.023  2.3626  0.5986  1.0041
   89MOL   H27337409   6.862   3.012   4.886 -3.0012  0.1260  1.2746
   89MOL   H27437410   6.974   2.891   4.917  0.6922 -0.5223  0.5386
   89MOL   C27537411   6.829   2.166   4.716 -0.4667  0.1169  0.7371
   89MOL   C27637412   6.883   2.025   4.729  0.3408 -0.2227  0.1571
   89MOL   C27737413   6.789   1.926   4.798  0.5981 -0.0667  0.2837
   89MOL   O27837414   6.826   1.865   4.896 -0.1288  0.3881  0.2181
   89MOL   O27937415   6.672   1.919   4.741 -0.2956 -0.3559  0.1989
   89MOL   C28037416   6.568   1.840   4.796  0.2989  0.3908  0.0156
   89MOL   C28137417   6.551   1.719   4.710  0.1110  0.9069  0.3548
   89MOL   C28237418   6.452   1.621   4.767 -0.2759  0.3870 -0.0520
   89MOL   C28337419   6.418   1.493   4.686 -0.0031 -0.4020  0.9462
   89MOL   H28437420   6.918   2.218   4.680 -2.3528  2.2451 -0.9079
   89MOL   H28537421   6.759   2.162   4.633 -0.3348 -0.8256  0.6633
   89MOL   H28637422   6.972   2.020   4.791  1.0091  3.2388 -0.4039
   89MOL   H28737423   6.468   1.883   4.796 -0.2857 -0.9439 -0.4091
   89MOL   H28837424   6.592   1.806   4.897  0.4118 -0.6136 -0.3415
   89MOL   H28937425   6.513   1.746   4.611  1.3297 -1.0990 -0.6928
   89MOL   H29037426   6.649   1.674   4.698 -0.3425 -0.0438  0.2334
   89MOL   H29137427   6.353   1.666   4.777  0.1743  1.3936 -0.1008
   89MOL   H29237428   6.493   1.594   4.864  1.0739 -0.4460 -0.8356
   89MOL   H29337429   6.383   1.520   4.586  0.7701  2.1646  1.3489
   89MOL   H29437430   6.344   1.431   4.737 -0.8560 -0.4900 -0.3610
   89MOL   H29537431   6.515   1.442   4.685  0.9337  1.3364  1.0224
   89MOL   C29637432   6.911   1.965   4.590 -0.0636  0.0446  0.3933
   89MOL   C29737433   7.035   2.026   4.525  0.4145 -0.2841 -0.0927
   89MOL   C29837434   7.164   2.010   4.605  0.0221 -0.1033  0.0261
   89MOL   O29937435   7.197   1.896   4.640 -0.3167 -0.0999  0.1021
   89MOL   O30037436   7.242   2.123   4.622  0.4746  0.2270 -0.2984
   89MOL   C30137437   7.363   2.118   4.696  0.3888  0.5493  0.8168
   89MOL   C30237438   7.366   2.251   4.776 -0.6505 -0.1398  0.6565
   89MOL   C30337439   7.327   2.245   4.928 -0.4931  0.2903 -0.7745
   89MOL   C30437440   7.303   2.381   4.996  0.4482 -0.4683  0.0362
   89MOL   H30537441   6.827   1.978   4.523  0.7186  0.1153 -0.5874
   89MOL   H30637442   6.930   1.858   4.607  0.8104  0.0172 -0.7062
   89MOL   H30737443   7.028   2.135   4.521  0.8818 -0.1798  1.4160
   89MOL   H30837444   7.440   2.120   4.619 -0.9487  2.1293 -0.5196
   89MOL   H30937445   7.386   2.030   4.757 -0.2325 -0.5748 -0.5471
   89MOL   H31037446   7.468   2.289   4.771 -0.5391 -0.6328 -1.5776
   89MOL   H31137447   7.316   2.332   4.722  0.9969  0.4179 -0.0844
   89MOL   H31237448   7.397   2.187   4.987  1.0884  2.0480 -0.8613
   89MOL   H31337449   7.237   2.183   4.924  0.0345 -0.7627  2.6518
   89MOL   H31437450   7.391   2.445   4.985  0.4030 -0.2124  1.0858
   89MOL   H31537451   7.276   2.365   5.100  1.5098  1.7209  0.6788
   89MOL   H31637452   7.216   2.427   4.949  0.1746  0.8694  1.8145
   89MOL   C31737453   7.069   1.965   4.392  0.5127 -0.2757  0.0148
   89MOL   C31837454   6.992   2.034   4.277  0.3783  0.5382 -0.1359
   89MOL   C31937455   7.025   2.176   4.252 -0.1839  0.2157 -0.4725
   89MOL   O32037456   7.144   2.213   4.272 -0.2660 -0.7709  0.1328
   89MOL   O32137457   6.921   2.247   4.203 -0.4240 -0.4705 -0.3248
   89MOL   C32237458   6.927   2.390   4.175  1.1092 -0.5660 -0.6884
   89MOL   C32337459   6.838   2.448   4.288  0.5406 -0.7135 -0.9457
   89MOL   C32437460   6.801   2.596   4.272 -0.0179 -0.2487  0.1752
   89MOL   C32537461   6.676   2.626   4.356  0.5896  0.4068  0.3280
   89MOL   H32637462   7.035   1.862   4.402 -2.7170  0.8396  1.5359
   89MOL   H32737463   7.176   1.963   4.376  0.8900  1.7019  2.1428
   89MOL   H32837464   6.888   2.030   4.311  1.0613  1.7376  2.2296
   89MOL   H32937465   6.891   2.411   4.074  1.0604  1.9835 -0.1582
   89MOL   H33037466   7.028   2.427   4.190  1.1428 -1.4389  1.4305
   89MOL   H33137467   6.740   2.400   4.278  0.4246 -0.8209  0.5736
   89MOL   H33237468   6.880   2.425   4.386 -3.4664  0.5529  1.2015
   89MOL   H33337469   6.785   2.602   4.165  1.6861  1.2836 -0.0073
   89MOL   H33437470   6.884   2.664   4.291 -2.3471  2.3016  1.6108
   89MOL   H33537471   6.660   2.733   4.341  0.8341  0.3876 -0.0640
   89MOL   H33637472   6.684   2.595   4.460  4.9621 -1.4287 -0.4424
   89MOL   H33737473   6.582   2.584   4.321  0.9864 -0.3512  0.1609
   89MOL   C33837474   6.987   1.965   4.135  0.0222 -0.0852  0.0105
   89MOL   C33937475   6.938   1.819   4.127 -0.2051 -0.0716 -0.6723
   89MOL   C34037476   6.790   1.809   4.161 -0.1436 -0.1328  0.2216
   89MOL   O34137477   6.717   1.908   4.171  0.7458 -0.0655 -0.0548
   89MOL   O34237478   6.758   1.683   4.196  0.0863  0.2034 -0.3147
   89MOL   C34337479   6.630   1.624   4.206  0.0186 -0.0029  0.2403
   89MOL   C34437480   6.602   1.504   4.113 -0.3800 -0.0616 -0.1771
   89MOL   C34537481   6.688   1.387   4.167 -0.3266  0.0967  0.0749
   89MOL   C34637482   6.647   1.257   4.097  0.1474 -0.9980  0.5041
   89MOL   H34737483   7.089   1.966   4.095  0.0527  0.5237  0.1001
   89MOL   H34837484   6.928   2.018   4.061  0.7309 -1.7940 -1.8313
   89MOL   H34937485   7.001   1.760   4.194 -1.9587 -0.3076  0.8005
   89MOL   H35037486   6.569   1.708   4.173 -0.2962 -0.1071  0.5482
   89MOL   H35137487   6.611   1.599   4.311  0.8361  1.1156  0.6628
   89MOL   H35237488   6.495   1.483   4.121 -0.5730  0.9001 -0.1451
   89MOL   H35337489   6.619   1.524   4.007  0.5522 -1.3303 -0.2782
   89MOL   H35437490   6.657   1.370   4.270  0.5514  0.8271  0.4750
   89MOL   H35537491   6.795   1.399   4.150 -0.0704 -0.2403  1.4105
   89MOL   H35637492   6.686   1.168   4.146 -1.3425 -2.0422 -0.1715
   89MOL   H35737493   6.690   1.252   3.997  0.3924  5.4113  0.0728
   89MOL   H35837494   6.539   1.240   4.101 -0.1683  0.7372 -0.2169
   89MOL   C35937495   6.967   1.773   3.978 -0.4954  0.0529 -0.5972
   89MOL   C36037496   6.974   1.618   3.967 -0.1823  0.1565  0.4493
   89MOL   C36137497   6.915   1.577   3.828 -0.4255 -0.1618 -0.3895
   89MOL   O36237498   6.811   1.516   3.817 -0.0985 -0.1571  0.5031
   89MOL   O36337499   6.994   1.609   3.723 -0.4134  0.1899  0.2688
   89MOL   C36437500   6.926   1.625   3.597 -0.9643  0.1727 -0.4805
   89MOL   C36537501   6.988   1.529   3.492  0.4370  0.3085  0.3190
   89MOL   C36637502   6.942   1.383   3.518 -0.8653  0.3531  0.0179
   89MOL   C36737503   7.042   1.278   3.471 -0.2038 -0.5559  0.1590
   89MOL   H36837504   7.064   1.812   3.949  0.2106 -0.3880  1.1351
   89MOL   H36937505   6.884   1.805   3.915 -1.8310  0.2943  1.2359
   89MOL   H37037506   6.912   1.568   4.041  0.5699 -0.7508  0.4699
   89MOL   H37137507   6.961   1.725   3.567 -1.9583  0.4491 -0.7262
   89MOL   H37237508   6.818   1.633   3.596 -0.9612  0.3049  0.5503
   89MOL   H37337509   6.933   1.561   3.404  1.4263  0.1320 -0.3598
   89MOL   H37437510   7.095   1.545   3.486  0.2182  1.4402 -0.6181
   89MOL   H37537511   6.840   1.358   3.488 -0.9080 -0.3510  0.7129
   89MOL   H37637512   6.942   1.365   3.626 -0.1698  1.0398  0.1374
   89MOL   H37737513   7.143   1.285   3.510 -0.0743  0.3910 -0.3337
   89MOL   H37837514   7.051   1.306   3.366 -1.3936 -1.4663 -0.2157
   89MOL   H37937515   7.006   1.175   3.483  1.4770 -1.0228  1.3051
   89MOL   C38037516   7.125   1.579   3.998  0.8311  0.1811 -0.5695
   89MOL   C38137517   7.157   1.437   4.055 -0.1087  0.0268  0.0456
   89MOL   C38237518   7.155   1.324   3.953 -0.1270 -0.1466 -0.4578
   89MOL   O38337519   7.079   1.228   3.960  0.0332  0.4961 -0.2675
   89MOL   O38437520   7.249   1.340   3.853  0.5055 -0.1274 -0.0243
   89MOL   C38537521   7.259   1.238   3.754 -0.1494 -0.6317 -0.3191
   89MOL   C38637522   7.368   1.141   3.810  0.3159  0.9514 -0.1345
   89MOL   C38737523   7.416   1.016   3.730  0.2449 -0.6769 -0.1428
   89MOL   C38837524   7.539   1.043   3.640  0.2283  0.6575  0.2895
   89MOL   H38937525   7.164   1.656   4.065 -0.0276 -0.5521  0.7964
   89MOL   H39037526   7.196   1.600   3.918 -0.1157  2.0638 -0.9479
   89MOL   H39137527   7.088   1.399   4.130  0.8173 -1.7874  0.0231
   89MOL   H39237528   7.302   1.281   3.664 -1.5552  1.7831  0.1187
   89MOL   H39337529   7.170   1.181   3.730 -2.2929  1.9562  1.2740
   89MOL   H39437530   7.457   1.196   3.841  0.4343 -0.0551  1.3622
   89MOL   H39537531   7.322   1.096   3.898  1.6894 -0.1500  0.0349
   89MOL   H39637532   7.334   0.979   3.669  0.0318 -0.8735  0.2582
   89MOL   H39737533   7.431   0.930   3.795 -1.7372  0.6006  2.1088
   89MOL   H39837534   7.581   0.959   3.585 -0.3903  0.9811 -0.6731
   89MOL   H39937535   7.619   1.065   3.712  0.6167  0.1601  0.0108
   89MOL   H40037536   7.517   1.132   3.581  1.1673  0.2629 -0.6689
   89MOL   C40137537   7.294   1.430   4.131 -0.1955  0.1599  0.0112
   89MOL   C40237538   7.310   1.298   4.212  0.0806 -0.2297  0.2007
   89MOL   C40337539   7.459   1.265   4.218  0.5906  0.1024  0.2239
   89MOL   O40437540   7.537   1.318   4.296  0.5272  0.0352  0.1155
   89MOL   O40537541   7.493   1.170   4.133  0.2809 -0.8328 -0.3407
   89MOL   C40637542   7.617   1.108   4.141  0.0635  0.0419  0.7279
   89MOL   C40737543   7.617   0.987   4.047 -0.4198 -0.1158 -0.2078
   89MOL   C40837544   7.740   0.900   4.065 -0.7044  0.2943  0.1266
   89MOL   C40937545   0.009   0.972   4.012  0.0342 -0.3314 -0.5438
   89MOL   H41037546   7.285   1.515   4.199 -1.1887 -0.8804  1.1954
   89MOL   H41137547   7.369   1.445   4.053 -0.4797 -0.2057 -0.3403
   89MOL   H41237548   7.249   1.217   4.172  0.3059 -0.2857 -0.0317
   89MOL   H41337549   7.637   1.084   4.245  2.5517  0.4319  0.3811
   89MOL   H41437550   7.689   1.180   4.103  0.1647  0.1020  1.0325
   89MOL   H41537551   7.529   0.927   4.073  1.1286 -2.3765 -0.0448
   89MOL   H41637552   7.600   1.028   3.948 -1.7674 -1.5608 -0.6054
   89MOL   H41737553   7.741   0.804   4.014  3.0874  0.4598 -0.2565
   89MOL   H41837554   7.746   0.871   4.169 -0.9761 -1.8916 -0.4490
   89MOL   H41937555   0.035   1.069   4.055  0.4776 -0.6841 -0.0218
   89MOL   H42037556   7.846   0.982   3.904  1.7054 -0.8452 -0.8583
   89MOL   H42137557   0.100   0.913   4.019  0.2478 -0.0572 -0.9628
   89MOL   H42237558   7.275   1.318   4.313 -0.6804  1.9464 -0.4775
   90MOL     C137559   5.766   5.691   7.562 -0.1606  0.5137  0.1896
   90MOL     C237560   5.706   5.740   7.699 -0.0788 -0.0161  0.0280
   90MOL     C337561   5.568   5.676   7.718 -0.2603 -0.7670  0.4047
   90MOL     O437562   5.560   5.560   7.711 -0.3287  0.6518  0.1508
   90MOL     O537563   5.472   5.761   7.721  0.0819 -0.4398  0.5087
   90MOL     C637564   5.340   5.710   7.735 -0.5041  0.3287  0.2746
   90MOL     C737565   5.251   5.826   7.773 -0.7597 -0.5958  0.2770
   90MOL     C837566   5.285   5.891   0.063  0.4878 -0.1369 -0.1360
   90MOL     C937567   5.178   5.984   0.110 -0.1738  0.1438  0.1120
   90MOL    H1037568   5.850   5.749   7.524 -0.1385 -0.0229 -0.5903
   90MOL    H1137569   5.802   5.591   7.587 -0.0907  0.7842  1.1989
   90MOL    H1237570   5.687   5.847   7.706 -0.0590 -0.0297  0.2813
   90MOL    H1337571   5.340   5.635   7.814  0.7849  0.1602  0.1239
   90MOL    H1437572   5.305   5.660   7.645 -0.5089 -0.1781  0.5595
   90MOL    H1537573   5.258   5.905   7.698 -0.2310  1.6240  2.6045
   90MOL    H1637574   5.145   5.799   7.773 -0.9984  0.2857  2.1256
   90MOL    H1737575   5.386   5.932   0.057  1.5133 -2.5056  0.1069
   90MOL    H1837576   5.289   5.809   0.135  1.4610 -0.9274 -1.0851
   90MOL    H1937577   5.204   6.022   0.209 -0.8790 -0.3573  0.4860
   90MOL    H2037578   5.085   5.928   0.113 -1.0424  1.4519 -1.5791
   90MOL    H2137579   5.161   6.071   0.047  0.5058  0.1603 -0.0617
   90MOL    H2237580   5.695   5.678   7.481  0.3085  0.9042 -0.2843
   90MOL    C2337581   5.804   5.693   7.808  0.4678 -0.0469  0.5731
   90MOL    C2437582   5.833   5.786   0.070  0.2953 -0.5364  0.9653
   90MOL    C2537583   5.711   5.838   0.151 -0.2633 -0.5184  0.0483
   90MOL    O2637584   5.660   5.947   0.132 -0.0617 -0.3328 -0.4096
   90MOL    O2737585   5.672   5.763   0.247  0.0020  0.1259  0.5912
   90MOL    C2837586   5.549   5.777   0.312 -0.1115 -0.8063 -0.9510
   90MOL    C2937587   5.562   5.739   0.458 -0.0574 -0.9039  0.7691
   90MOL    C3037588   5.593   5.855   0.552 -0.2952 -0.0247 -0.4630
   90MOL    C3137589   5.744   5.896   0.563 -0.0603  0.2528  0.1669
   90MOL    H3237590   5.903   5.665   7.771  0.2061  1.2871 -1.2012
   90MOL    H3337591   5.764   5.601   7.851  0.0129  0.7936  1.9385
   90MOL    H3437592   5.874   5.877   0.025  0.0852 -0.7115  0.4112
   90MOL    H3537593   5.471   5.727   0.256  0.1294 -0.8342 -1.2647
   90MOL    H3637594   5.514   5.880   0.312 -0.4253 -0.9125 -1.2740
   90MOL    H3737595   5.465   5.694   0.479  0.6423 -2.9052 -0.1518
   90MOL    H3837596   5.631   5.654   0.460  1.1239 -0.0464 -1.5311
   90MOL    H3937597   5.558   5.837   0.654  0.7452  0.3133 -0.0336
   90MOL    H4037598   5.543   5.945   0.518 -0.8338 -0.3819 -0.6212
   90MOL    H4137599   5.811   5.811   0.577  1.2777  1.2677  0.0777
   90MOL    H4237600   5.759   5.967   0.644 -3.4284  0.0695  1.0288
   90MOL    H4337601   5.781   5.940   0.470  0.5021 -0.1505  0.2008
   90MOL    C4437602   5.935   5.725   0.165 -0.1944  0.1494 -0.1479
   90MOL    C4537603   6.082   5.738   0.118 -0.2172 -0.2363 -0.0054
   90MOL    C4637604   6.123   5.881   0.088  0.0049 -0.9028 -0.6132
   90MOL    O4737605   6.138   5.924   7.832  0.2585  0.5848  0.3434
   90MOL    O4837606   6.114   5.952   0.199 -0.0181 -0.4310 -0.1527
   90MOL    C4937607   6.120   6.097   0.202 -0.0001  0.4172  0.8179
   90MOL    C5037608   5.978   6.146   0.223 -0.2116 -0.2233  0.1700
   90MOL    C5137609   5.969   6.298   0.236  0.0620 -0.5483  0.5948
   90MOL    C5237610   5.958   6.346   0.383 -0.0512 -0.0243  0.2363
   90MOL    H5337611   5.926   5.620   0.191  1.4658  0.2376  0.9066
   90MOL    H5437612   5.935   5.764   0.267  1.3031 -4.2766  1.6935
   90MOL    H5537613   6.087   5.679   0.027 -3.1017  0.9257 -0.9549
   90MOL    H5637614   6.161   6.136   0.108  1.8781 -2.0284  0.5852
   90MOL    H5737615   6.179   6.141   0.283  2.4900 -0.9098 -0.2195
   90MOL    H5837616   5.927   6.115   0.132  1.8054 -3.4437  0.0620
   90MOL    H5937617   5.925   6.084   0.296 -1.8601  1.5887  0.5455
   90MOL    H6037618   5.880   6.337   0.186  1.7530  3.0828  0.2135
   90MOL    H6137619   6.065   6.335   0.202 -0.4442  1.8015  1.5961
   90MOL    H6237620   5.919   6.447   0.398 -2.7894 -0.8347 -0.9782
   90MOL    H6337621   6.059   6.352   0.423  0.1323 -0.3309 -0.1769
   90MOL    H6437622   5.902   6.269   0.437 -0.0147  0.0434  0.3695
   90MOL    C6537623   6.180   5.684   0.222  0.1632 -0.0181  0.5451
   90MOL    C6637624   6.174   5.535   0.268 -0.4470  0.1310  0.5195
   90MOL    C6737625   6.213   5.437   0.154 -0.4502 -0.2756  0.1491
   90MOL    O6837626   6.244   5.471   0.044 -0.6332  0.0342 -0.3556
   90MOL    O6937627   6.197   5.317   0.195 -0.3739  0.4124  0.5008
   90MOL    C7037628   6.186   5.205   0.111 -0.7605  0.4309  0.0130
   90MOL    C7137629   6.045   5.180   0.072  1.0850  0.4866 -0.1872
   90MOL    C7237630   5.979   5.293   7.849  0.0648 -0.3979  0.2455
   90MOL    C7337631   5.838   5.264   7.801  0.1067 -0.1340  0.1455
   90MOL    H7437632   6.176   5.751   0.308 -0.6667  0.8578 -0.1649
   90MOL    H7537633   6.283   5.701   0.188  0.1940  1.5912  1.3935
   90MOL    H7637634   6.072   5.499   0.281 -1.6384  3.2104  0.1087
   90MOL    H7737635   6.225   5.119   0.164 -0.6233  0.0188 -0.7471
   90MOL    H7837636   6.246   5.200   0.020 -0.3327 -0.4494  0.3447
   90MOL    H7937637   6.045   5.089   0.012 -2.6186 -0.3512  0.9436
   90MOL    H8037638   5.996   5.147   0.163  3.0366  0.0636  0.7346
   90MOL    H8137639   6.053   5.321   7.774 -2.4342  0.8140 -1.8557
   90MOL    H8237640   5.968   5.382   0.057 -0.9282 -0.3603  0.0224
   90MOL    H8337641   5.827   5.173   7.743  0.9471  0.6978 -1.3629
   90MOL    H8437642   5.795   5.345   7.742 -2.5461  0.0187  2.2076
   90MOL    H8537643   5.775   5.267   0.037  0.2603  2.0233  0.2050
   90MOL    C8637644   6.247   5.509   0.398  0.6682  0.3948 -0.5389
   90MOL    C8737645   6.188   5.389   0.486  0.1935 -0.7071 -0.1394
   90MOL    C8837646   6.301   5.326   0.574 -0.5077 -0.4046  0.4461
   90MOL    O8937647   6.383   5.399   0.632 -0.2389 -0.0650  0.1036
   90MOL    O9037648   6.285   5.199   0.604 -0.1433 -0.1506 -0.0362
   90MOL    C9137649   6.370   5.116   0.681 -0.0380  0.5546 -0.2491
   90MOL    C9237650   6.322   5.102   0.825 -0.0765 -0.0174 -0.0405
   90MOL    C9337651   6.352   5.222   0.912 -0.4357 -0.0713 -0.0956
   90MOL    C9437652   6.308   5.219   1.057 -0.1293  0.2848 -0.1767
   90MOL    H9537653   6.245   5.599   0.459  0.5074 -0.2500  0.4318
   90MOL    H9637654   6.353   5.509   0.370  0.0862  1.0030 -2.8370
   90MOL    H9737655   6.154   5.308   0.422 -2.3185 -0.1554  0.4263
   90MOL    H9837656   6.468   5.163   0.673 -0.1607  0.6462 -1.2028
   90MOL    H9937657   6.372   5.014   0.644 -0.6349  0.2287  0.6093
   90MOL   H10037658   6.215   5.083   0.835  0.0314  0.0477  1.3494
   90MOL   H10137659   6.379   5.020   0.871  1.6574  1.8276  1.1611
   90MOL   H10237660   6.325   5.310   0.854 -0.9407 -1.2595 -1.7116
   90MOL   H10337661   6.460   5.237   0.922 -0.5904  0.3575  1.0048
   90MOL   H10437662   6.326   5.314   1.109  2.1507  0.7764 -1.7993
   90MOL   H10537663   6.356   5.147   1.123  2.2605  2.0238  0.0583
   90MOL   H10637664   6.200   5.213   1.074 -0.0532  1.6329  0.9490
   90MOL   C10737665   6.071   5.436   0.573 -0.3551  0.1541  0.1135
   90MOL   C10837666   5.929   5.441   0.503  0.0578  0.1186 -0.4175
   90MOL   C10937667   5.900   5.314   0.422 -0.8044 -0.1119 -0.4315
   90MOL   O11037668   5.853   5.319   0.308  0.1325 -0.2496  0.0889
   90MOL   O11137669   5.933   5.197   0.489  0.6045 -0.1896  0.1509
   90MOL   C11237670   5.915   5.069   0.425 -0.1023  0.1155 -0.3718
   90MOL   C11337671   5.835   4.984   0.524  0.5643  0.1955  0.0057
   90MOL   C11437672   5.915   4.952   0.650  0.2856  0.5999  0.2024
   90MOL   C11537673   6.002   4.824   0.635  0.5980 -0.5004 -0.6561
   90MOL   H11637674   6.107   5.525   0.624  0.5428  0.8769 -1.7448
   90MOL   H11737675   6.059   5.357   0.648 -0.4579  0.1482  0.0912
   90MOL   H11837676   5.932   5.528   0.437 -2.1505 -0.8005 -1.7959
   90MOL   H11937677   6.010   5.031   0.390  1.8971  3.6207  0.9756
   90MOL   H12037678   5.851   5.072   0.337 -0.6172 -1.1801 -0.0595
   90MOL   H12137679   5.742   5.034   0.552  0.3882  0.4629 -1.0476
   90MOL   H12237680   5.798   4.895   0.475 -0.3303  0.6107 -0.0751
   90MOL   H12337681   5.840   4.939   0.728 -0.7162  1.6980 -0.5640
   90MOL   H12437682   5.976   5.039   0.674  0.8498  0.8461 -2.0244
   90MOL   H12537683   6.053   4.815   0.539 -1.4207  1.3054 -1.9400
   90MOL   H12637684   5.937   4.737   0.647 -0.1703  0.3420  1.3851
   90MOL   H12737685   6.068   4.799   0.718 -2.1376 -0.4057  1.6064
   90MOL   C12837686   5.825   5.473   0.602  0.9136 -0.3145 -0.3546
   90MOL   C12937687   5.774   5.364   0.698 -0.7260 -0.8393 -0.4149
   90MOL   C13037688   5.862   5.353   0.827  0.5602  0.2545  0.2889
   90MOL   O13137689   5.932   5.449   0.869  0.0337 -0.1692 -0.1786
   90MOL   O13237690   5.856   5.230   0.881 -0.3165 -0.4048 -0.0907
   90MOL   C13337691   5.919   5.196   1.001 -0.5792 -0.1116 -1.0726
   90MOL   C13437692   5.831   5.092   1.069  0.2528 -0.2233  0.0224
   90MOL   C13537693   5.685   5.135   1.090 -0.5339 -0.2416 -0.2057
   90MOL   C13637694   5.611   5.025   1.165 -0.1371  0.2992  0.3412
   90MOL   H13737695   5.740   5.502   0.540  1.0643 -0.7098 -0.7459
   90MOL   H13837696   5.850   5.560   0.663 -1.0715  3.0529 -4.0988
   90MOL   H13937697   5.765   5.263   0.657  0.0377 -0.8218 -0.6357
   90MOL   H14037698   5.942   5.288   1.054 -2.5195  0.8497 -1.8623
   90MOL   H14137699   6.012   5.145   0.975 -0.7797  0.1466 -2.3131
   90MOL   H14237700   5.828   5.009   0.999 -0.7726  0.3653 -0.6381
   90MOL   H14337701   5.871   5.059   1.165 -0.2555  1.2714  0.7586
   90MOL   H14437702   5.634   5.156   0.996  0.9889 -0.1336 -1.0282
   90MOL   H14537703   5.676   5.223   1.153 -2.1003 -0.9100  0.5338
   90MOL   H14637704   5.654   4.997   1.262 -0.5480  0.4364  0.5656
   90MOL   H14737705   5.578   4.942   1.102 -1.2953  0.7755  0.3008
   90MOL   H14837706   5.513   5.068   1.187 -0.2806 -0.1648  0.6421
   90MOL   C14937707   5.629   5.394   0.746 -0.3332  0.7529  0.2484
   90MOL   C15037708   5.509   5.363   0.659  0.6485 -0.1452  0.2697
   90MOL   C15137709   5.490   5.215   0.625 -0.1706 -0.0345  0.4426
   90MOL   O15237710   5.464   5.188   0.511 -0.1158 -0.0853  0.5201
   90MOL   O15337711   5.510   5.129   0.731  0.2287 -0.5407 -0.1327
   90MOL   C15437712   5.494   4.991   0.722  0.1820 -0.0528  0.2483
   90MOL   C15537713   5.359   4.949   0.783 -0.4975 -1.0462 -0.5688
   90MOL   C15637714   5.343   4.802   0.807  0.3133  0.0962 -0.5815
   90MOL   C15737715   5.205   4.784   0.872  0.0066 -0.0120 -0.3461
   90MOL   H15837716   5.626   5.501   0.766  0.7542  0.6699  0.8836
   90MOL   H15937717   5.604   5.350   0.843 -1.7490 -0.0536 -0.4575
   90MOL   H16037718   5.539   5.410   0.565  0.1027 -1.3613 -0.5320
   90MOL   H16137719   5.583   4.951   0.770  1.8279  0.3308 -2.3661
   90MOL   H16237720   5.509   4.964   0.618  1.0819  2.8110 -0.4236
   90MOL   H16337721   5.322   5.011   0.864  0.5852 -2.0975  0.7557
   90MOL   H16437722   5.288   4.975   0.704 -0.1524 -0.6169 -0.7330
   90MOL   H16537723   5.421   4.760   0.870 -0.4009 -0.0134  0.2323
   90MOL   H16637724   5.345   4.758   0.706  1.2283 -3.3008  0.8372
   90MOL   H16737725   5.173   4.681   0.889 -1.9834  0.6377 -0.0260
   90MOL   H16837726   5.128   4.841   0.819  0.4798  0.1813 -0.8223
   90MOL   H16937727   5.203   4.820   0.975 -1.2724 -1.7805  0.2792
   90MOL   C17037728   5.382   5.440   0.702  0.4374  0.4552 -0.4348
   90MOL   C17137729   5.281   5.379   0.806 -0.5127  0.2160 -0.4298
   90MOL   C17237730   5.349   5.356   0.943 -0.4568 -0.5647  0.0229
   90MOL   O17337731   5.373   5.242   0.985  0.0303 -0.3257  0.8048
   90MOL   O17437732   5.380   5.477   1.005 -0.1263 -0.7163  0.1163
   90MOL   C17537733   5.436   5.479   1.133  0.9388  0.5409  0.1009
   90MOL   C17637734   5.519   5.608   1.138 -0.1056 -0.0393 -0.1332
   90MOL   C17737735   5.652   5.600   1.224 -0.0049 -0.4472  0.3321
   90MOL   C17837736   5.769   5.555   1.140 -0.1872  0.1343 -0.0239
   90MOL   H17937737   5.325   5.452   0.609 -2.1511  0.0566  1.0434
   90MOL   H18037738   5.410   5.544   0.722  2.3115 -0.1409  0.0758
   90MOL   H18137739   5.255   5.286   0.756 -0.5164  0.1450 -0.2951
   90MOL   H18237740   5.512   5.401   1.142 -2.0855 -2.5815 -0.2972
   90MOL   H18337741   5.370   5.467   1.218 -0.2210 -0.2639 -0.8991
   90MOL   H18437742   5.544   5.632   1.035  0.8793 -1.7232 -0.3087
   90MOL   H18537743   5.470   5.692   1.187 -1.8595 -1.3410  0.4214
   90MOL   H18637744   5.640   5.538   1.313  1.0571 -1.7036 -0.3778
   90MOL   H18737745   5.668   5.695   1.274 -2.2728 -0.5491  1.3303
   90MOL   H18837746   5.747   5.464   1.084 -0.7715 -0.8984  1.8335
   90MOL   H18937747   5.839   5.518   1.216 -0.6251  0.4657  0.5455
   90MOL   H19037748   5.807   5.644   1.090  0.9289 -1.1331 -1.4737
   90MOL   C19137749   5.161   5.469   0.819  0.4882 -0.2472 -0.2576
   90MOL   C19237750   5.037   5.383   0.856  0.4386  0.1564  0.6934
   90MOL   C19337751   5.034   5.342   1.004 -0.1173  0.1464 -0.1117
   90MOL   O19437752   5.088   5.404   1.095  0.3070  0.0972 -0.0626
   90MOL   O19537753   4.969   5.225   1.017 -0.5624 -0.2943  0.0732
   90MOL   C19637754   4.956   5.151   1.138 -0.3376 -0.0926  0.1741
   90MOL   C19737755   5.091   5.106   1.178 -0.6358 -0.9317 -0.1826
   90MOL   C19837756   5.088   4.997   1.293 -0.0632 -0.4095 -0.2743
   90MOL   C19937757   5.229   4.965   1.343 -0.8552  0.4995 -0.1913
   90MOL   H20037758   5.164   5.517   0.721 -0.4314  2.0009  0.7798
   90MOL   H20137759   5.173   5.554   0.887  0.9684  0.2980 -1.0135
   90MOL   H20237760   5.047   5.293   0.795 -1.7358 -0.3421  1.0045
   90MOL   H20337761   4.898   5.062   1.114 -0.6853  0.2149 -0.1304
   90MOL   H20437762   4.908   5.219   1.209  0.8289  0.4110  0.4862
   90MOL   H20537763   5.141   5.055   1.095  0.7505 -0.0280  0.0835
   90MOL   H20637764   5.145   5.197   1.204 -1.3857 -0.4859 -0.1795
   90MOL   H20737765   5.044   4.906   1.253 -0.1711 -1.2817  1.7832
   90MOL   H20837766   5.026   5.026   1.378 -3.9452  0.2763 -3.1847
   90MOL   H20937767   5.228   4.869   1.394  0.9602  0.2267 -0.6368
   90MOL   H21037768   5.275   5.043   1.404  1.2046 -1.2088  0.4978
   90MOL   H21137769   5.292   4.952   1.255 -2.2724 -0.0320 -1.1546
   90MOL   C21237770   4.906   5.459   0.807  0.0934  0.1585  0.1401
   90MOL   C21337771   4.888   5.423   0.660  0.1280 -0.2697 -0.1013
   90MOL   C21437772   4.810   5.292   0.644 -0.5855  0.7140  0.1700
   90MOL   O21537773   4.692   5.304   0.644  0.4759 -0.0803 -0.2259
   90MOL   O21637774   4.886   5.182   0.654  0.1866 -0.2858 -0.3947
   90MOL   C21737775   4.834   5.050   0.663 -0.1273  0.7100  0.4360
   90MOL   C21837776   4.826   5.005   0.807 -0.2245 -0.3860 -0.4709
   90MOL   C21937777   4.770   4.863   0.832  0.1538  0.1935  0.0691
   90MOL   C22037778   4.805   4.816   0.975 -0.4741 -0.4468 -0.2541
   90MOL   H22137779   4.915   5.567   0.814  2.2790  0.0909 -1.1601
   90MOL   H22237780   4.812   5.427   0.853  1.0961 -0.8466  1.5481
   90MOL   H22337781   4.983   5.412   0.608 -0.5942 -2.7461 -0.9760
   90MOL   H22437782   4.878   4.972   0.600 -0.7938  0.6232  0.0701
   90MOL   H22537783   4.729   5.052   0.634  0.2168  1.9735 -0.7801
   90MOL   H22637784   4.929   5.008   0.845 -0.4085  1.0450 -0.0663
   90MOL   H22737785   4.773   5.077   0.870  1.6468  0.7971 -0.2014
   90MOL   H22837786   4.796   4.800   0.747  0.9640  1.6147 -0.7561
   90MOL   H22937787   4.661   4.865   0.824  0.2420 -0.5993 -1.4750
   90MOL   H23037788   4.908   4.836   1.004 -0.5951 -0.5623  0.2485
   90MOL   H23137789   4.782   4.709   0.978 -1.5960 -0.3184 -2.9518
   90MOL   H23237790   4.753   4.873   1.051 -0.2535  0.0293 -0.4554
   90MOL   C23337791   4.812   5.533   0.595 -0.0672  0.0255 -0.0979
   90MOL   C23437792   4.832   5.535   0.442  0.1042  0.4030  0.7931
   90MOL   C23537793   4.691   5.545   0.378  0.8126 -0.5885 -0.7020
   90MOL   O23637794   4.667   5.485   0.274  0.2905  0.0467 -0.4348
   90MOL   O23737795   4.609   5.631   0.438  0.1060 -0.5221 -0.2117
   90MOL   C23837796   4.469   5.619   0.411  0.3542 -0.7031  0.1360
   90MOL   C23937797   4.381   5.713   0.488  0.4337 -0.4713  0.0366
   90MOL   C24037798   4.420   5.863   0.482 -0.0268  0.2582  0.4189
   90MOL   C24137799   4.340   5.950   0.581 -0.1148 -0.4507  0.7317
   90MOL   H24237800   4.842   5.632   0.630 -0.6301  0.5889 -1.1812
   90MOL   H24337801   4.710   5.529   0.632 -0.6758  0.5025 -1.7021
   90MOL   H24437802   4.880   5.444   0.407 -1.0123 -0.3184  1.0826
   90MOL   H24537803   4.432   5.518   0.430 -0.2839 -0.4226  0.3696
   90MOL   H24637804   4.446   5.639   0.306 -0.7745  2.0700  0.8676
   90MOL   H24737805   4.282   5.698   0.445  0.7869 -1.8380 -0.3197
   90MOL   H24837806   4.383   5.674   0.590  2.6333 -2.2994 -0.6745
   90MOL   H24937807   4.415   5.889   0.376  1.5881 -1.5165 -0.1200
   90MOL   H25037808   4.527   5.884   0.489 -0.1643  1.6289 -0.9899
   90MOL   H25137809   4.358   5.911   0.681  0.3714 -1.1559  0.3780
   90MOL   H25237810   4.232   5.951   0.567  0.2552  0.8702 -2.6556
   90MOL   H25337811   4.369   6.055   0.571  0.8056 -0.7761 -0.1443
   90MOL   C25437812   4.922   5.654   0.391  0.3236 -0.6647  0.1208
   90MOL   C25537813   5.073   5.647   0.431 -0.4344  0.7994 -0.3139
   90MOL   C25637814   5.127   5.540   0.333  0.0976 -0.4563  0.0822
   90MOL   O25737815   5.209   5.565   0.245  0.0066 -0.0316 -0.1351
   90MOL   O25837816   5.104   5.411   0.371  0.0803  0.1915 -0.3165
   90MOL   C25937817   5.173   5.299   0.313  0.4656  0.3208 -0.0320
   90MOL   C26037818   5.075   5.202   0.241  0.2616  0.2900 -0.1204
   90MOL   C26137819   4.965   5.156   0.337 -0.8660 -0.4863 -0.1383
   90MOL   C26237820   4.869   5.066   0.269 -0.1072  0.4766 -0.2897
   90MOL   H26337821   4.880   5.736   0.449 -0.9642 -1.9446  1.0490
   90MOL   H26437822   4.904   5.677   0.286  0.2364  0.7364  0.4307
   90MOL   H26537823   5.086   5.606   0.532  1.2433  0.5863 -0.5994
   90MOL   H26637824   5.210   5.254   0.405  0.8270 -0.1945 -0.4267
   90MOL   H26737825   5.261   5.328   0.256  0.1770 -0.1862 -0.7456
   90MOL   H26837826   5.035   5.252   0.153  1.0412  0.4972 -0.3683
   90MOL   H26937827   5.139   5.129   0.190 -0.0839  0.3981 -0.7094
   90MOL   H27037828   4.919   5.246   0.380 -0.7107 -0.7009  0.4730
   90MOL   H27137829   5.017   5.109   0.419  0.8655  2.7974  0.7514
   90MOL   H27237830   4.818   5.112   0.184  1.1504  1.1437 -0.6906
   90MOL   H27337831   4.784   5.046   0.335 -1.3730  1.9172 -1.4151
   90MOL   H27437832   4.922   4.977   0.236  1.0569  1.1661 -0.3144
   90MOL   C27537833   5.140   5.786   0.421  0.2810 -0.1518  0.8160
   90MOL   C27637834   5.115   5.869   0.552 -0.0268 -0.2291  0.5244
   90MOL   C27737835   5.192   5.830   0.675 -0.4357 -0.1694 -0.2961
   90MOL   O27837836   5.276   5.745   0.667 -0.6510  0.1331 -0.1485
   90MOL   O27937837   5.158   5.884   0.791 -0.2463 -0.2006 -0.2901
   90MOL   C28037838   5.224   5.840   0.914  0.3627  0.0965 -0.0687
   90MOL   C28137839   5.114   5.806   1.022  0.0161 -0.7646 -0.4323
   90MOL   C28237840   5.143   5.788   1.174 -0.0625  0.9844  0.6869
   90MOL   C28337841   5.029   5.823   1.259 -0.2987  0.2616 -0.7816
   90MOL   H28437842   5.100   5.839   0.335  0.1763 -0.1132  0.8885
   90MOL   H28537843   5.245   5.773   0.396  0.3961  0.9771  0.6786
   90MOL   H28637844   5.011   5.845   0.575  0.1900 -2.5292 -0.7604
   90MOL   H28737845   5.279   5.927   0.951 -1.7918  0.9627  1.1610
   90MOL   H28837846   5.292   5.757   0.895 -0.2376 -0.2288 -0.7931
   90MOL   H28937847   5.045   5.889   1.009  2.6764  1.1590 -2.9127
   90MOL   H29037848   5.065   5.713   0.995 -0.7488 -0.5354  0.1586
   90MOL   H29137849   5.222   5.852   1.214 -0.8437  0.7585  2.6332
   90MOL   H29237850   5.180   5.687   1.186 -1.1870  0.7680  2.5490
   90MOL   H29337851   4.954   5.744   1.256  0.8155 -0.8145 -0.6204
   90MOL   H29437852   4.979   5.915   1.230 -1.3256 -0.5232 -1.5236
   90MOL   H29537853   5.065   5.833   1.361 -1.2529  0.9235 -0.4992
   90MOL   C29637854   5.138   6.020   0.531 -0.5124  0.8227 -1.3161
   90MOL   C29737855   5.035   6.099   0.435 -0.1361  0.9374  0.3431
   90MOL   C29837856   4.892   6.074   0.477  0.3504 -0.4474 -0.8179
   90MOL   O29937857   4.806   6.036   0.400  0.2710  0.0793  0.3272
   90MOL   O30037858   4.873   6.110   0.606  0.1383  0.1196 -0.2363
   90MOL   C30137859   4.749   6.074   0.678  0.0470 -0.3130 -0.0220
   90MOL   C30237860   4.768   5.934   0.748 -0.2272 -0.0316 -0.3222
   90MOL   C30337861   4.660   5.896   0.849  0.2045 -0.1243 -0.1296
   90MOL   C30437862   4.684   5.754   0.914 -0.2496 -0.2489  0.5419
   90MOL   H30537863   5.237   6.029   0.487 -0.4976  2.0793 -1.0398
   90MOL   H30637864   5.140   6.077   0.624  2.9971 -1.7447  0.3197
   90MOL   H30737865   5.040   6.053   0.337  0.4260  1.5342  0.0976
   90MOL   H30837866   4.661   6.069   0.613  2.3073 -4.5781 -2.9764
   90MOL   H30937867   4.741   6.143   0.762  1.5120  1.8514 -1.6045
   90MOL   H31037868   4.770   5.857   0.671  3.1363 -0.3472 -0.0195
   90MOL   H31137869   4.866   5.933   0.796 -0.8883 -0.9933  1.0535
   90MOL   H31237870   4.567   5.899   0.792  1.5479  0.5857 -2.3560
   90MOL   H31337871   4.638   5.971   0.925 -0.8546 -0.2955 -0.2593
   90MOL   H31437872   4.712   5.680   0.839 -2.7836 -1.2959  0.5821
   90MOL   H31537873   4.602   5.712   0.972 -0.4841 -1.0824 -0.3970
   90MOL   H31637874   4.765   5.764   0.987  0.4569 -0.8488 -0.1552
   90MOL   C31737875   5.065   6.249   0.422  0.3897 -0.2053 -0.8180
   90MOL   C31837876   5.003   6.313   0.288 -0.3624 -0.0232  0.4704
   90MOL   C31937877   4.857   6.355   0.299  0.0386 -0.5252 -0.0847
   90MOL   O32037878   4.796   6.381   0.198  0.5432  0.2164  0.3887
   90MOL   O32137879   4.813   6.367   0.421 -0.0556  0.5249 -0.1643
   90MOL   C32237880   4.690   6.427   0.441 -0.0958  0.3614  0.2541
   90MOL   C32337881   4.689   6.581   0.411  0.2546  0.5146 -0.2884
   90MOL   C32437882   4.543   6.631   0.422  0.1081 -0.1336  0.1207
   90MOL   C32537883   4.536   6.779   0.386 -0.3066 -0.6735 -0.0947
   90MOL   H32637884   5.174   6.254   0.411  0.4127 -2.6187 -2.1478
   90MOL   H32737885   5.034   6.305   0.510  0.0337 -2.7182  0.7234
   90MOL   H32837886   5.010   6.235   0.213 -0.4908  0.3348  0.0867
   90MOL   H32937887   4.647   6.417   0.540 -0.3303  2.1446  0.3530
   90MOL   H33037888   4.612   6.375   0.386 -2.0677  2.2049  1.2216
   90MOL   H33137889   4.757   6.622   0.486  1.0255 -1.6316  0.2144
   90MOL   H33237890   4.724   6.598   0.310 -0.7447  0.9521 -0.5595
   90MOL   H33337891   4.505   6.613   0.522  0.1142 -0.7349  0.0171
   90MOL   H33437892   4.482   6.566   0.360  1.3909  0.3631 -1.7080
   90MOL   H33537893   4.439   6.819   0.416  0.7094  2.8596 -1.2160
   90MOL   H33637894   4.545   6.789   0.278 -2.1025  0.4111 -0.1646
   90MOL   H33737895   4.616   6.843   0.424  1.2922 -1.0060 -2.7632
   90MOL   C33837896   5.091   6.431   0.234  0.3443  0.9857  0.6597
   90MOL   C33937897   5.063   6.499   0.099  0.6041  0.1384 -0.0067
   90MOL   C34037898   5.153   6.624   0.086  0.7646  0.0762 -0.2581
   90MOL   O34137899   5.099   6.727   0.051 -0.5386 -0.1262  0.1799
   90MOL   O34237900   5.285   6.603   0.122  0.0261  0.2194  0.3183
   90MOL   C34337901   5.362   6.719   0.156  0.0976  0.5185 -0.4574
   90MOL   C34437902   5.513   6.683   0.130  0.3882 -0.9271  0.5298
   90MOL   C34537903   5.521   6.631   7.834 -0.4374 -0.1262  0.7098
   90MOL   C34637904   5.667   6.609   7.790 -0.0679  0.4798 -0.5807
   90MOL   H34737905   5.191   6.387   0.230 -0.2142 -0.1199 -1.8410
   90MOL   H34837906   5.104   6.502   0.316 -3.4173  2.4234  0.0901
   90MOL   H34937907   4.962   6.541   0.093 -0.9016 -3.2363  0.1838
   90MOL   H35037908   5.342   6.741   0.261  3.1460  0.7751  0.1363
   90MOL   H35137909   5.321   6.801   0.097  0.5773  0.9942 -0.1406
   90MOL   H35237910   5.569   6.776   0.142 -1.0861  0.4951 -2.8885
   90MOL   H35337911   5.535   6.602   0.200 -2.6594 -2.2225  0.0503
   90MOL   H35437912   5.462   6.696   7.770  0.7155  0.3574  0.1232
   90MOL   H35537913   5.472   6.534   7.832  0.2330 -0.5140  1.9305
   90MOL   H35637914   5.677   6.559   7.694 -2.7204 -2.5835  0.6630
   90MOL   H35737915   5.726   6.554   0.010 -1.0912  0.5033  0.2713
   90MOL   H35837916   5.709   6.709   7.774 -2.3590  1.5239 -0.1879
   90MOL   C35937917   5.075   6.404   7.834 -0.0786  0.5596  0.2672
   90MOL   C36037918   4.944   6.373   7.754 -0.1858 -0.3250 -0.5126
   90MOL   C36137919   4.935   6.440   7.614 -0.8337  0.0688  0.0226
   90MOL   O36237920   4.841   6.506   7.580 -0.0084 -0.7226  0.5236
   90MOL   O36337921   5.044   6.413   7.531  0.2043  0.2334  0.1344
   90MOL   C36437922   5.053   6.483   7.407  0.2016 -0.4124  0.2794
   90MOL   C36537923   5.140   6.605   7.418 -0.4471  0.6018 -0.3983
   90MOL   C36637924   5.058   6.730   7.459 -0.6077 -0.2229 -0.3738
   90MOL   C36737925   5.147   6.854   7.471 -0.5256  0.3934  0.1707
   90MOL   H36837926   5.128   6.312   0.004 -0.5743 -0.1452 -1.3641
   90MOL   H36937927   5.144   6.443   7.759 -0.0676  0.6013  0.2988
   90MOL   H37037928   4.860   6.405   7.815 -0.4915 -0.4114 -0.8880
   90MOL   H37137929   4.953   6.521   7.383  0.9490  2.1281  1.0528
   90MOL   H37237930   5.088   6.416   7.329  0.1660 -0.8473  0.6331
   90MOL   H37337931   5.220   6.592   7.490 -1.4029 -0.6059  0.4528
   90MOL   H37437932   5.181   6.638   7.322 -0.9679 -2.0542 -1.5810
   90MOL   H37537933   5.009   6.717   7.555  2.2459  1.1726  1.3202
   90MOL   H37637934   4.982   6.748   7.383 -0.5014 -3.1149 -1.2484
   90MOL   H37737935   5.228   6.821   7.536 -0.9610 -1.1143 -0.0299
   90MOL   H37837936   5.104   6.942   7.518 -0.6706 -0.0013  0.7923
   90MOL   H37937937   5.193   6.874   7.375 -1.7653 -0.7110 -0.6721
   90MOL   C38037938   4.933   6.217   7.739 -0.7124 -0.4259  0.6525
   90MOL   C38137939   4.790   6.167   7.703 -0.2918  0.5847  0.3039
   90MOL   C38237940   4.801   6.027   7.630 -0.0082  0.5087  0.3445
   90MOL   O38337941   4.900   5.952   7.653  0.4194  0.3033 -0.2493
   90MOL   O38437942   4.703   6.002   7.544  0.0732 -0.1281  0.0878
   90MOL   C38537943   4.729   5.898   7.453  0.4998 -0.0664  0.3317
   90MOL   C38637944   4.599   5.843   7.406  0.3716  0.9653  0.4927
   90MOL   C38737945   4.522   5.777   7.526 -0.0115  0.3568 -0.4976
   90MOL   C38837946   4.393   5.706   7.484 -0.1861 -0.7110  0.5698
   90MOL   H38937947   4.974   6.169   7.828  0.4799  0.4563  0.5923
   90MOL   H39037948   5.001   6.188   7.660  1.2123 -1.3780  2.6037
   90MOL   H39137949   4.745   6.240   7.636 -0.3846  1.0543  0.8720
   90MOL   H39237950   4.793   5.822   7.496  1.5057 -0.0460 -1.0844
   90MOL   H39337951   4.783   5.948   7.372  3.6881 -0.7394  1.9852
   90MOL   H39437952   4.535   5.916   7.357 -0.3384  0.0718  0.0786
   90MOL   H39537953   4.622   5.761   7.339  3.5253  1.7925  0.4572
   90MOL   H39637954   4.494   5.852   7.600 -0.6394 -0.1453 -0.2142
   90MOL   H39737955   4.586   5.710   7.584  2.0882  2.5602 -0.2016
   90MOL   H39837956   4.362   5.645   7.569 -0.0611  2.0138  2.6360
   90MOL   H39937957   4.412   5.640   7.400  1.0888  0.8865 -0.4272
   90MOL   H40037958   4.322   5.781   7.450  1.7012  0.0969 -1.7561
   90MOL   C40137959   4.695   6.158   7.821  0.3088  0.4575 -0.1739
   90MOL   C40237960   4.733   6.047   0.076  0.1808 -0.2074 -0.3803
   90MOL   C40337961   4.655   5.921   0.069  0.6317 -0.5560  0.1830
   90MOL   O40437962   4.534   5.913   0.098  0.7780 -0.0472 -0.5313
   90MOL   O40537963   4.736   5.816   0.029 -0.1821 -0.1964  0.0801
   90MOL   C40637964   4.683   5.685   7.846 -0.7993  0.2855 -0.4872
   90MOL   C40737965   4.785   5.601   7.775 -0.0730 -0.0952  0.0352
   90MOL   C40837966   4.916   5.563   7.848 -0.0789  0.3455 -0.0425
   90MOL   C40937967   5.023   5.499   7.764  0.3288  0.1118  0.4232
   90MOL   H41037968   4.601   6.116   7.784  1.2192 -2.0118  0.2226
   90MOL   H41137969   4.667   6.258   7.852 -3.3588 -0.4802 -0.2029
   90MOL   H41237970   4.721   6.078   0.180 -2.0082 -1.0051 -0.3758
   90MOL   H41337971   4.601   5.702   7.776 -0.8257  3.6525  0.2504
   90MOL   H41437972   4.632   5.631   0.073  1.4173  0.5279  1.1339
   90MOL   H41537973   4.735   5.507   7.751  0.7316 -1.0186  1.7991
   90MOL   H41637974   4.827   5.640   7.682  0.0287  1.5007  0.7320
   90MOL   H41737975   4.899   5.520   0.094 -0.7881 -0.9330 -0.7152
   90MOL   H41837976   4.955   5.659   0.029 -1.7634  1.4884 -1.2602
   90MOL   H41937977   4.983   5.405   7.728  1.0709  0.2458 -0.7783
   90MOL   H42037978   5.107   5.480   7.831 -0.2673  1.2420  1.5241
   90MOL   H42137979   5.058   5.550   7.674 -0.0645 -0.9714 -0.3460
   90MOL   H42237980   4.839   6.022   0.069  0.2453  0.3647 -1.3999
   91MOL     C137981   0.255   4.129   1.360  0.7313  0.0941 -0.1668
   91MOL     C237982   0.330   4.249   1.302 -0.2415  0.3345  0.0955
   91MOL     C337983   0.484   4.222   1.308 -0.8145  0.0386 -0.6740
   91MOL     O437984   0.529   4.126   1.370  0.1358  0.3639  0.2755
   91MOL     O537985   0.565   4.318   1.256 -0.5909 -0.0682 -0.9920
   91MOL     C637986   0.707   4.307   1.263  0.5688  0.0496 -0.7988
   91MOL     C737987   0.775   4.435   1.213 -0.2804  0.0233 -0.0628
   91MOL     C837988   0.729   4.566   1.279  0.2294  0.3293  0.2715
   91MOL     C937989   0.810   4.693   1.235  0.5764 -0.6243 -0.0422
   91MOL    H1037990   0.192   4.172   1.439  1.1659 -1.3731  1.0016
   91MOL    H1137991   0.194   4.075   1.288 -0.1490  0.5681  0.2022
   91MOL    H1237992   0.306   4.343   1.353 -1.3608 -0.2587  0.6754
   91MOL    H1337993   0.740   4.211   1.223  0.0011  0.7578 -2.9877
   91MOL    H1437994   0.747   4.299   1.364  1.5546 -0.5086 -1.2301
   91MOL    H1537995   0.883   4.436   1.224 -0.2755 -0.1718 -0.0957
   91MOL    H1637996   0.755   4.424   1.107  3.4066  0.3824 -0.8355
   91MOL    H1737997   0.722   4.553   1.386  1.4269 -0.2993  0.2903
   91MOL    H1837998   0.629   4.588   1.242  0.0724  0.7072  0.9219
   91MOL    H1937999   0.912   4.696   1.274  0.8681 -2.3554 -0.6246
   91MOL    H2038000   0.773   4.793   1.257 -0.3022 -1.0656  0.5067
   91MOL    H2138001   0.818   4.703   1.127  3.5007 -0.8486  0.1037
   91MOL    H2238002   0.317   4.060   1.417  0.6054  0.2922  0.2152
   91MOL    C2338003   0.300   4.270   1.158 -0.8214  0.2761 -0.0935
   91MOL    C2438004   0.154   4.304   1.120 -0.0352  0.9241  0.1729
   91MOL    C2538005   0.087   4.402   1.213 -0.0575 -0.6901 -0.0623
   91MOL    O2638006   7.844   4.370   1.282  0.0071  0.0998  0.0480
   91MOL    O2738007   0.157   4.522   1.218  0.3971 -0.2222 -0.0560
   91MOL    C2838008   0.120   4.636   1.302 -0.3053  0.9481  0.1679
   91MOL    C2938009   0.032   4.736   1.226  0.3175 -0.4160 -0.1919
   91MOL    C3038010   7.833   4.840   1.321 -0.5659  0.0092 -0.9414
   91MOL    C3138011   7.743   4.942   1.246  0.6000 -0.4066 -0.0131
   91MOL    H3238012   0.320   4.176   1.106 -0.6515  0.6009 -0.6298
   91MOL    H3338013   0.368   4.333   1.099  0.7276 -0.2617  1.0726
   91MOL    H3438014   0.102   4.209   1.129  1.2204  0.0926 -1.0304
   91MOL    H3538015   0.218   4.682   1.317 -0.7460  2.3049 -0.9302
   91MOL    H3638016   0.076   4.613   1.399 -2.5488 -0.6847 -1.1992
   91MOL    H3738017   0.097   4.779   1.150  0.8378 -2.0619 -0.7123
   91MOL    H3838018   7.801   4.685   1.179 -2.1232  2.0707  1.3357
   91MOL    H3938019   0.056   4.880   1.389  0.8124 -2.4440 -0.9796
   91MOL    H4038020   7.762   4.796   1.391 -1.5297  0.6544 -1.5070
   91MOL    H4138021   7.813   4.997   1.183 -1.4001  0.5670 -1.4220
   91MOL    H4238022   7.695   5.008   1.318  3.1582  1.0997  0.3814
   91MOL    H4338023   7.667   4.893   1.185  1.1236 -2.5171  0.9875
   91MOL    C4438024   0.144   4.356   0.977  0.3318  0.7006  0.1035
   91MOL    C4538025   0.007   4.334   0.914 -0.7611 -0.0908  0.0824
   91MOL    C4638026   7.806   4.448   0.830  0.2147 -0.1087  0.0352
   91MOL    O4738027   7.847   4.476   0.716  0.6264 -0.0289 -0.0293
   91MOL    O4838028   7.726   4.531   0.906  0.3048  0.4609  0.0918
   91MOL    C4938029   7.673   4.657   0.863  0.2759  0.0516 -0.1569
   91MOL    C5038030   7.767   4.774   0.883  0.3620  0.6589  0.8617
   91MOL    C5138031   0.057   4.774   0.825  0.0039 -0.1454 -0.2675
   91MOL    C5238032   0.119   4.907   0.829  0.3905 -0.0628 -0.7918
   91MOL    H5338033   0.206   4.292   0.914 -0.2236 -0.0686  0.3211
   91MOL    H5438034   0.179   4.459   0.973  0.4032  0.6388 -1.0234
   91MOL    H5538035   7.791   4.341   0.998  0.9084  0.5475  1.4364
   91MOL    H5638036   7.594   4.678   0.935  2.2712 -2.6882  3.0095
   91MOL    H5738037   7.612   4.652   0.773  0.4690 -0.7414 -0.2482
   91MOL    H5838038   7.710   4.856   0.838 -0.2732 -1.4547 -2.4130
   91MOL    H5938039   7.782   4.797   0.988 -0.6259 -0.6263  1.3069
   91MOL    H6038040   0.062   4.736   0.722  2.3534 -3.5530  1.0027
   91MOL    H6138041   0.116   4.693   0.868  0.9160  0.8151  0.3077
   91MOL    H6238042   0.071   4.968   0.753 -0.8744 -0.5706 -0.4109
   91MOL    H6338043   0.224   4.906   0.801  0.8209 -0.0164  0.8040
   91MOL    H6438044   0.104   4.952   0.927 -0.6393 -0.1199 -0.9208
   91MOL    C6538045   7.844   4.193   0.842  0.0117  0.0213 -0.2194
   91MOL    C6638046   7.797   4.085   0.931 -0.0201  0.2985  0.7370
   91MOL    C6738047   7.662   4.110   0.988  0.8999 -0.7177 -0.0148
   91MOL    O6838048   7.647   4.115   1.111 -0.2162  0.4697 -0.2102
   91MOL    O6938049   7.562   4.124   0.893 -0.3637  0.1660 -0.2839
   91MOL    C7038050   7.431   4.158   0.919 -0.6250  0.3301 -0.6145
   91MOL    C7138051   7.408   4.313   0.936  0.6541 -0.4408  0.1783
   91MOL    C7238052   7.258   4.330   0.928 -0.3626  0.5593  0.4727
   91MOL    C7338053   7.218   4.475   0.946  0.3146 -0.4781 -0.2937
   91MOL    H7438054   0.089   4.175   0.799  1.4244 -2.0059  3.5921
   91MOL    H7538055   7.769   4.207   0.764  0.2470  0.5415 -0.3599
   91MOL    H7638056   0.009   4.075   1.018  0.6694  1.3277  0.3449
   91MOL    H7738057   7.405   4.097   1.005  2.4746 -0.6758 -0.3597
   91MOL    H7838058   7.368   4.123   0.837 -1.1525 -1.2187  0.4376
   91MOL    H7938059   7.434   4.349   1.035  0.2327 -0.6640  0.3721
   91MOL    H8038060   7.456   4.372   0.858  1.4930  0.0451  1.0579
   91MOL    H8138061   7.206   4.275   1.006 -0.4092  0.1280  0.1383
   91MOL    H8238062   7.234   4.300   0.826 -1.8863  2.1376  0.3375
   91MOL    H8338063   7.130   4.503   0.887 -1.1460 -0.3046  1.8966
   91MOL    H8438064   7.285   4.547   0.899 -1.3811  1.1991 -0.2271
   91MOL    H8538065   7.198   4.504   1.049  1.3006 -1.6032  0.2199
   91MOL    C8638066   7.809   3.935   0.875  0.5831 -0.6178 -0.3917
   91MOL    C8738067   0.100   3.876   0.865  0.1427 -0.1759  0.5491
   91MOL    C8838068   0.131   3.789   0.990  0.1056  0.1359 -0.1068
   91MOL    O8938069   0.193   3.831   1.086  0.3747 -0.5047  0.0793
   91MOL    O9038070   0.091   3.663   0.972  0.0412  0.6375  0.7247
   91MOL    C9138071   0.090   3.574   1.092  0.5198  0.0200  0.1615
   91MOL    C9238072   0.225   3.492   1.112  0.6708 -1.0929  0.0186
   91MOL    C9338073   0.228   3.363   1.027 -0.3612  0.6793  0.8904
   91MOL    C9438074   0.259   3.406   0.885  0.3178  0.2421 -0.2750
   91MOL    H9538075   7.757   3.936   0.779 -1.0595  1.0604  0.4793
   91MOL    H9638076   7.745   3.871   0.935 -0.9431 -0.3043 -1.6411
   91MOL    H9738077   0.165   3.964   0.869 -0.4933  0.3435 -0.5239
   91MOL    H9838078   0.008   3.503   1.091  2.5574 -2.4005 -0.6895
   91MOL    H9938079   0.077   3.638   1.179  1.2753 -1.8611  1.6869
   91MOL   H10038080   0.319   3.542   1.088  0.4363 -0.3492  0.6427
   91MOL   H10138081   0.236   3.455   1.214 -0.7591  0.3436  0.7120
   91MOL   H10238082   0.138   3.303   1.031 -0.1416  0.1200 -1.6387
   91MOL   H10338083   0.314   3.310   1.068  0.5330  1.0900 -0.4013
   91MOL   H10438084   0.277   3.310   0.836  1.9486  0.2898  0.1836
   91MOL   H10538085   0.345   3.472   0.876 -0.7048  1.5073 -0.7973
   91MOL   H10638086   0.176   3.453   0.833 -0.6573  0.5524  1.5230
   91MOL   C10738087   0.127   3.802   0.730  0.3689  0.2427  0.0884
   91MOL   C10838088   0.106   3.883   0.594 -1.1576 -0.4015  0.5307
   91MOL   C10938089   0.226   3.971   0.551 -0.0301  0.1721 -0.3304
   91MOL   O11038090   0.324   3.926   0.507  0.0985 -0.0220 -0.0060
   91MOL   O11138091   0.206   4.101   0.570  0.0424  0.4739  0.0071
   91MOL   C11238092   0.303   4.197   0.542  0.0125 -0.0033 -0.3611
   91MOL   C11338093   0.261   4.341   0.563  0.5354  0.5791 -0.4066
   91MOL   C11438094   0.373   4.438   0.544 -0.3263  0.1205  0.2687
   91MOL   C11538095   0.310   4.577   0.558 -0.5645 -0.5808  0.6676
   91MOL   H11638096   0.057   3.719   0.730  0.8928 -0.2034 -0.5457
   91MOL   H11738097   0.232   3.771   0.726 -0.0038 -0.9672 -0.4491
   91MOL   H11838098   0.024   3.954   0.606 -0.9287 -0.2644  1.2919
   91MOL   H11938099   0.347   4.184   0.443 -1.6113 -0.0296 -1.1009
   91MOL   H12038100   0.379   4.190   0.619 -0.0697  0.7561 -0.2079
   91MOL   H12138101   0.181   4.357   0.491 -0.3428 -0.8925  0.2054
   91MOL   H12238102   0.222   4.349   0.665  1.1712 -1.7109  0.0444
   91MOL   H12338103   0.411   4.418   0.444 -1.2147 -2.7725  0.4739
   91MOL   H12438104   0.453   4.415   0.615 -0.4332  1.3723  0.8114
   91MOL   H12538105   0.277   4.591   0.661  1.1468 -0.2138  1.1940
   91MOL   H12638106   0.233   4.595   0.484 -2.0390 -2.5579  1.6799
   91MOL   H12738107   0.393   4.647   0.544 -1.8649  0.9786  0.6407
   91MOL   C12838108   0.063   3.794   0.485 -0.2651 -0.1558  0.1108
   91MOL   C12938109   7.773   3.738   0.499 -0.5402 -0.1763 -0.3849
   91MOL   C13038110   7.661   3.841   0.457 -0.0536 -0.2668 -0.6043
   91MOL   O13138111   7.580   3.879   0.541  0.5794  0.6413 -0.2437
   91MOL   O13238112   7.669   3.887   0.331  0.3673 -0.1632 -0.0559
   91MOL   C13338113   7.570   3.978   0.274 -0.1120  0.3667  0.7771
   91MOL   C13438114   7.618   4.112   0.224 -0.2067 -0.8903  0.8271
   91MOL   C13538115   7.642   4.214   0.334  0.0836 -0.4386  0.3434
   91MOL   C13638116   7.762   4.195   0.412 -0.8600  0.1662 -0.2285
   91MOL   H13738117   0.140   3.717   0.483 -1.5404 -1.4400 -0.4168
   91MOL   H13838118   0.066   3.857   0.396  1.9877  1.5498  1.3402
   91MOL   H13938119   7.749   3.726   0.604  0.5402  1.1559  0.0211
   91MOL   H14038120   7.490   3.985   0.348 -2.1404  0.5447 -1.3861
   91MOL   H14138121   7.527   3.930   0.186  0.5033 -0.6804  1.0361
   91MOL   H14238122   7.697   4.107   0.150  0.2818  0.3866  1.2432
   91MOL   H14338123   7.535   4.147   0.163 -0.4483 -0.0607  1.6288
   91MOL   H14438124   7.552   4.221   0.395  0.9344 -0.4456  1.5992
   91MOL   H14538125   7.662   4.307   0.281  0.7021 -0.0935  1.1839
   91MOL   H14638126   7.755   4.099   0.464  2.7677  1.0577  2.1072
   91MOL   H14738127   7.776   4.286   0.470 -0.9577  0.0359  0.0065
   91MOL   H14838128   0.004   4.190   0.359 -0.5501 -0.7582  0.3986
   91MOL   C14938129   7.757   3.603   0.423 -0.3783 -0.1822  0.2691
   91MOL   C15038130   7.793   3.483   0.516 -0.3449  0.0891  0.5771
   91MOL   C15138131   7.705   3.486   0.648  0.6693 -1.1307 -0.8396
   91MOL   O15238132   7.753   3.458   0.766 -0.6631 -0.6934 -0.2279
   91MOL   O15338133   7.583   3.508   0.618 -0.5765  0.2700  0.0561
   91MOL   C15438134   7.484   3.509   0.714  0.5966 -0.4295  0.6778
   91MOL   C15538135   7.467   3.647   0.783 -0.5160 -0.2893 -0.5895
   91MOL   C15638136   7.349   3.651   0.885  0.1887  0.1587 -0.2951
   91MOL   C15738137   7.318   3.787   0.936 -0.2883 -0.4918 -0.1167
   91MOL   H15838138   7.831   3.594   0.343 -0.6931  0.9736 -0.1612
   91MOL   H15938139   7.652   3.602   0.395 -0.5425  0.4305  0.8398
   91MOL   H16038140   0.047   3.479   0.534  0.1159 -0.1906 -1.9156
   91MOL   H16138141   7.506   3.437   0.792  1.4454  0.6428  1.4447
   91MOL   H16238142   7.388   3.484   0.668 -0.2545  1.9734  1.1013
   91MOL   H16338143   7.553   3.685   0.839 -0.2117  1.8388 -2.4421
   91MOL   H16438144   7.445   3.713   0.699 -0.4617 -0.8325 -1.0289
   91MOL   H16538145   7.361   3.584   0.971  0.8655 -0.9068 -1.2077
   91MOL   H16638146   7.251   3.624   0.845  1.9848 -3.3592 -2.5506
   91MOL   H16738147   7.233   3.829   0.882  1.3022 -0.5050 -2.6727
   91MOL   H16838148   7.389   3.866   0.911  0.2323 -0.8978  0.0852
   91MOL   H16938149   7.287   3.787   1.041  1.1407 -4.0765  0.3602
   91MOL   C17038150   7.777   3.350   0.427 -0.5924  0.6773  0.0387
   91MOL   C17138151   7.834   3.220   0.484  0.2041 -0.0689 -0.4667
   91MOL   C17238152   0.116   3.230   0.557 -0.0001  0.2728  0.0698
   91MOL   O17338153   0.141   3.183   0.670  0.0041 -0.0561  0.1633
   91MOL   O17438154   0.212   3.299   0.484 -0.4239  0.6153 -0.4025
   91MOL   C17538155   0.342   3.296   0.531 -0.4392 -0.1151 -0.3776
   91MOL   C17638156   0.432   3.369   0.430  0.0399  0.0286  0.5005
   91MOL   C17738157   0.415   3.525   0.434 -0.3450 -0.0607  0.0529
   91MOL   C17838158   0.520   3.604   0.355  0.0424  0.2033  0.5951
   91MOL   H17938159   7.838   3.358   0.337  1.5281 -1.9767  1.1747
   91MOL   H18038160   7.674   3.334   0.396  0.1793 -2.1848 -1.1979
   91MOL   H18138161   7.846   3.161   0.393 -2.1901 -1.0085 -0.2032
   91MOL   H18238162   0.378   3.194   0.538  1.3931  0.5161 -0.3713
   91MOL   H18338163   0.364   3.341   0.627 -0.4399 -1.9496  0.4894
   91MOL   H18438164   0.539   3.347   0.440  0.4651 -0.3209 -3.7875
   91MOL   H18538165   0.408   3.341   0.327  2.0695  0.8122 -0.2243
   91MOL   H18638166   0.415   3.556   0.539  0.2679  1.5685 -0.4271
   91MOL   H18738167   0.315   3.556   0.405 -0.0573 -0.6000 -1.5554
   91MOL   H18838168   0.624   3.582   0.380  0.4904  1.0124 -0.4827
   91MOL   H18938169   0.502   3.710   0.371  1.0230  0.5630 -0.5983
   91MOL   H19038170   0.514   3.596   0.247  1.6464 -0.5542  0.5381
   91MOL   C19138171   7.725   3.143   0.566  0.4428 -0.0405  0.2883
   91MOL   C19238172   7.702   3.000   0.516 -0.4178  0.7930 -0.1687
   91MOL   C19338173   7.620   3.003   0.385  0.1317  0.0333 -0.0072
   91MOL   O19438174   7.599   3.113   0.323  0.3445  0.2870 -0.6874
   91MOL   O19538175   7.586   2.887   0.344  0.2138 -0.5457 -0.2743
   91MOL   C19638176   7.507   2.880   0.229 -0.2187 -0.2012  0.5285
   91MOL   C19738177   7.361   2.926   0.244 -0.1722  0.1047  0.1206
   91MOL   C19838178   7.281   2.874   0.125 -0.5272  0.3051  0.7458
   91MOL   C19938179   7.304   2.952   7.845  0.3515 -0.1887 -0.0333
   91MOL   H20038180   7.631   3.197   0.563  1.3342  1.4856 -3.1571
   91MOL   H20138181   7.754   3.132   0.670 -1.2160  0.2740  0.7895
   91MOL   H20238182   7.637   2.956   0.591 -0.9176  1.5417 -0.1565
   91MOL   H20338183   7.502   2.773   0.210 -2.3986 -0.5202  2.6413
   91MOL   H20438184   7.555   2.916   0.138 -2.3185 -1.0786 -0.9776
   91MOL   H20538185   7.310   2.880   0.328 -0.7500 -1.7999 -1.2537
   91MOL   H20638186   7.367   3.035   0.246  0.3128  0.0693  1.0891
   91MOL   H20738187   7.178   2.887   0.158 -0.8630 -0.4670  0.0294
   91MOL   H20838188   7.299   2.768   0.109 -0.5662  0.6806 -2.1835
   91MOL   H20938189   7.291   3.059   0.008  0.7868  0.1056 -1.5630
   91MOL   H21038190   7.237   2.922   7.765 -1.0453  0.4236  0.8835
   91MOL   H21138191   7.408   2.927   7.824 -0.1625 -1.3247 -1.2659
   91MOL   C21238192   7.824   2.918   0.506 -0.5505 -0.0405  0.3098
   91MOL   C21338193   0.035   2.863   0.634  0.3940 -0.6016 -0.8235
   91MOL   C21438194   7.801   2.768   0.720 -0.1722  0.2637 -0.5035
   91MOL   O21538195   7.811   2.644   0.703 -0.4858  0.0820  0.3526
   91MOL   O21638196   7.714   2.833   0.799  0.1932  0.6144 -0.4396
   91MOL   C21738197   7.627   2.762   0.881  0.5792  0.2193 -0.9693
   91MOL   C21838198   7.633   2.838   1.019 -0.1334  0.1611 -0.1071
   91MOL   C21938199   7.756   2.817   1.107  0.0958 -0.1868 -0.3944
   91MOL   C22038200   7.772   2.930   1.215 -0.6804  0.4396  0.1656
   91MOL   H22138201   0.047   2.977   0.456  0.3717 -1.1525  0.3772
   91MOL   H22238202   7.809   2.832   0.440 -1.7346 -0.5728  1.2623
   91MOL   H22338203   0.055   2.949   0.699  1.7652 -0.6668 -1.1483
   91MOL   H22438204   7.658   2.658   0.891 -1.3227 -0.2547  0.0907
   91MOL   H22538205   7.526   2.777   0.845  0.1679 -0.7948 -0.2761
   91MOL   H22638206   7.621   2.945   1.003  1.5151  0.4655  0.5940
   91MOL   H22738207   7.553   2.804   1.084  0.2857 -0.0945  0.2821
   91MOL   H22838208   7.835   2.831   1.034 -1.0122  0.7374 -1.4431
   91MOL   H22938209   7.752   2.717   1.151 -0.7551 -0.3631 -0.8408
   91MOL   H23038210   7.789   3.026   1.167 -2.4365  0.2968 -0.7766
   91MOL   H23138211   0.009   2.905   1.272  0.4087  2.7288 -0.4823
   91MOL   H23238212   7.690   2.938   1.285  0.0780 -1.5218  1.3304
   91MOL   C23338213   0.171   2.792   0.592 -0.1316 -0.4244  0.1948
   91MOL   C23438214   0.264   2.749   0.706 -0.3289  0.2095  0.2261
   91MOL   C23538215   0.341   2.618   0.679  0.6573 -0.0572 -0.0051
   91MOL   O23638216   0.347   2.561   0.569  0.0002 -0.1205  0.2268
   91MOL   O23738217   0.379   2.566   0.793 -0.1748 -0.3816  0.0587
   91MOL   C23838218   0.466   2.455   0.794  0.2265 -0.1405  0.2868
   91MOL   C23938219   0.513   2.423   0.935 -0.2479  0.1239  0.7590
   91MOL   C24038220   0.620   2.520   0.986 -0.5669 -0.3556  0.6894
   91MOL   C24138221   0.709   2.447   1.085 -0.6385  0.5015  0.3759
   91MOL   H24238222   0.226   2.865   0.533  0.3059  0.7056  1.9549
   91MOL   H24338223   0.151   2.718   0.514  2.2497  0.4665 -1.3107
   91MOL   H24438224   0.203   2.738   0.795 -1.8250 -0.4905 -0.8577
   91MOL   H24538225   0.547   2.472   0.724 -1.1539  1.7919 -0.8944
   91MOL   H24638226   0.405   2.377   0.749  1.0706 -1.9152  2.1566
   91MOL   H24738227   0.425   2.423   1.000 -1.3218  0.4097 -0.6691
   91MOL   H24838228   0.544   2.319   0.930 -2.9879 -0.6550 -1.2155
   91MOL   H24938229   0.568   2.613   1.012 -0.8527 -0.8957  2.0997
   91MOL   H25038230   0.679   2.553   0.900 -1.1649  0.6717  0.6574
   91MOL   H25138231   0.647   2.410   1.167 -0.3425  0.7505  0.7127
   91MOL   H25238232   0.791   2.511   1.118  0.6496 -0.7686 -0.2739
   91MOL   H25338233   0.753   2.360   1.036 -0.5911 -0.2254  1.6831
   91MOL   C25438234   0.358   2.865   0.739 -0.0701  0.5340 -0.3702
   91MOL   C25538235   0.426   2.862   0.878  0.1445  0.4380 -0.1722
   91MOL   C25638236   0.568   2.924   0.871 -0.3464  0.1871 -0.3250
   91MOL   O25738237   0.667   2.865   0.915  0.2009 -0.2977 -0.6872
   91MOL   O25838238   0.567   3.038   0.808 -0.0637 -0.2758 -0.5068
   91MOL   C25938239   0.675   3.133   0.808  0.2775  1.0894 -0.1411
   91MOL   C26038240   0.625   3.273   0.802  0.5136 -0.2272 -0.5105
   91MOL   C26138241   0.725   3.378   0.841 -0.3076 -0.4828  0.1771
   91MOL   C26238242   0.676   3.519   0.814 -0.5620  1.0213  0.0668
   91MOL   H26338243   0.293   2.952   0.733 -0.4188  0.2814 -0.3191
   91MOL   H26438244   0.425   2.860   0.653 -1.2901 -1.8465 -1.2336
   91MOL   H26538245   0.444   2.760   0.910 -1.5722 -0.0370 -0.7000
   91MOL   H26638246   0.737   3.104   0.723 -1.6503 -0.1894 -1.1798
   91MOL   H26738247   0.719   3.121   0.906 -1.8710 -0.8188  0.6430
   91MOL   H26838248   0.607   3.290   0.696  1.5630  1.1867 -0.4842
   91MOL   H26938249   0.524   3.291   0.840  0.6631  1.2667 -0.8007
   91MOL   H27038250   0.821   3.351   0.797 -0.7744 -3.3294  0.8162
   91MOL   H27138251   0.742   3.373   0.949  1.4386 -0.0465 -0.0691
   91MOL   H27238252   0.580   3.542   0.860 -1.5786 -0.7122 -1.1082
   91MOL   H27338253   0.675   3.549   0.709  0.2767 -4.1124 -1.5728
   91MOL   H27438254   0.757   3.582   0.852 -1.0149  2.1199 -0.7527
   91MOL   C27538255   0.343   2.930   0.996  0.7179  0.0399 -0.3688
   91MOL   C27638256   0.363   2.870   1.134 -0.5040  0.1012 -0.4893
   91MOL   C27738257   0.325   2.972   1.245  0.8503 -0.6081  0.4347
   91MOL   O27838258   0.265   3.078   1.222  0.2119 -0.0265  0.2709
   91MOL   O27938259   0.372   2.936   1.368  0.3355  0.3783 -0.4293
   91MOL   C28038260   0.334   3.004   1.485  0.0791  0.3127 -0.5896
   91MOL   C28138261   0.440   3.106   1.533  0.1381  0.2233 -0.0837
   91MOL   C28238262   0.570   3.037   1.577 -0.5716  0.2903 -0.1441
   91MOL   C28338263   0.684   3.119   1.627 -1.6231 -0.0264 -0.3219
   91MOL   H28438264   0.239   2.925   0.965 -0.0237  1.1442  1.8450
   91MOL   H28538265   0.368   3.037   0.996 -2.6924  0.8833 -0.2005
   91MOL   H28638266   0.470   2.859   1.154 -0.8130  1.7440  2.3208
   91MOL   H28738267   0.313   2.937   1.569 -0.2366  1.7926  0.5451
   91MOL   H28838268   0.244   3.064   1.474 -0.3605  0.0130  1.0952
   91MOL   H28938269   0.451   3.187   1.461 -2.2528  0.6996  0.0641
   91MOL   H29038270   0.400   3.171   1.611  1.1622 -0.5451  1.1000
   91MOL   H29138271   0.603   2.987   1.486  1.4140  0.3688  0.5258
   91MOL   H29238272   0.552   2.959   1.651  1.8267  0.1078  0.2894
   91MOL   H29338273   0.660   3.169   1.721 -0.6531  0.1791 -0.1768
   91MOL   H29438274   0.703   3.186   1.543  1.7676 -1.7494 -1.0453
   91MOL   H29538275   0.779   3.065   1.635 -0.6011  1.9251  1.2600
   91MOL   C29638276   0.281   2.737   1.147 -0.3461  0.2206 -0.4587
   91MOL   C29738277   0.281   2.661   1.291  0.3003  0.3839 -0.2309
   91MOL   C29838278   0.170   2.552   1.287 -0.4953  0.3386  0.2251
   91MOL   O29938279   0.076   2.550   1.366 -0.1492  0.0535 -0.6232
   91MOL   O30038280   0.172   2.458   1.186  0.2187  0.1862  0.1945
   91MOL   C30138281   0.053   2.372   1.160  0.0255 -0.6972 -0.0825
   91MOL   C30238282   0.070   2.295   1.018  0.1593  0.0682 -1.1490
   91MOL   C30338283   0.085   2.398   0.904 -0.4046  0.2397  0.0969
   91MOL   C30438284   0.087   2.345   0.759  0.2363 -0.5194  0.1702
   91MOL   H30538285   0.312   2.663   1.072  2.9289 -0.9824  1.9738
   91MOL   H30638286   0.177   2.763   1.124 -0.8841 -1.7096 -0.3218
   91MOL   H30738287   0.260   2.727   1.375 -0.6988 -0.9649  0.5973
   91MOL   H30838288   7.821   2.440   1.156  1.4265  1.1231  0.5695
   91MOL   H30938289   0.033   2.300   1.240 -1.3048 -2.8147 -2.2197
   91MOL   H31038290   0.159   2.232   1.007  1.5511  1.6922  0.4167
   91MOL   H31138291   7.832   2.236   1.022 -0.0061  0.4360  2.6790
   91MOL   H31238292   0.171   2.464   0.914  0.0703 -0.7002  2.5184
   91MOL   H31338293   7.843   2.449   0.918 -1.8983 -2.8944  1.8568
   91MOL   H31438294   7.844   2.304   0.729 -0.3356  0.7969  0.1900
   91MOL   H31538295   0.168   2.272   0.749  1.0776 -0.2118  4.0275
   91MOL   H31638296   0.108   2.422   0.684 -1.4754  0.8637  1.0826
   91MOL   C31738297   0.422   2.608   1.321 -0.6726 -0.2925  0.0808
   91MOL   C31838298   0.476   2.620   1.466 -0.0436  0.2155  0.8354
   91MOL   C31938299   0.383   2.586   1.579 -0.2365  0.5709  1.1046
   91MOL   O32038300   0.347   2.670   1.659  0.2965 -0.0495  0.3167
   91MOL   O32138301   0.329   2.463   1.574  0.4386  0.7026  0.2326
   91MOL   C32238302   0.235   2.426   1.677 -0.2249 -0.1809  0.2738
   91MOL   C32338303   0.285   2.351   1.802 -0.1857  0.4862  0.0841
   91MOL   C32438304   0.167   2.325   1.901 -0.2742  0.1202  0.1828
   91MOL   C32538305   0.219   2.258   2.024 -0.1846 -0.6677 -0.4685
   91MOL   H32638306   0.497   2.640   1.249 -1.3011 -1.1323 -0.9582
   91MOL   H32738307   0.422   2.501   1.300  0.1532  0.3367 -3.4146
   91MOL   H32838308   0.501   2.724   1.487 -0.9765  0.9321 -1.4323
   91MOL   H32938309   0.168   2.359   1.623  0.4868 -1.2047  0.6409
   91MOL   H33038310   0.168   2.509   1.699  0.5215  0.8182 -1.1566
   91MOL   H33138311   0.322   2.256   1.765  3.5317  1.6827  0.4941
   91MOL   H33238312   0.367   2.394   1.860 -0.4478 -1.4379  1.9360
   91MOL   H33338313   0.094   2.260   1.852 -0.8199  1.6390 -1.0633
   91MOL   H33438314   0.116   2.417   1.931  1.0013  1.0508 -0.4549
   91MOL   H33538315   0.279   2.330   2.080  2.2557 -2.7707 -0.2634
   91MOL   H33638316   0.294   2.180   2.010  2.3353  1.5437  0.2785
   91MOL   H33738317   0.135   2.223   2.084 -0.0075 -0.2062  0.0597
   91MOL   C33838318   0.603   2.537   1.474  0.2253  0.2632  0.1809
   91MOL   C33938319   0.730   2.598   1.537 -0.2194 -0.0325 -0.3708
   91MOL   C34038320   0.714   2.609   1.689 -0.0650  0.1928  0.1248
   91MOL   O34138321   0.716   2.512   1.765  0.1215  0.3878 -0.1302
   91MOL   O34238322   0.712   2.737   1.734 -0.0129 -0.0660 -0.5987
   91MOL   C34338323   0.674   2.759   1.876 -0.0581  0.4184  0.7068
   91MOL   C34438324   0.719   2.897   1.938  0.1347 -0.3287 -0.0202
   91MOL   C34538325   0.869   2.921   1.923  0.5334  0.6461  0.4793
   91MOL   C34638326   0.923   3.034   2.010  0.2648  0.1074 -0.0230
   91MOL   H34738327   0.633   2.524   1.370 -2.8607  3.2032 -1.1558
   91MOL   H34838328   0.586   2.435   1.508 -2.0460 -0.2157 -2.1910
   91MOL   H34938329   0.742   2.698   1.496  0.5145  0.9240  2.0950
   91MOL   H35038330   0.723   2.680   1.933  1.9332  0.1334 -1.3699
   91MOL   H35138331   0.565   2.752   1.878 -0.0279 -1.3416 -1.6861
   91MOL   H35238332   0.663   2.974   1.886 -0.1997  0.4738  1.5042
   91MOL   H35338333   0.699   2.900   2.045  0.7842 -0.8228  0.1242
   91MOL   H35438334   0.885   2.952   1.820  1.6395 -1.2334  0.0689
   91MOL   H35538335   0.929   2.832   1.941 -0.6472 -0.0885  0.8592
   91MOL   H35638336   0.864   3.124   1.993  0.2793  0.3184  1.0467
   91MOL   H35738337   1.027   3.063   1.994  0.0396  0.2642 -1.2857
   91MOL   H35838338   0.920   3.007   2.115  0.0490 -1.0472 -0.3155
   91MOL   C35938339   0.857   2.519   1.494 -0.1960  0.2669 -0.4474
   91MOL   C36038340   0.968   2.626   1.467  0.5486  0.4926  0.2258
   91MOL   C36138341   0.965   2.690   1.327 -0.3978  0.0199  0.0150
   91MOL   O36238342   1.070   2.706   1.260 -0.5612  0.0524  0.3085
   91MOL   O36338343   0.840   2.725   1.292 -0.4253 -0.4592  0.0656
   91MOL   C36438344   0.818   2.780   1.170  0.2662  0.3855  0.6111
   91MOL   C36538345   0.853   2.924   1.168 -0.0908 -0.4529 -0.0287
   91MOL   C36638346   0.753   3.004   1.249  0.2873 -1.1497 -0.6953
   91MOL   C36738347   0.755   3.148   1.220 -0.0629  0.1283  0.5407
   91MOL   H36838348   0.841   2.452   1.410 -1.7989  1.2333 -0.9435
   91MOL   H36938349   0.889   2.459   1.579  0.1845 -0.1419 -0.8807
   91MOL   H37038350   1.056   2.562   1.464  0.4832  0.4186 -0.1908
   91MOL   H37138351   0.715   2.763   1.138  0.2574  1.9307 -0.2129
   91MOL   H37238352   0.886   2.732   1.100  0.4008 -1.3545  1.8774
   91MOL   H37338353   0.949   2.945   1.216  0.5624 -2.0528 -0.6033
   91MOL   H37438354   0.855   2.971   1.070 -2.7772  0.4956  0.3348
   91MOL   H37538355   0.769   2.996   1.356  1.7587 -2.5370 -1.0080
   91MOL   H37638356   0.651   2.969   1.235  0.3249 -1.7708  0.5318
   91MOL   H37738357   0.712   3.165   1.121  0.5918  0.2777  0.2832
   91MOL   H37838358   0.853   3.195   1.221  0.2368 -0.4996  0.4425
   91MOL   H37938359   0.702   3.204   1.298 -1.6414  1.5562 -1.4969
   91MOL   C38038360   0.996   2.724   1.586 -0.0646 -0.0542  0.3243
   91MOL   C38138361   1.122   2.814   1.578  0.3391 -0.5086  0.2848
   91MOL   C38238362   1.099   2.941   1.498  0.1014 -0.4715  0.4220
   91MOL   O38338363   0.992   2.993   1.501  0.2064  0.9463 -0.5844
   91MOL   O38438364   1.200   2.967   1.417  0.1517  0.3631 -0.6461
   91MOL   C38538365   1.195   3.086   1.341 -0.3154  0.7614  0.2122
   91MOL   C38638366   1.303   3.082   1.233 -0.0693  0.2876 -0.2731
   91MOL   C38738367   1.254   2.997   1.115  0.5834 -0.3058 -0.5806
   91MOL   C38838368   1.354   2.988   1.001 -0.8953  0.6815 -0.0680
   91MOL   H38938369   1.004   2.669   1.679  1.9871 -0.4613 -0.0666
   91MOL   H39038370   0.906   2.784   1.602  0.2897 -0.0492  2.4266
   91MOL   H39138371   1.198   2.765   1.519  0.2353  0.9424 -1.0836
   91MOL   H39238372   1.216   3.168   1.409  2.1399 -0.7620  1.3835
   91MOL   H39338373   1.100   3.113   1.295  1.3477  2.6009 -2.2307
   91MOL   H39438374   1.319   3.182   1.194  1.1382  0.6609  1.1117
   91MOL   H39538375   1.397   3.038   1.268 -1.1866 -1.7084  0.3119
   91MOL   H39638376   1.167   3.053   1.082  0.7526  1.1202  1.3020
   91MOL   H39738377   1.219   2.900   1.150  0.5774  0.7117  2.4343
   91MOL   H39838378   1.313   2.925   0.923 -0.9770  0.4381  0.1735
   91MOL   H39938379   1.447   2.943   1.036 -0.5698 -0.1688 -1.9675
   91MOL   H40038380   1.381   3.088   0.966  0.5371 -0.0478 -1.0779
   91MOL   C40138381   1.180   2.844   1.717 -0.1377 -0.0324  0.2494
   91MOL   C40238382   1.286   2.954   1.709 -0.3274 -0.4364  0.4335
   91MOL   C40338383   1.372   2.961   1.834 -0.6902  0.6170  0.0377
   91MOL   O40438384   1.339   2.932   1.949 -0.3331 -0.1997  0.5608
   91MOL   O40538385   1.491   3.029   1.808 -0.2591  0.5124 -0.0231
   91MOL   C40638386   1.573   3.074   1.915  0.5134 -0.0428 -0.7536
   91MOL   C40738387   1.713   3.122   1.870 -0.2766  0.3962 -0.1106
   91MOL   C40838388   1.765   3.243   1.943 -0.7323 -0.0488 -0.0401
   91MOL   C40938389   1.769   3.232   2.095 -0.0463 -0.0487 -0.4367
   91MOL   H41038390   1.224   2.755   1.761  0.9042 -0.3160 -1.3170
   91MOL   H41138391   1.107   2.878   1.791 -0.1033  0.2404  0.1610
   91MOL   H41238392   1.241   3.051   1.687  0.5727 -0.1030  0.0367
   91MOL   H41338393   1.574   2.994   1.990  1.2418  0.2283 -0.4632
   91MOL   H41438394   1.506   3.150   1.955  0.3555  0.1027 -1.2903
   91MOL   H41538395   1.780   3.036   1.879 -0.9419 -0.0499  0.5757
   91MOL   H41638396   1.709   3.143   1.763 -0.2974 -1.2978 -0.4486
   91MOL   H41738397   1.705   3.331   1.923 -0.0739  0.6471  0.9891
   91MOL   H41838398   1.856   3.281   1.895  0.2153 -1.2580  0.7427
   91MOL   H41938399   1.839   3.157   2.130  2.5423  1.0819 -2.9817
   91MOL   H42038400   1.678   3.206   2.149  0.2659  0.7829  0.5103
   91MOL   H42138401   1.785   3.327   2.146 -0.1926  0.9894 -2.2599
   91MOL   H42238402   1.356   2.936   1.627 -0.4927  0.3020  0.1276
   92MOL     C138403   5.559   3.986   7.807  0.0024  0.6895  0.2233
   92MOL     C238404   5.446   4.066   7.738 -0.6907  0.5777 -0.3852
   92MOL     C338405   5.453   4.043   7.588 -0.0773  0.2967  0.4170
   92MOL     O438406   5.564   4.013   7.534 -0.0115 -0.2986 -0.4493
   92MOL     O538407   5.331   4.070   7.525 -0.5196 -0.4774  0.1191
   92MOL     C638408   5.318   4.082   7.384  0.0046  0.4087 -0.3857
   92MOL     C738409   5.348   4.230   7.345 -0.4499  0.4580  0.2508
   92MOL     C838410   5.344   4.254   7.188  0.4431  0.0486  0.1501
   92MOL     C938411   5.380   4.406   7.154  0.0862 -0.0617 -0.2325
   92MOL    H1038412   5.526   3.885   7.828  2.0606  0.1381  0.9158
   92MOL    H1138413   5.655   3.982   7.756 -0.7313  0.9157 -1.1816
   92MOL    H1238414   5.467   4.172   7.749 -2.3521  0.6736  2.1277
   92MOL    H1338415   5.226   4.044   7.340  0.6089 -1.8932  0.2549
   92MOL    H1438416   5.398   4.023   7.340 -1.4342 -0.4225 -1.9659
   92MOL    H1538417   5.279   4.299   7.395  0.9943 -1.1527  4.7768
   92MOL    H1638418   5.451   4.240   7.380  0.2305  1.1788 -1.8823
   92MOL    H1738419   5.242   4.232   7.157  0.1648  0.5364  0.7021
   92MOL    H1838420   5.410   4.186   7.135  2.7304  1.2935  1.3050
   92MOL    H1938421   5.478   4.432   7.196 -0.5216  2.0174 -0.0548
   92MOL    H2038422   5.318   4.487   7.193  2.3323  1.4991  0.2403
   92MOL    H2138423   5.386   4.416   7.045  1.4862 -0.4052 -0.2016
   92MOL    H2238424   5.576   4.033   0.051 -4.4462  1.0876  0.8940
   92MOL    C2338425   5.312   4.037   7.805 -0.1548  1.2295  0.8052
   92MOL    C2438426   5.196   4.144   7.791  0.0230 -0.4818 -0.1150
   92MOL    C2538427   5.048   4.090   7.774  0.5519  0.3950  0.0868
   92MOL    O2638428   5.017   3.979   7.822  0.2377 -0.5861 -0.1639
   92MOL    O2738429   4.968   4.168   7.697  0.0285 -0.7273  0.1130
   92MOL    C2838430   4.829   4.133   7.687 -0.0774 -0.0536 -0.1781
   92MOL    C2938431   4.750   4.219   7.786  0.1356 -0.0173  0.1026
   92MOL    C3038432   4.612   4.162   7.825 -0.2549  0.0858  0.7330
   92MOL    C3138433   4.546   4.240   0.085 -0.6629  0.1879  0.3902
   92MOL    H3238434   5.319   4.026   0.060 -0.3427 -1.4799  0.5861
   92MOL    H3338435   5.262   3.947   7.768  0.2889  1.2464  0.1584
   92MOL    H3438436   5.211   4.201   7.699  3.0083  2.0361  1.8157
   92MOL    H3538437   4.813   4.025   7.688 -1.7249  0.1860 -0.1656
   92MOL    H3638438   4.793   4.175   7.593 -1.4297 -0.2647  0.2427
   92MOL    H3738439   4.810   4.227   0.024 -0.8127  0.8006  0.6675
   92MOL    H3838440   4.745   4.320   7.744 -0.5137  0.3560  1.0437
   92MOL    H3938441   4.618   4.056   7.852  0.2446  0.1749  0.9643
   92MOL    H4038442   4.546   4.158   7.738 -0.0467  1.2198  0.5211
   92MOL    H4138443   4.476   4.168   0.127 -0.1542  0.3112  1.4718
   92MOL    H4238444   4.486   4.323   0.047 -0.2476  1.7830  3.0617
   92MOL    H4338445   4.611   4.271   0.167 -1.0135 -0.2731  0.8531
   92MOL    C4438446   5.207   4.254   0.043 -0.5994  0.0196 -0.3999
   92MOL    C4538447   5.135   4.389   0.017 -0.3945  0.5892 -0.2213
   92MOL    C4638448   5.024   4.408   0.116 -0.1900  0.7692  0.3697
   92MOL    O4738449   4.911   4.434   0.080 -0.0587  0.8644 -0.2272
   92MOL    O4838450   5.058   4.410   0.246 -0.4262  0.0948  0.1358
   92MOL    C4938451   4.965   4.472   0.335 -0.4444 -0.1707 -0.0097
   92MOL    C5038452   5.023   4.533   0.466  0.3887  0.3236  0.0380
   92MOL    C5138453   4.918   4.612   0.536 -0.2138  0.1011 -0.3461
   92MOL    C5238454   4.849   4.724   0.455  0.1282 -0.2496 -0.0064
   92MOL    H5338455   5.315   4.268   0.049 -0.5687 -0.5564  0.4936
   92MOL    H5438456   5.179   4.209   0.138 -0.7282 -0.3915 -0.6283
   92MOL    H5538457   5.094   4.383   7.769  0.8498  0.3710 -0.7117
   92MOL    H5638458   4.891   4.395   0.357 -0.4997 -0.0732  0.1477
   92MOL    H5738459   4.902   4.547   0.287  0.3702  0.1524 -0.5809
   92MOL    H5838460   5.052   4.450   0.530 -1.8120 -1.2923 -0.9755
   92MOL    H5938461   5.112   4.593   0.448  0.2629  0.6567  0.5219
   92MOL    H6038462   4.974   4.648   0.621 -0.6162 -1.6619  0.6980
   92MOL    H6138463   4.840   4.547   0.577  0.9933  0.1224  2.0653
   92MOL    H6238464   4.921   4.799   0.420 -0.5662  0.8786  0.9386
   92MOL    H6338465   4.776   4.784   0.510 -0.9329  0.1865 -1.8575
   92MOL    H6438466   4.795   4.680   0.371 -0.4904  2.3242 -1.0036
   92MOL    C6538467   5.240   4.514   0.011  0.3395  0.5767  0.1058
   92MOL    C6638468   5.202   4.630   7.759  0.2213  0.5655  0.8142
   92MOL    C6738469   5.108   4.715   7.841  0.2501 -0.4806 -0.4583
   92MOL    O6838470   5.130   4.757   0.100 -0.2096 -0.1605 -0.9110
   92MOL    O6938471   5.000   4.757   7.769  0.2208 -0.0505  0.7955
   92MOL    C7038472   4.898   4.835   7.831  0.1961 -0.2335  0.1952
   92MOL    C7138473   4.757   4.780   7.787  0.5964  0.1842  0.2375
   92MOL    C7238474   4.640   4.868   7.839  0.0216 -0.2164  0.1014
   92MOL    C7338475   4.602   4.821   0.132 -0.1969  0.2186 -0.4121
   92MOL    H7438476   5.340   4.490   7.830  0.5205 -1.3058  1.9130
   92MOL    H7538477   5.268   4.549   0.110  1.3424  0.0235  0.0188
   92MOL    H7638478   5.150   4.577   7.679  0.8271  1.0768  0.0844
   92MOL    H7738479   4.918   4.939   7.803  0.3087 -0.4843 -0.6598
   92MOL    H7838480   4.907   4.816   0.085 -0.1683 -2.5154 -0.1497
   92MOL    H7938481   4.758   4.772   7.678 -0.1073  0.3664  0.2199
   92MOL    H8038482   4.748   4.680   7.831  1.6319  0.4842  1.1678
   92MOL    H8138483   4.553   4.845   7.777  1.2498 -0.7495 -1.4402
   92MOL    H8238484   4.665   4.974   7.826  0.0566 -0.2140  0.1949
   92MOL    H8338485   4.587   4.713   0.135 -2.6838  0.5094 -1.2472
   92MOL    H8438486   4.509   4.861   0.171 -0.2056  0.3648 -0.5889
   92MOL    H8538487   4.673   4.843   0.213 -1.7145 -0.7033  1.2126
   92MOL    C8638488   5.319   4.708   7.704 -0.6035  0.0320  0.4132
   92MOL    C8738489   5.287   4.848   7.638 -0.4928 -0.8240  0.0966
   92MOL    C8838490   5.295   4.968   7.742 -0.0312 -0.0577 -0.5089
   92MOL    O8938491   5.190   5.025   7.777 -0.4963 -0.1763 -0.1854
   92MOL    O9038492   5.420   4.982   7.797 -0.1489 -0.4704  0.0625
   92MOL    C9138493   5.447   5.044   0.064  0.2464  0.5823  0.5494
   92MOL    C9238494   5.465   5.196   0.047 -0.9455 -0.0465  0.4107
   92MOL    C9338495   5.507   5.264   0.182 -0.0961  0.0840 -0.7809
   92MOL    C9438496   5.512   5.411   0.163 -0.0172 -0.1176  0.8420
   92MOL    H9538497   5.360   4.641   7.629 -1.3013  0.3289 -0.2415
   92MOL    H9638498   5.404   4.721   7.772 -0.7549 -0.9467  0.7921
   92MOL    H9738499   5.182   4.851   7.608 -0.2043 -0.8793 -0.8994
   92MOL    H9838500   5.536   4.995   0.105  0.7934 -1.6286 -3.0299
   92MOL    H9938501   5.360   5.033   0.128 -1.8135  0.8872 -2.1289
   92MOL   H10038502   5.545   5.210   7.827 -0.3752  0.9125  1.2012
   92MOL   H10138503   5.373   5.231   0.000  0.4022  0.5324 -1.8770
   92MOL   H10238504   5.608   5.231   0.206  0.0198  1.6778  0.9928
   92MOL   H10338505   5.438   5.234   0.260 -1.0314  2.1063 -0.7912
   92MOL   H10438506   5.428   5.448   0.104 -0.3265 -2.4716 -0.2779
   92MOL   H10538507   5.602   5.432   0.107 -0.5920 -0.2032 -0.1290
   92MOL   H10638508   5.514   5.463   0.259  1.2959  2.1305 -0.3927
   92MOL   C10738509   5.375   4.885   7.517  0.4049 -0.3818 -0.6978
   92MOL   C10838510   5.354   4.799   7.384  0.2638 -0.6521 -0.2462
   92MOL   C10938511   5.215   4.799   7.325 -0.1587  0.0444 -0.0656
   92MOL   O11038512   5.168   4.889   7.255 -0.3031 -0.7083 -0.0154
   92MOL   O11138513   5.139   4.699   7.380 -0.2077 -0.1824 -0.0657
   92MOL   C11238514   5.010   4.670   7.329  0.6462 -0.1008 -0.3249
   92MOL   C11338515   4.932   4.576   7.426 -0.4331  0.6049 -0.9780
   92MOL   C11438516   5.007   4.445   7.458  0.5215 -0.5808 -0.3317
   92MOL   C11538517   4.984   4.341   7.345 -0.4576 -0.1062  0.3992
   92MOL   H11638518   5.478   4.879   7.553 -0.5664 -0.0113  2.2732
   92MOL   H11738519   5.361   4.989   7.488  0.4088 -0.4407 -0.9139
   92MOL   H11838520   5.371   4.697   7.417  1.6644 -0.5134 -0.5131
   92MOL   H11938521   5.015   4.623   7.231  0.1184 -1.3451  0.2419
   92MOL   H12038522   4.957   4.765   7.325 -0.7852 -0.8748  0.1335
   92MOL   H12138523   4.910   4.621   7.522  0.0526 -1.6671  0.2368
   92MOL   H12238524   4.835   4.555   7.381 -0.9822  3.2280 -1.0608
   92MOL   H12338525   4.972   4.399   7.550  1.5784 -0.1272  0.3054
   92MOL   H12438526   5.112   4.449   7.487  0.0001  0.4170  1.4684
   92MOL   H12538527   5.020   4.371   7.247  0.5702  1.7884  1.3097
   92MOL   H12638528   4.878   4.324   7.329 -0.3003 -2.0006  1.2558
   92MOL   H12738529   5.027   4.243   7.366  0.8106  0.0514 -1.3754
   92MOL   C12838530   5.467   4.822   7.282 -0.2923  0.2754  0.0925
   92MOL   C12938531   5.611   4.792   7.335  0.1471 -0.1225 -0.6208
   92MOL   C13038532   5.643   4.644   7.351 -0.0148 -0.0496 -0.8789
   92MOL   O13138533   5.723   4.584   7.278 -0.5096 -0.4399 -0.3314
   92MOL   O13238534   5.582   4.593   7.461 -0.1705  0.0637 -0.6401
   92MOL   C13338535   5.589   4.452   7.483  0.2810  0.2687 -0.0447
   92MOL   C13438536   5.695   4.404   7.592  0.0702 -0.6628  0.3856
   92MOL   C13538537   5.836   4.444   7.549 -0.4359 -0.4374  0.1621
   92MOL   C13638538   5.934   4.406   7.664 -0.3072  0.3306 -0.7883
   92MOL   H13738539   5.460   4.924   7.245 -1.3628 -0.3941 -1.5886
   92MOL   H13838540   5.436   4.765   7.194 -4.1174  0.8384  0.9742
   92MOL   H13938541   5.625   4.834   7.435 -1.3628  1.2021 -0.9304
   92MOL   H14038542   5.613   4.400   7.390 -1.3395  1.0460 -0.9135
   92MOL   H14138543   5.485   4.434   7.509  0.6549  0.4707  1.6244
   92MOL   H14238544   5.672   4.453   7.686  0.7701 -2.2107  1.3901
   92MOL   H14338545   5.693   4.298   7.619  0.0595 -0.3239  1.7431
   92MOL   H14438546   5.856   4.550   7.536  1.4064 -1.0203 -2.2022
   92MOL   H14538547   5.856   4.394   7.454 -0.1153  0.3039 -0.1634
   92MOL   H14638548   5.923   4.302   7.696 -1.4641  0.7214  0.1466
   92MOL   H14738549   5.908   4.466   7.752 -1.4773 -2.1183  0.5906
   92MOL   H14838550   6.033   4.418   7.620  0.2879  0.0859  0.4625
   92MOL   C14938551   5.705   4.867   7.241  0.4314 -0.0413  0.2586
   92MOL   C15038552   5.853   4.865   7.280  0.5370 -0.3284  0.2215
   92MOL   C15138553   5.933   4.921   7.160 -0.1312 -0.8998 -0.3795
   92MOL   O15238554   5.877   5.013   7.095 -0.2285  0.5360  0.2166
   92MOL   O15338555   6.053   4.872   7.143  0.2228 -0.0911 -0.2932
   92MOL   C15438556   6.111   4.899   7.025  0.5627  0.2362 -0.5482
   92MOL   C15538557   6.175   5.036   7.018  0.6638  0.0057 -0.5482
   92MOL   C15638558   6.269   5.057   6.909 -0.0264 -0.2667 -0.0403
   92MOL   C15738559   6.362   5.181   6.932 -0.1754 -0.0206  0.2983
   92MOL   H15838560   5.672   4.966   7.208  1.0703 -0.4659 -1.7375
   92MOL   H15938561   5.710   4.817   7.144  0.3822 -0.3349  0.4111
   92MOL   H16038562   5.886   4.762   7.289  2.7322  0.3260  0.0073
   92MOL   H16138563   6.040   4.888   6.943  1.5987  0.8678 -1.5542
   92MOL   H16238564   6.187   4.824   7.003  1.0978  0.8719 -0.8910
   92MOL   H16338565   6.097   5.112   7.009  2.2290  1.5965 -1.1576
   92MOL   H16438566   6.219   5.051   7.116  0.5288 -2.2434 -0.1200
   92MOL   H16538567   6.216   5.073   6.815 -0.6390 -2.4078 -0.1024
   92MOL   H16638568   6.317   4.964   6.878 -0.2203  0.0974 -1.4878
   92MOL   H16738569   6.424   5.179   7.022 -0.1821 -0.5562  0.2948
   92MOL   H16838570   6.309   5.276   6.931 -2.3294 -1.1803 -0.0106
   92MOL   H16938571   6.434   5.182   6.851  1.5936 -3.4283  1.7122
   92MOL   C17038572   5.901   4.937   7.409  0.2411 -0.3498 -0.0908
   92MOL   C17138573   5.880   5.095   7.410  0.1686 -0.0273  0.2841
   92MOL   C17238574   5.745   5.135   7.465 -0.0911 -0.1954 -0.6166
   92MOL   O17338575   5.682   5.069   7.550 -0.0255 -1.2593 -0.2028
   92MOL   O17438576   5.712   5.260   7.423  0.2621  0.3115  0.2280
   92MOL   C17538577   5.610   5.325   7.484  0.2152  0.9444  0.2821
   92MOL   C17638578   5.481   5.303   7.406 -0.5280 -0.0523 -0.1911
   92MOL   C17738579   5.372   5.397   7.458  0.1634 -0.7141 -0.4056
   92MOL   C17838580   5.234   5.399   7.386 -0.3440 -0.1710  0.1792
   92MOL   H17938581   6.003   4.907   7.430  0.7517  1.5693  0.2770
   92MOL   H18038582   5.851   4.896   7.497 -0.4932  0.4377 -0.1321
   92MOL   H18138583   5.877   5.131   7.307  0.8655  0.7113  0.5158
   92MOL   H18238584   5.626   5.433   7.490 -0.6923  1.1118 -0.2664
   92MOL   H18338585   5.612   5.282   7.584  0.8302  1.1715  0.3707
   92MOL   H18438586   5.517   5.329   7.306 -0.2561 -1.4352 -0.4645
   92MOL   H18538587   5.453   5.198   7.407 -1.4987  0.1627 -2.0147
   92MOL   H18638588   5.407   5.500   7.459 -4.1040  0.8594 -0.0536
   92MOL   H18738589   5.363   5.358   7.559  0.2196 -1.4556 -0.6856
   92MOL   H18838590   5.237   5.448   7.289 -0.5600 -0.9813 -0.2444
   92MOL   H18938591   5.156   5.438   7.451 -0.7064 -1.1653  0.3618
   92MOL   H19038592   5.198   5.299   7.362  0.3793 -0.1411 -1.0891
   92MOL   C19138593   5.998   5.178   7.475  0.2786 -0.1502  0.6622
   92MOL   C19238594   6.134   5.166   7.403 -0.7175  0.7031  0.0806
   92MOL   C19338595   6.142   5.282   7.299 -0.0360  0.5343 -0.1373
   92MOL   O19438596   6.245   5.350   7.291 -0.5013 -0.2106  0.1077
   92MOL   O19538597   6.043   5.281   7.206  0.2166  0.2173  0.4747
   92MOL   C19638598   6.045   5.378   7.103  0.7101 -0.2773 -0.2152
   92MOL   C19738599   5.953   5.491   7.149  0.2890 -0.3568  0.6140
   92MOL   C19838600   5.800   5.452   7.148  0.7038  0.1394 -0.5666
   92MOL   C19938601   5.709   5.577   7.171  0.5415 -0.2903  0.3358
   92MOL   H20038602   6.004   5.133   7.574 -3.5183  1.9595  1.9603
   92MOL   H20138603   5.976   5.281   7.501 -2.5642 -0.5846  0.2309
   92MOL   H20238604   6.125   5.073   7.347 -0.5867  1.0961 -0.6031
   92MOL   H20338605   6.007   5.326   7.015  0.7103 -0.2757 -0.2163
   92MOL   H20438606   6.148   5.409   7.089  0.1295  0.7683 -2.4217
   92MOL   H20538607   5.978   5.526   7.249  1.9377 -0.1800  0.1489
   92MOL   H20638608   5.976   5.581   7.092  0.6973  0.3446  1.8644
   92MOL   H20738609   5.800   5.367   7.217  1.5163 -0.7592 -1.6470
   92MOL   H20838610   5.779   5.413   7.048 -0.6480  0.6197 -0.4767
   92MOL   H20938611   5.722   5.627   7.267 -2.8250  0.8234  0.3038
   92MOL   H21038612   5.607   5.542   7.153  1.5826 -2.9121 -0.7528
   92MOL   H21138613   5.732   5.656   7.100  0.3141  0.8965  1.5593
   92MOL   C21238614   6.255   5.150   7.499 -0.1085 -0.3655 -0.4808
   92MOL   C21338615   6.262   5.000   7.559 -0.2922  0.0781 -1.2649
   92MOL   C21438616   6.296   4.899   7.449 -0.2207 -0.1353  0.2897
   92MOL   O21538617   6.361   4.926   7.348 -0.0621  0.2060  0.2460
   92MOL   O21638618   6.232   4.778   7.472 -0.1370  0.1485 -0.2169
   92MOL   C21738619   6.248   4.683   7.369  0.7811 -0.1308  0.0063
   92MOL   C21838620   6.179   4.553   7.418  0.6706  0.8699 -0.6725
   92MOL   C21938621   6.196   4.457   7.301 -0.1687 -0.2637 -0.4007
   92MOL   C22038622   6.171   4.316   7.344  0.7322 -0.1084  0.1097
   92MOL   H22138623   6.227   5.223   7.575 -0.3078 -0.2164 -0.6998
   92MOL   H22238624   6.353   5.179   7.461 -0.4911  0.8149 -0.5695
   92MOL   H22338625   6.167   4.979   7.609  0.1942 -0.1738 -0.4422
   92MOL   H22438626   6.355   4.666   7.367  0.5833 -1.3608 -1.7018
   92MOL   H22538627   6.211   4.730   7.278 -1.3463  0.4862  1.1439
   92MOL   H22638628   6.236   4.518   7.504  0.8968  1.5941 -0.5247
   92MOL   H22738629   6.076   4.566   7.452  1.0243  1.1615  0.3037
   92MOL   H22838630   6.295   4.463   7.255  0.8312 -0.9605  1.6244
   92MOL   H22938631   6.129   4.492   7.222  2.5844  0.0177 -2.6954
   92MOL   H23038632   6.238   4.292   7.427  1.5769  2.1794  0.1103
   92MOL   H23138633   6.164   4.241   7.265 -2.1027  0.8263 -0.6031
   92MOL   H23238634   6.070   4.314   7.386  1.3286 -2.0827  1.5530
   92MOL   C23338635   6.375   5.007   7.674  0.1804  0.0951 -0.0411
   92MOL   C23438636   6.414   4.874   7.741  0.6303  0.4642 -0.8995
   92MOL   C23538637   6.299   4.782   7.779 -0.3516 -0.7503 -0.7293
   92MOL   O23638638   6.302   4.663   7.756 -0.0246  0.4188 -0.4876
   92MOL   O23738639   6.209   4.841   0.008 -0.3215 -0.2510  0.3819
   92MOL   C23838640   6.103   4.764   0.055  0.3193  0.3447  0.0768
   92MOL   C23938641   5.993   4.761   7.797  0.0959 -0.5069  0.2567
   92MOL   C24038642   5.866   4.724   0.025 -0.4450 -0.1841  0.2520
   92MOL   C24138643   5.742   4.738   7.789  0.2647  0.0885  0.1217
   92MOL   H24238644   6.340   5.078   7.750  0.1635  1.5318 -1.3591
   92MOL   H24338645   6.463   5.057   7.634  0.3101 -1.1675 -1.3639
   92MOL   H24438646   6.454   4.889   7.841 -0.7156  0.4949 -0.3536
   92MOL   H24538647   6.061   4.823   0.136  0.8949 -0.0546  0.6654
   92MOL   H24638648   6.137   4.667   0.090  3.0899  1.9895  2.1052
   92MOL   H24738649   5.981   4.858   7.750  1.6297 -1.6657 -2.6118
   92MOL   H24838650   6.021   4.686   7.723  0.0098 -0.4999  0.2172
   92MOL   H24938651   5.850   4.789   0.111  0.9719 -1.3604  1.4104
   92MOL   H25038652   5.865   4.622   0.062  1.6931 -0.1598  0.4421
   92MOL   H25138653   5.749   4.833   7.737  1.5073 -0.1992 -0.2339
   92MOL   H25238654   5.647   4.744   7.844 -0.6165  0.6014 -1.4278
   92MOL   H25338655   5.728   4.656   7.718 -0.9087 -0.5862  1.1118
   92MOL   C25438656   6.536   4.806   7.673 -1.4867  0.1324 -0.1111
   92MOL   C25538657   6.670   4.808   7.758  0.1026  0.0589  0.5152
   92MOL   C25638658   6.724   4.949   7.784  0.1618  0.2194  0.1419
   92MOL   O25738659   6.718   5.006   0.040  0.1183  0.1941  0.2055
   92MOL   O25838660   6.772   4.999   7.673 -0.1161  0.0249 -0.4790
   92MOL   C25938661   6.819   5.135   7.657  0.2726  0.4497  0.5410
   92MOL   C26038662   6.713   5.221   7.583  0.7284  0.6573  0.2925
   92MOL   C26138663   6.684   5.177   7.439 -0.2022  0.1601  0.2824
   92MOL   C26238664   6.631   5.288   7.341  0.2406  0.5246 -0.3825
   92MOL   H26338665   6.561   4.841   7.573 -0.5326  1.9338  0.7426
   92MOL   H26438666   6.513   4.702   7.651 -1.1617  0.2192 -0.8639
   92MOL   H26538667   6.747   4.768   7.692 -1.0772  0.5348 -1.1796
   92MOL   H26638668   6.913   5.148   7.603  0.4872 -3.9533 -0.3231
   92MOL   H26738669   6.843   5.178   7.754  0.8224  0.5537  0.3583
   92MOL   H26838670   6.621   5.241   7.639  1.3459  1.2643  1.1017
   92MOL   H26938671   6.752   5.322   7.573  1.2482  0.3897 -0.3983
   92MOL   H27038672   6.603   5.103   7.436 -1.5417  1.5091  1.8488
   92MOL   H27138673   6.784   5.152   7.404 -0.1759  1.1796 -0.3626
   92MOL   H27238674   6.630   5.251   7.239  2.9484 -0.6548 -0.0132
   92MOL   H27338675   6.680   5.386   7.342 -0.6291  1.0443 -2.9642
   92MOL   H27438676   6.527   5.314   7.361  0.2956  0.1232  0.4595
   92MOL   C27538677   6.674   4.719   0.036  0.0803  0.4470 -0.0852
   92MOL   C27638678   6.782   4.609   0.042  0.3050 -0.1665 -0.4373
   92MOL   C27738679   6.919   4.674   0.020  0.1052 -0.0757 -0.5999
   92MOL   O27838680   6.985   4.645   7.777 -0.6453 -0.4253 -0.2859
   92MOL   O27938681   6.955   4.758   0.124 -0.0970  0.0873  0.3918
   92MOL   C28038682   7.085   4.809   0.137 -0.4972  0.4386 -0.1095
   92MOL   C28138683   7.105   4.928   0.040  0.1926  0.4041  0.3615
   92MOL   C28238684   7.253   4.965   0.019 -0.1371 -0.4769 -0.5113
   92MOL   C28338685   7.274   5.024   7.730  0.0261  0.0904  0.3117
   92MOL   H28438686   6.576   4.672   0.051  0.4711  0.1972  1.7114
   92MOL   H28538687   6.669   4.771   0.131  0.7850  2.7197 -1.2664
   92MOL   H28638688   6.769   4.547   7.807  3.5795  0.2542 -1.2589
   92MOL   H28738689   7.162   4.734   0.119  0.0730 -0.3250  4.8056
   92MOL   H28838690   7.099   4.841   0.240  0.6256 -0.0160 -0.1151
   92MOL   H28938691   7.058   4.901   7.798  0.8105  2.5483 -0.6033
   92MOL   H29038692   7.048   5.016   0.069  1.0786  0.5899  1.5630
   92MOL   H29138693   7.313   4.874   0.026 -2.7225 -2.3004 -1.2059
   92MOL   H29238694   7.296   5.033   0.092 -2.6597  0.9876 -0.3224
   92MOL   H29338695   7.207   5.107   7.710  0.7757  0.9533  1.3308
   92MOL   H29438696   7.251   4.944   7.659 -1.1891 -0.8230  1.7131
   92MOL   H29538697   7.377   5.056   7.718 -0.2758  0.6117 -1.0421
   92MOL   C29638698   6.764   4.515   0.168 -0.0949 -0.5237 -0.1139
   92MOL   C29738699   6.813   4.370   0.132  0.4421 -0.2297  0.3678
   92MOL   C29838700   6.956   4.346   0.078 -0.2968 -0.3578 -0.2136
   92MOL   O29938701   6.978   4.329   7.810 -0.3909  0.0183  0.0246
   92MOL   O30038702   7.049   4.354   0.168  0.1802  0.3977  0.1827
   92MOL   C30138703   7.188   4.325   0.140 -0.3495 -0.3003  0.1271
   92MOL   C30238704   7.267   4.456   0.155  0.1170  0.2480  0.5800
   92MOL   C30338705   7.417   4.467   0.146  0.2331  0.3368  0.2457
   92MOL   C30438706   7.467   4.613   0.155 -0.1613 -0.0804  0.4901
   92MOL   H30538707   6.665   4.513   0.214  0.4099  0.3662  1.0521
   92MOL   H30638708   6.830   4.550   0.248  0.7906 -1.0117 -0.6259
   92MOL   H30738709   6.743   4.342   0.053  0.5285 -1.0799  0.5871
   92MOL   H30838710   7.212   4.269   0.049 -2.5926  0.4185 -0.9334
   92MOL   H30938711   7.215   4.267   0.228  0.7386  0.1546  0.1039
   92MOL   H31038712   7.236   4.514   0.068 -0.4750  0.8407  1.1878
   92MOL   H31138713   7.234   4.502   0.248  0.7241 -0.8579  1.3589
   92MOL   H31238714   7.447   4.421   0.052 -0.6475 -0.0291  0.1382
   92MOL   H31338715   7.466   4.405   0.221 -2.1796  0.2775  1.8286
   92MOL   H31438716   7.429   4.658   0.064 -1.0098 -1.4425  0.1685
   92MOL   H31538717   7.576   4.620   0.164 -0.4532  3.4989  2.1789
   92MOL   H31638718   7.419   4.672   0.233 -0.0296 -0.6703  1.0176
   92MOL   C31738719   6.770   4.270   0.250  0.1254  0.1635 -0.2344
   92MOL   C31838720   6.733   4.133   0.198 -0.1863  0.1948 -0.1178
   92MOL   C31938721   6.858   4.048   0.178 -0.2305 -0.0009 -0.4472
   92MOL   O32038722   6.877   3.987   0.072  0.1881  0.4712 -0.7623
   92MOL   O32138723   6.933   4.025   0.289 -0.1347  0.2234 -0.3615
   92MOL   C32238724   7.036   3.933   0.285 -0.4130 -0.1383  0.3511
   92MOL   C32338725   7.166   3.987   0.349  0.3038 -0.3085 -0.3262
   92MOL   C32438726   7.155   4.021   0.497 -0.2378  0.1788  0.0268
   92MOL   C32538727   7.294   4.082   0.538  0.2967 -0.7555  0.2140
   92MOL   H32638728   6.675   4.305   0.291 -0.4065 -0.9233 -0.5151
   92MOL   H32738729   6.829   4.275   0.342 -0.7972 -1.1006  0.4544
   92MOL   H32838730   6.691   4.151   0.099  0.9553 -1.6426 -0.9700
   92MOL   H32938731   7.068   3.906   0.184  0.1748  2.5292 -0.2203
   92MOL   H33038732   7.001   3.841   0.331  2.5642 -1.1491  0.6829
   92MOL   H33138733   7.244   3.914   0.326  1.7210  1.0641  0.0045
   92MOL   H33238734   7.200   4.075   0.294  0.8110  0.0678  0.5840
   92MOL   H33338735   7.144   3.926   0.548 -1.2374 -0.4503 -1.3321
   92MOL   H33438736   7.067   4.085   0.509 -0.8377 -0.9956  2.0638
   92MOL   H33538737   7.315   4.167   0.472 -0.1018 -1.5822 -0.9891
   92MOL   H33638738   7.379   4.016   0.518 -0.4052 -1.8915  0.9379
   92MOL   H33738739   7.298   4.106   0.644 -0.4340  1.1733 -0.1780
   92MOL   C33838740   6.614   4.073   0.285  0.6393  0.4099  0.4298
   92MOL   C33938741   6.573   3.933   0.238  0.0172  0.1057  0.2068
   92MOL   C34038742   6.610   3.832   0.341 -0.0917  0.4534  0.1747
   92MOL   O34138743   6.729   3.793   0.349  0.9040 -0.1062  0.3403
   92MOL   O34238744   6.505   3.796   0.417  0.6598  0.1060  0.7343
   92MOL   C34338745   6.530   3.720   0.535 -0.1906 -0.1818 -0.0103
   92MOL   C34438746   6.456   3.579   0.530 -0.3645 -0.1818  0.6133
   92MOL   C34538747   6.504   3.470   0.632  0.7823 -0.1125  0.6904
   92MOL   C34638748   6.632   3.396   0.577 -0.1823 -0.1559 -0.7761
   92MOL   H34738749   6.525   4.135   0.289  0.8118  0.7259 -0.4936
   92MOL   H34838750   6.641   4.073   0.390  0.5358  0.8598  0.4594
   92MOL   H34938751   6.646   3.915   0.159 -2.5678  0.0720 -2.2110
   92MOL   H35038752   6.499   3.785   0.617 -0.6867  0.4060 -0.6617
   92MOL   H35138753   6.635   3.699   0.557 -0.1297 -0.1403 -0.2691
   92MOL   H35238754   6.353   3.602   0.557 -0.7282  0.6019 -1.3395
   92MOL   H35338755   6.452   3.536   0.430  1.0432 -0.5228  0.7056
   92MOL   H35438756   6.422   3.404   0.661  2.1088 -1.6415  1.0348
   92MOL   H35538757   6.523   3.522   0.726 -0.9334  1.9094 -0.0431
   92MOL   H35638758   6.676   3.335   0.656  2.6119  1.5300 -0.9729
   92MOL   H35738759   6.708   3.474   0.572 -0.0118 -0.2244  0.6372
   92MOL   H35838760   6.607   3.346   0.483  2.3016 -3.2505  0.1125
   92MOL   C35938761   6.432   3.920   0.179  0.3175 -0.0387 -0.0086
   92MOL   C36038762   6.408   4.009   0.057 -0.7691 -0.3062  0.4431
   92MOL   C36138763   6.488   3.951   7.790 -0.5507  0.2948 -0.2692
   92MOL   O36238764   6.447   3.862   7.714  0.1378  0.2592  0.0561
   92MOL   O36338765   6.602   4.020   7.766  0.0709  0.1017  0.5468
   92MOL   C36438766   6.658   4.021   7.639  0.2677  0.2673  0.0005
   92MOL   C36538767   6.617   4.140   7.556 -0.7150 -0.3394 -0.2026
   92MOL   C36638768   6.672   4.265   7.626  0.0104 -0.9400  0.0490
   92MOL   C36738769   6.636   4.395   7.548  0.3263  0.5728 -0.0554
   92MOL   H36838770   6.359   3.938   0.257 -1.1111 -0.3466 -1.2556
   92MOL   H36938771   6.422   3.813   0.162  0.7293 -0.4151  1.9980
   92MOL   H37038772   6.458   4.105   0.073 -0.1731 -0.8372  1.8601
   92MOL   H37138773   6.610   3.938   7.586  1.2382 -0.2076 -0.1601
   92MOL   H37238774   6.765   4.000   7.639  0.0521 -0.8846 -0.3869
   92MOL   H37338775   6.660   4.136   7.456  0.1868 -0.3421  0.1825
   92MOL   H37438776   6.510   4.153   7.541 -0.7793 -0.0602  0.4467
   92MOL   H37538777   6.778   4.251   7.648 -0.0157 -1.5153 -0.1750
   92MOL   H37638778   6.632   4.285   7.725  1.6570  1.1784  0.3266
   92MOL   H37738779   6.664   4.477   7.614 -0.8341 -0.5780  1.9151
   92MOL   H37838780   6.534   4.421   7.521  0.0288 -0.6796 -0.1524
   92MOL   H37938781   6.683   4.385   7.450 -0.5341  3.9268 -0.8549
   92MOL   C38038782   6.253   4.021   0.022  0.0186  0.2343  0.8120
   92MOL   C38138783   6.224   4.106   7.754  0.2909 -0.2720  0.7573
   92MOL   C38238784   6.077   4.094   7.711  0.2960 -0.2246 -0.1153
   92MOL   O38338785   5.987   4.076   7.802 -0.0637 -0.3281 -0.3563
   92MOL   O38438786   6.058   4.094   7.581 -0.3274 -0.2357  0.3375
   92MOL   C38538787   5.929   4.043   7.543 -0.3143 -0.1103  0.3500
   92MOL   C38638788   5.934   4.024   7.393  0.2652 -0.4653  1.0649
   92MOL   C38738789   5.800   4.051   7.310 -0.0313  0.1082  0.0604
   92MOL   C38838790   5.814   4.063   7.158  0.4782  0.2719  0.0458
   92MOL   H38938791   6.203   4.068   0.106 -1.6702 -0.3684  0.1739
   92MOL   H39038792   6.208   3.922   0.021  0.2936  0.1116 -0.6948
   92MOL   H39138793   6.276   4.067   7.667  0.5700  0.7881  0.4367
   92MOL   H39238794   5.845   4.105   7.572 -1.0092 -1.4846  1.2984
   92MOL   H39338795   5.912   3.949   7.596  0.5074 -0.8186 -0.6166
   92MOL   H39438796   6.025   4.073   7.358  0.3793 -1.0281  0.5679
   92MOL   H39538797   5.960   3.922   7.365  1.9560  0.2140  0.0486
   92MOL   H39638798   5.750   4.145   7.332 -1.1203 -0.0178 -1.7539
   92MOL   H39738799   5.731   3.969   7.330 -0.4190  1.0391  2.6358
   92MOL   H39838800   5.886   4.137   7.124  0.4614 -0.3450 -1.3819
   92MOL   H39938801   5.718   4.063   7.105 -0.1932 -0.5342  1.2327
   92MOL   H40038802   5.865   3.974   7.120 -0.3892 -0.3976  0.4394
   92MOL   C40138803   6.276   4.255   7.770 -0.1102  0.5152  0.4161
   92MOL   C40238804   6.223   4.334   0.040  0.0226 -0.1474  1.2017
   92MOL   C40338805   6.332   4.414   0.115  0.6469 -0.3654 -1.0376
   92MOL   O40438806   6.455   4.407   0.103 -0.1455  0.4706 -0.3815
   92MOL   O40538807   6.271   4.489   0.210  0.3687 -0.1755  0.8983
   92MOL   C40638808   6.359   4.533   0.320  0.0326 -0.0853  0.1929
   92MOL   C40738809   6.401   4.684   0.317 -0.5250 -0.7669  0.5131
   92MOL   C40838810   6.307   4.791   0.371  0.4700 -0.5628 -0.1201
   92MOL   C40938811   6.362   4.931   0.359 -0.5874 -0.4787 -0.3103
   92MOL   H41038812   6.276   4.315   7.679  2.5670  0.7289  0.5170
   92MOL   H41138813   6.384   4.245   7.774  0.0202  1.0795 -1.4566
   92MOL   H41238814   6.168   4.267   0.106 -1.3249 -0.1954  0.0551
   92MOL   H41338815   6.451   4.477   0.331  1.1071  1.1629 -2.0740
   92MOL   H41438816   6.305   4.528   0.414  0.8408  2.1891  0.8039
   92MOL   H41538817   6.500   4.699   0.359 -0.1421  0.0273 -0.6533
   92MOL   H41638818   6.427   4.710   0.214  3.4313  2.8998  2.2579
   92MOL   H41738819   6.296   4.777   0.478 -0.9457  1.4010  0.0184
   92MOL   H41838820   6.204   4.784   0.336  0.2939 -0.9506  0.4787
   92MOL   H41938821   6.374   4.966   0.256 -1.0464 -0.6093 -0.4077
   92MOL   H42038822   6.454   4.950   0.414  1.5807 -0.8501 -3.6616
   92MOL   H42138823   6.289   4.999   0.402 -1.0266  0.8371 -3.0263
   92MOL   H42238824   6.147   4.406   0.010  1.5681  0.8732 -0.3573
   93MOL     C138825   3.297   5.171   4.309 -0.6552 -0.0590  0.3761
   93MOL     C238826   3.185   5.099   4.386  0.7365 -0.2259 -0.7406
   93MOL     C338827   3.176   4.959   4.343 -0.3986  1.0377 -0.0621
   93MOL     O438828   3.276   4.887   4.339  0.3679 -0.0159  0.1091
   93MOL     O538829   3.051   4.920   4.310 -0.2884 -0.7266  0.4380
   93MOL     C638830   3.020   4.787   4.293  0.5637  0.6117  0.3470
   93MOL     C738831   3.044   4.733   4.153 -0.3440  0.2139  0.6058
   93MOL     C838832   3.009   4.586   4.124 -0.0455  0.6648  0.8085
   93MOL     C938833   3.012   4.554   3.973  0.1809  0.0907 -0.2122
   93MOL    H1038834   3.298   5.182   4.201 -1.1015  1.2669  0.4941
   93MOL    H1138835   3.313   5.268   4.355  1.5189 -0.1219 -0.2063
   93MOL    H1238836   3.095   5.154   4.357  0.9099  0.6726  0.3728
   93MOL    H1338837   2.916   4.765   4.319  0.9557 -1.5873  0.1855
   93MOL    H1438838   3.064   4.707   4.353  1.5146  0.3686 -0.6636
   93MOL    H1538839   3.000   4.803   4.081 -0.4550 -0.3927  0.0808
   93MOL    H1638840   3.149   4.731   4.122 -0.8856 -1.9242 -1.2050
   93MOL    H1738841   2.912   4.550   4.158  0.9182  0.1452  3.0941
   93MOL    H1838842   3.071   4.508   4.168  0.0710 -0.2676 -0.9830
   93MOL    H1938843   3.010   4.447   3.955  0.6890  0.1644 -0.7277
   93MOL    H2038844   3.107   4.588   3.931 -0.1509 -0.8624 -1.7495
   93MOL    H2138845   2.921   4.593   3.927 -0.7148 -2.0743 -0.3144
   93MOL    H2238846   3.391   5.123   4.335 -0.2400 -0.2537 -1.4119
   93MOL    C2338847   3.189   5.112   4.533 -0.0011  0.0197 -0.0969
   93MOL    C2438848   3.105   5.232   4.597  0.0644 -0.5405  0.0942
   93MOL    C2538849   2.962   5.229   4.539 -0.0639 -0.1512 -0.0063
   93MOL    O2638850   2.924   5.320   4.463 -0.6388  0.7620  0.5138
   93MOL    O2738851   2.880   5.137   4.586 -0.4674  0.1286 -0.1416
   93MOL    C2838852   2.757   5.117   4.529  0.5712 -0.0794  0.0840
   93MOL    C2938853   2.672   5.015   4.605  1.1735 -0.1416  0.4418
   93MOL    C3038854   2.658   5.032   4.753  0.3511 -0.3380  0.3971
   93MOL    C3138855   2.557   4.935   4.824 -0.4375 -0.6446 -0.1113
   93MOL    H3238856   3.294   5.112   4.561  0.3293 -0.8484 -1.2833
   93MOL    H3338857   3.152   5.021   4.581 -4.5872  0.3841 -2.5973
   93MOL    H3438858   3.139   5.322   4.546 -0.5953 -0.1833  0.2856
   93MOL    H3538859   2.759   5.083   4.425  2.1522 -0.9456  0.3837
   93MOL    H3638860   2.711   5.215   4.534  0.5664 -0.0877  0.2005
   93MOL    H3738861   2.573   5.018   4.561  1.9219  1.2258 -1.2205
   93MOL    H3838862   2.717   4.917   4.585  1.6922  0.2519 -0.3413
   93MOL    H3938863   2.616   5.131   4.770 -3.2134 -1.8565  0.8250
   93MOL    H4038864   2.756   5.037   4.802  0.4264  2.5360  0.0065
   93MOL    H4138865   2.537   4.953   4.930  0.0076 -0.6475 -0.0242
   93MOL    H4238866   2.595   4.833   4.812  0.6372 -0.3601  0.7772
   93MOL    H4338867   2.466   4.946   4.765  0.3304 -1.3631 -1.4544
   93MOL    C4438868   3.115   5.237   4.747  0.4307  0.1590 -0.2814
   93MOL    C4538869   3.157   5.360   4.829 -0.3360 -0.6415  0.6506
   93MOL    C4638870   3.094   5.495   4.780  0.4713  0.1373 -0.3191
   93MOL    O4738871   3.152   5.601   4.782  0.2435  0.4177 -0.1703
   93MOL    O4838872   2.960   5.482   4.764  0.6374 -0.1365 -0.4762
   93MOL    C4938873   2.884   5.585   4.706 -0.5801  0.0757  0.7217
   93MOL    C5038874   2.734   5.556   4.714 -1.0490  0.1724 -0.3917
   93MOL    C5138875   2.651   5.662   4.635 -0.5028  0.1174  0.3443
   93MOL    C5238876   2.497   5.655   4.662  0.5647 -0.0770  0.1788
   93MOL    H5338877   3.211   5.188   4.761 -0.2991 -1.1376  0.3004
   93MOL    H5438878   3.039   5.176   4.797 -0.9270 -0.8976 -3.5113
   93MOL    H5538879   3.265   5.364   4.818 -0.4387 -1.9176 -1.2586
   93MOL    H5638880   2.918   5.601   4.603 -0.6092  1.5895  0.9337
   93MOL    H5738881   2.897   5.675   4.766 -0.5609  0.2127  0.5130
   93MOL    H5838882   2.719   5.459   4.667 -0.8343 -0.6217  1.1395
   93MOL    H5938883   2.698   5.529   4.813  0.6223  0.3579  0.2702
   93MOL    H6038884   2.676   5.643   4.531 -2.0037 -2.2654  0.3811
   93MOL    H6138885   2.678   5.765   4.657 -1.6491  0.7819 -1.3183
   93MOL    H6238886   2.444   5.734   4.609  1.9395 -0.3857 -1.7133
   93MOL    H6338887   2.463   5.668   4.765 -0.3139  1.6229 -0.3053
   93MOL    H6438888   2.453   5.564   4.620  1.3906  0.1165 -1.1372
   93MOL    C6538889   3.119   5.335   4.982 -0.2472  0.2731  0.5731
   93MOL    C6638890   3.195   5.218   5.051  0.4968 -0.0213 -0.2227
   93MOL    C6738891   3.345   5.224   5.027 -0.2560 -1.0936  0.3682
   93MOL    O6838892   3.402   5.135   4.969  0.0482 -0.1746  0.5006
   93MOL    O6938893   3.398   5.341   5.067  0.3773  0.1995 -0.1662
   93MOL    C7038894   3.528   5.377   5.026 -0.5641  0.0994 -0.1125
   93MOL    C7138895   3.642   5.313   5.112 -0.5264 -0.1466 -0.5662
   93MOL    C7238896   3.621   5.322   5.262  0.9647 -0.8878 -0.3049
   93MOL    C7338897   3.721   5.231   5.336  0.2814 -1.0559  0.1914
   93MOL    H7438898   3.012   5.322   4.995 -0.3113 -2.6736 -2.1469
   93MOL    H7538899   3.155   5.425   5.033 -0.4765 -0.4268  1.9871
   93MOL    H7638900   3.154   5.124   5.015 -0.1625  0.1642  0.0458
   93MOL    H7738901   3.547   5.485   5.031  1.2556 -0.3172  3.1133
   93MOL    H7838902   3.541   5.351   4.921  1.1746  2.4931 -0.5481
   93MOL    H7938903   3.671   5.212   5.085  0.5280 -0.7259  2.5179
   93MOL    H8038904   3.732   5.366   5.081 -0.8871  0.8544  0.0447
   93MOL    H8138905   3.518   5.293   5.284  0.1195  1.9022 -0.4037
   93MOL    H8238906   3.645   5.422   5.297  4.0475 -1.2319 -1.2916
   93MOL    H8338907   3.696   5.247   5.441  0.8523  0.0347  0.1659
   93MOL    H8438908   3.824   5.264   5.319  0.6240 -0.3778  3.2724
   93MOL    H8538909   3.714   5.127   5.305 -0.8235 -0.6871 -0.8302
   93MOL    C8638910   3.162   5.201   5.205  0.3887  0.4920  0.2060
   93MOL    C8738911   3.011   5.164   5.234 -0.4573  0.0140 -0.4395
   93MOL    C8838912   2.981   5.015   5.210 -0.6422  0.2067  0.3198
   93MOL    O8938913   2.897   4.981   5.128 -0.2396  0.9219 -0.0039
   93MOL    O9038914   3.050   4.916   5.277  0.4607 -1.0029 -0.1050
   93MOL    C9138915   3.022   4.775   5.261 -1.1031  0.4611 -0.1151
   93MOL    C9238916   3.141   4.695   5.304 -0.3817  0.0613 -0.2855
   93MOL    C9338917   3.163   4.698   5.455  0.9645 -0.3761 -0.1272
   93MOL    C9438918   3.280   4.618   5.495 -0.3745 -0.0103  0.1250
   93MOL    H9538919   3.184   5.294   5.257 -2.4620  1.0287  0.5350
   93MOL    H9638920   3.223   5.119   5.243  1.0453  0.3155 -1.1720
   93MOL    H9738921   2.945   5.222   5.168  1.0582  1.6156 -0.5748
   93MOL    H9838922   2.999   4.750   5.157  0.8721 -0.4476 -0.3445
   93MOL    H9938923   2.942   4.745   5.328 -0.7647 -0.3450 -0.0687
   93MOL   H10038924   3.131   4.590   5.275  4.0465 -1.3282  2.6712
   93MOL   H10138925   3.225   4.744   5.255 -1.4935  0.6148 -1.6798
   93MOL   H10238926   3.085   4.644   5.508  0.1128  1.3504  0.4142
   93MOL   H10338927   3.179   4.803   5.481 -2.2545 -0.5032  2.7573
   93MOL   H10438928   3.369   4.652   5.442  0.5761 -2.0837  0.3213
   93MOL   H10538929   3.273   4.512   5.469  0.9579 -0.0833  0.0373
   93MOL   H10638930   3.302   4.631   5.601 -1.7859  0.8855  0.3195
   93MOL   C10738931   2.977   5.199   5.381 -0.0836  0.3143  0.2912
   93MOL   C10838932   2.832   5.242   5.410 -0.6351 -0.0365  0.4330
   93MOL   C10938933   2.783   5.377   5.332 -0.2679 -0.5023 -0.5865
   93MOL   O11038934   2.784   5.485   5.385  0.1463 -0.6500 -0.8067
   93MOL   O11138935   2.742   5.361   5.202 -0.0239  0.4993  0.0084
   93MOL   C11238936   2.702   5.467   5.114  0.0672 -0.2310  0.3024
   93MOL   C11338937   2.548   5.494   5.095  0.7157  0.8853  0.1724
   93MOL   C11438938   2.479   5.554   5.218 -0.0081  0.2501 -0.2654
   93MOL   C11538939   2.343   5.642   5.211 -0.0220 -0.3149  0.3877
   93MOL   H11638940   3.042   5.277   5.419  1.0550  0.1552 -1.2774
   93MOL   H11738941   2.992   5.108   5.437  1.1484  0.2217 -0.1775
   93MOL   H11838942   2.831   5.259   5.518 -2.8761  0.4795  0.3391
   93MOL   H11938943   2.740   5.433   5.018  0.6369 -0.5860  0.6499
   93MOL   H12038944   2.751   5.559   5.144 -0.5923 -0.2629  1.5204
   93MOL   H12138945   2.550   5.575   5.023 -1.5249  1.8425  1.1433
   93MOL   H12238946   2.492   5.405   5.066  1.0196  0.3031  1.3270
   93MOL   H12338947   2.552   5.616   5.270  1.4674 -0.7435 -1.1096
   93MOL   H12438948   2.463   5.464   5.278  2.1779 -1.0247 -1.5148
   93MOL   H12538949   2.370   5.744   5.183  2.0537 -1.0612 -0.4562
   93MOL   H12638950   2.307   5.640   5.314  2.2621 -1.7370  1.1974
   93MOL   H12738951   2.258   5.610   5.151  0.7716 -2.0780  0.1563
   93MOL   C12838952   2.724   5.133   5.400 -0.3175 -0.0980  0.2555
   93MOL   C12938953   2.574   5.178   5.431 -0.3326  0.5402  0.0208
   93MOL   C13038954   2.470   5.132   5.317 -0.2029  0.7028  0.3763
   93MOL   O13138955   2.444   5.208   5.222 -0.1983  0.3040 -0.1039
   93MOL   O13238956   2.432   5.003   5.327  0.4331  0.2673 -0.5921
   93MOL   C13338957   2.355   4.936   5.233  0.1820 -0.1613 -0.5190
   93MOL   C13438958   2.212   4.941   5.281  0.0618 -0.5524  0.4486
   93MOL   C13538959   2.107   4.880   5.188 -0.2188  0.6865 -0.1888
   93MOL   C13638960   1.965   4.900   5.237  0.4472 -1.1961 -0.6354
   93MOL   H13738961   2.756   5.041   5.448 -0.0005 -0.4052 -0.5287
   93MOL   H13838962   2.726   5.101   5.295  1.1860 -1.3373  0.6436
   93MOL   H13938963   2.562   5.286   5.429  3.5487  1.0845  0.6605
   93MOL   H14038964   2.382   4.830   5.232 -1.2614 -0.6005  2.1294
   93MOL   H14138965   2.392   4.982   5.142 -0.2223  2.1203  0.4429
   93MOL   H14238966   2.208   4.899   5.382  3.9159 -4.0862 -0.7049
   93MOL   H14338967   2.187   5.046   5.294 -0.1021 -0.4202 -0.9378
   93MOL   H14438968   2.119   4.773   5.171  2.5367  1.3146 -2.5409
   93MOL   H14538969   2.130   4.938   5.099 -2.4254  1.3663 -0.3577
   93MOL   H14638970   1.882   4.849   5.188 -0.7718 -1.4556  1.6210
   93MOL   H14738971   1.943   5.003   5.265 -1.5016 -1.2322 -1.9198
   93MOL   H14838972   1.954   4.855   5.335  0.0079 -0.2379 -0.2332
   93MOL   C14938973   2.530   5.126   5.569 -0.1458 -0.3037  0.3064
   93MOL   C15038974   2.377   5.158   5.599 -0.2735  0.9318  0.0972
   93MOL   C15138975   2.338   5.095   5.727  0.1036  0.3046  0.2491
   93MOL   O15238976   2.231   5.034   5.726 -0.2728  0.3122 -0.1286
   93MOL   O15338977   2.422   5.122   5.831  0.4077  0.3716 -0.1186
   93MOL   C15438978   2.383   5.073   5.962  0.0538 -0.0207  0.3680
   93MOL   C15538979   2.467   5.134   6.072 -0.5960 -0.7516 -0.6817
   93MOL   C15638980   2.413   5.092   6.208  0.3811  0.4274  0.2482
   93MOL   C15738981   2.305   5.189   6.266 -0.4643 -0.2170 -0.3498
   93MOL   H15838982   2.588   5.164   5.653  0.5456 -0.9066  0.1058
   93MOL   H15938983   2.543   5.018   5.572  0.1729 -0.2788 -0.2286
   93MOL   H16038984   2.325   5.111   5.516 -0.1221  2.4934 -0.9088
   93MOL   H16138985   2.394   4.964   5.959 -0.7582 -0.1151  0.7705
   93MOL   H16238986   2.280   5.104   5.980 -0.8783 -1.0941 -2.6956
   93MOL   H16338987   2.570   5.104   6.051 -0.5114  0.9193 -2.7114
   93MOL   H16438988   2.462   5.242   6.058  1.9473 -0.9279 -3.4153
   93MOL   H16538989   2.502   5.085   6.272  1.4822  0.7385 -1.2209
   93MOL   H16638990   2.373   4.991   6.205 -1.5423  1.1695  0.1512
   93MOL   H16738991   2.344   5.290   6.281 -3.3208  0.7064  1.4883
   93MOL   H16838992   2.264   5.138   6.353  1.9826  0.8875  1.5181
   93MOL   H16938993   2.229   5.194   6.188  0.6672 -1.1334 -1.5340
   93MOL   C17038994   2.343   5.311   5.596 -1.1634 -0.1981  0.1125
   93MOL   C17138995   2.195   5.347   5.583  0.4542  0.5934 -0.0834
   93MOL   C17238996   2.150   5.461   5.675 -0.2618 -0.1841  0.3763
   93MOL   O17338997   2.050   5.448   5.746 -0.4192 -0.7350 -0.4622
   93MOL   O17438998   2.225   5.565   5.670  0.3235 -0.0880  0.5160
   93MOL   C17538999   2.192   5.688   5.738 -0.4602  0.2660 -0.3201
   93MOL   C17639000   2.155   5.798   5.638  0.1631  0.0974 -0.2320
   93MOL   C17739001   2.283   5.822   5.554  0.1952 -0.8739 -0.5756
   93MOL   C17839002   2.242   5.915   5.444 -0.1507 -0.4196 -1.0858
   93MOL   H17939003   2.398   5.360   5.515  1.5755  0.3365  2.2052
   93MOL   H18039004   2.382   5.362   5.684 -2.4887  0.9951  0.0157
   93MOL   H18139005   2.134   5.264   5.619 -1.0272  1.0869 -1.3827
   93MOL   H18239006   2.281   5.722   5.790 -1.7214  0.4725  1.7350
   93MOL   H18339007   2.120   5.676   5.818  0.2066 -0.7481  0.1405
   93MOL   H18439008   2.075   5.767   5.572 -0.0654  1.1361 -0.4477
   93MOL   H18539009   2.138   5.886   5.702  0.0991  0.2772 -0.4957
   93MOL   H18639010   2.335   5.735   5.515 -0.1179 -1.7147  0.8296
   93MOL   H18739011   2.354   5.872   5.619 -1.7455  1.4261 -0.1340
   93MOL   H18839012   2.177   5.988   5.491 -1.1855 -2.3448  0.5524
   93MOL   H18939013   2.180   5.849   5.383  0.4429 -2.9498  0.9587
   93MOL   H19039014   2.327   5.966   5.399 -0.7009 -0.6316 -2.3970
   93MOL   C19139015   2.163   5.377   5.441 -0.4771  0.4438 -0.1152
   93MOL   C19239016   2.015   5.415   5.414 -0.2781  0.0282 -0.3911
   93MOL   C19339017   2.005   5.483   5.277 -0.1853  0.2191  0.1085
   93MOL   O19439018   2.013   5.604   5.263 -0.0189  0.4505  0.2990
   93MOL   O19539019   1.998   5.402   5.174 -0.0392  0.1095  0.0463
   93MOL   C19639020   1.987   5.451   5.046  0.2851 -0.4391  0.1568
   93MOL   C19739021   2.050   5.350   4.940  0.3137  0.3967 -0.1610
   93MOL   C19839022   2.200   5.329   4.970 -0.8033  1.1808  0.4793
   93MOL   C19939023   2.269   5.256   4.857 -0.9944 -0.4179 -0.5941
   93MOL   H20039024   2.211   5.318   5.362 -1.2785  0.7973 -0.8753
   93MOL   H20139025   2.226   5.464   5.425  2.1685 -0.9713  2.3096
   93MOL   H20239026   1.976   5.486   5.487 -1.2005  1.1244 -1.9194
   93MOL   H20339027   2.042   5.544   5.036 -0.6249  0.2128  1.0918
   93MOL   H20439028   1.882   5.475   5.035  0.7901  2.0374  0.4681
   93MOL   H20539029   2.007   5.250   4.939  1.9057 -0.3136 -2.0934
   93MOL   H20639030   2.040   5.394   4.840  0.9651  0.3561 -0.2497
   93MOL   H20739031   2.224   5.276   5.062 -2.7747  0.8725  0.8515
   93MOL   H20839032   2.243   5.429   4.975  2.0856 -0.0310  0.7885
   93MOL   H20939033   2.236   5.294   4.760 -0.3138  0.7824 -0.3730
   93MOL   H21039034   2.238   5.152   4.861 -2.8467  0.1548  0.9465
   93MOL   H21139035   2.378   5.263   4.860 -1.0729  0.6240  0.0633
   93MOL   C21239036   1.928   5.291   5.419 -0.4845  0.3445 -0.6505
   93MOL   C21339037   1.770   5.310   5.417 -0.1744 -0.3808 -0.2809
   93MOL   C21439038   1.701   5.194   5.347 -0.2371 -1.1454 -0.4990
   93MOL   O21539039   1.680   5.087   5.408 -0.1462  0.2052 -0.0935
   93MOL   O21639040   1.682   5.219   5.215  0.0050 -0.1024  0.0571
   93MOL   C21739041   1.654   5.105   5.142 -0.4287 -0.5830 -0.2607
   93MOL   C21839042   1.643   5.134   4.990  0.0270 -0.1504  0.0102
   93MOL   C21939043   1.537   5.247   4.961 -0.8671 -0.0893 -0.3221
   93MOL   C22039044   1.546   5.279   4.820  0.0640  0.1400  0.3007
   93MOL   H22139045   1.949   5.240   5.512  1.7107  1.2090 -0.6301
   93MOL   H22239046   1.958   5.219   5.343 -2.3017 -2.3058  1.0470
   93MOL   H22339047   1.754   5.395   5.351  0.6561 -0.2028 -0.2665
   93MOL   H22439048   1.565   5.054   5.176 -2.2693  1.3266 -2.0510
   93MOL   H22539049   1.732   5.030   5.152  1.0639  0.8941 -0.4031
   93MOL   H22639050   1.740   5.151   4.943 -0.5133 -0.4928 -1.2286
   93MOL   H22739051   1.609   5.044   4.939 -2.2347  0.1978  0.8424
   93MOL   H22839052   1.540   5.335   5.026 -1.0990 -1.0102  0.9602
   93MOL   H22939053   1.436   5.208   4.971 -0.7845 -0.0256  0.8696
   93MOL   H23039054   1.645   5.318   4.797  0.5722 -0.8903  0.6940
   93MOL   H23139055   1.470   5.350   4.787 -1.3635 -1.4438  0.1018
   93MOL   H23239056   1.548   5.195   4.750 -0.2694  0.7683 -0.4685
   93MOL   C23339057   1.721   5.333   5.563  0.1863 -0.4337  0.3587
   93MOL   C23439058   1.643   5.464   5.601  0.6404  0.2464  0.3005
   93MOL   C23539059   1.728   5.581   5.634  0.3969  0.0979  0.0235
   93MOL   O23639060   1.782   5.650   5.550 -0.3816  0.1995  1.0361
   93MOL   O23739061   1.721   5.606   5.766 -0.1044  0.1964 -0.6024
   93MOL   C23839062   1.781   5.721   5.821  0.2034  0.2357 -0.1664
   93MOL   C23939063   1.754   5.731   5.976 -0.0313  0.3217 -1.0610
   93MOL   C24039064   1.810   5.605   6.045  0.0236 -0.1646  0.8572
   93MOL   C24139065   1.772   5.617   6.194 -0.5110 -0.1518  0.0515
   93MOL   H24239066   1.800   5.322   5.637  0.9273  2.0484 -0.0100
   93MOL   H24339067   1.655   5.253   5.595 -1.7908  0.7330 -0.6780
   93MOL   H24439068   1.584   5.446   5.691  2.5679  0.5516  1.6367
   93MOL   H24539069   1.746   5.812   5.772  0.2454  1.0199  1.2372
   93MOL   H24639070   1.889   5.706   5.826  0.1911  0.7990  2.1541
   93MOL   H24739071   1.810   5.813   6.021  1.7612 -1.6756  0.4291
   93MOL   H24839072   1.648   5.747   6.000  0.5303 -1.1183  2.7186
   93MOL   H24939073   1.918   5.594   6.039 -0.1461 -1.0526 -1.2058
   93MOL   H25039074   1.769   5.512   6.006 -1.3652  0.7107  0.2089
   93MOL   H25139075   1.664   5.632   6.200 -0.2011  1.3747  2.9967
   93MOL   H25239076   1.821   5.704   6.236  0.7552 -1.0756  0.5099
   93MOL   H25339077   1.793   5.526   6.250 -0.9263 -0.7464 -0.7454
   93MOL   C25439078   1.540   5.497   5.498 -0.2414 -0.0754 -0.1332
   93MOL   C25539079   1.433   5.385   5.470  0.0121  0.2567  0.2325
   93MOL   C25639080   1.326   5.373   5.576 -0.3137 -0.1039 -0.4793
   93MOL   O25739081   1.316   5.268   5.640  0.3060  0.3770  0.0550
   93MOL   O25839082   1.262   5.488   5.598 -0.7588 -0.2569  0.1425
   93MOL   C25939083   1.197   5.502   5.717 -0.1384  0.2771 -0.0763
   93MOL   C26039084   1.282   5.569   5.818 -0.2373  0.1765 -0.6255
   93MOL   C26139085   1.310   5.713   5.785 -0.1401 -0.5227 -0.0352
   93MOL   C26239086   1.374   5.780   5.902  0.0499  0.0038 -0.0541
   93MOL   H26339087   1.603   5.533   5.417  2.0015 -0.6914  1.2911
   93MOL   H26439088   1.491   5.586   5.537  0.6782 -0.0091  0.8720
   93MOL   H26539089   1.486   5.289   5.469 -0.2911  0.0932 -0.4300
   93MOL   H26639090   1.175   5.404   5.761  0.9794  0.2200  0.3713
   93MOL   H26739091   1.113   5.563   5.685  0.2837  0.4291 -0.8933
   93MOL   H26839092   1.217   5.572   5.905 -0.1700 -0.9943 -0.5154
   93MOL   H26939093   1.365   5.503   5.846 -0.1867 -0.5897 -2.4649
   93MOL   H27039094   1.216   5.764   5.760  0.9215  1.3397 -0.2886
   93MOL   H27139095   1.372   5.720   5.696 -0.9913 -3.1291 -0.8740
   93MOL   H27239096   1.454   5.718   5.942  1.2293  2.1039  0.9496
   93MOL   H27339097   1.297   5.789   5.979 -0.2477 -1.9059 -0.1211
   93MOL   H27439098   1.407   5.883   5.888  2.3022 -0.4053  1.9738
   93MOL   C27539099   1.368   5.415   5.330 -0.1556  0.2923  0.0958
   93MOL   C27639100   1.255   5.333   5.270 -0.3481  0.5308 -0.2532
   93MOL   C27739101   1.239   5.380   5.126 -0.9800  0.4034  0.6870
   93MOL   O27839102   1.281   5.490   5.094 -0.0525 -0.2841 -0.0172
   93MOL   O27939103   1.178   5.303   5.038 -0.1491 -0.3451 -0.3147
   93MOL   C28039104   1.136   5.343   4.912  0.2674  0.9101  0.0286
   93MOL   C28139105   1.044   5.235   4.853 -0.4938  0.5538 -0.7459
   93MOL   C28239106   1.037   5.250   4.701  0.2733 -0.1614 -0.1937
   93MOL   C28339107   0.899   5.220   4.645  0.7507 -0.2528  0.6644
   93MOL   H28439108   1.454   5.416   5.263  0.3766  2.1614  0.7530
   93MOL   H28539109   1.327   5.516   5.333 -1.8110 -0.2730 -1.9956
   93MOL   H28639110   1.162   5.335   5.326  0.0964 -1.0310  0.5824
   93MOL   H28739111   1.234   5.340   4.864 -0.6977  1.1423 -2.0451
   93MOL   H28839112   1.083   5.438   4.917 -0.6017  0.4018  0.7900
   93MOL   H28939113   1.080   5.136   4.878 -0.4572  0.3825 -1.4911
   93MOL   H29039114   0.945   5.238   4.898  0.2963  3.0677  0.9252
   93MOL   H29139115   1.099   5.180   4.644  0.0555  0.6555 -1.4636
   93MOL   H29239116   1.052   5.356   4.680 -0.8760 -0.1936 -1.2548
   93MOL   H29339117   0.891   5.170   4.548  0.5604 -0.4388  0.7747
   93MOL   H29439118   0.832   5.304   4.656 -0.3618 -0.7317 -1.9383
   93MOL   H29539119   0.861   5.138   4.705  1.5389 -0.8645  0.3383
   93MOL   C29639120   1.297   5.183   5.273 -1.1867  1.1161 -0.1084
   93MOL   C29739121   1.195   5.070   5.259 -0.0334  0.1314 -0.3256
   93MOL   C29839122   1.263   4.944   5.205 -0.0384  0.3030 -0.3086
   93MOL   O29939123   1.381   4.914   5.229 -0.5420 -1.1703 -0.0325
   93MOL   O30039124   1.180   4.861   5.140 -0.1944  0.2752  0.3029
   93MOL   C30139125   1.219   4.744   5.072 -0.7013 -0.1873  0.0461
   93MOL   C30239126   1.153   4.624   5.148  0.2746 -0.3680 -0.0145
   93MOL   C30339127   1.206   4.489   5.101  0.3337  0.2795  0.7695
   93MOL   C30439128   1.147   4.373   5.180 -0.0939  0.6503 -0.1939
   93MOL   H30539129   1.326   5.165   5.376 -1.6882 -3.1675 -0.6180
   93MOL   H30639130   1.386   5.158   5.214 -0.2493  0.7382  1.4336
   93MOL   H30739131   1.127   5.101   5.180  1.3236 -1.9020 -2.3215
   93MOL   H30839132   1.325   4.722   5.065 -1.0794 -2.5160  1.2292
   93MOL   H30939133   1.189   4.752   4.967  0.0653 -0.6336 -0.2118
   93MOL   H31039134   1.171   4.632   5.255 -0.3263 -1.1922  0.1494
   93MOL   H31139135   1.046   4.638   5.136  0.3961  2.2414  1.5060
   93MOL   H31239136   1.313   4.492   5.120  0.1368  1.6054  1.7640
   93MOL   H31339137   1.185   4.473   4.995  0.8665 -0.0571  0.7166
   93MOL   H31439138   1.040   4.354   5.171  0.2731 -1.8281  0.3317
   93MOL   H31539139   1.166   4.388   5.287 -0.8323 -1.0416  0.1943
   93MOL   H31639140   1.186   4.276   5.148 -0.9798  0.5481 -0.9764
   93MOL   C31739141   1.108   5.051   5.391 -0.0770 -0.1070 -0.6269
   93MOL   C31839142   1.000   4.942   5.391 -0.2362  0.1041  0.8792
   93MOL   C31939143   1.017   4.841   5.507  0.4015  0.0107  0.7358
   93MOL   O32039144   0.927   4.826   5.587  0.1226  0.2366 -0.6177
   93MOL   O32139145   1.136   4.778   5.495 -0.5813 -0.5458  0.1286
   93MOL   C32239146   1.171   4.682   5.590 -0.2417 -0.5018  0.1411
   93MOL   C32339147   1.267   4.570   5.540  0.3724  0.0183 -0.1828
   93MOL   C32439148   1.389   4.628   5.476 -0.0390  0.5106 -0.5091
   93MOL   C32539149   1.484   4.518   5.425 -0.4275 -0.6304 -0.1978
   93MOL   H32639150   1.057   5.145   5.412  1.1478  0.1792  1.2091
   93MOL   H32739151   1.179   5.038   5.473 -0.5971  0.9157 -0.0080
   93MOL   H32839152   1.018   4.874   5.309  1.0697  0.3203  0.9656
   93MOL   H32939153   1.085   4.630   5.633 -0.3384 -0.5649 -0.1270
   93MOL   H33039154   1.221   4.724   5.677 -0.3597  1.4551 -0.7113
   93MOL   H33139155   1.284   4.493   5.616 -1.0262 -0.1510 -0.0310
   93MOL   H33239156   1.204   4.521   5.466 -0.7580  0.1307  0.6899
   93MOL   H33339157   1.438   4.685   5.556 -1.9119 -1.0241  1.7751
   93MOL   H33439158   1.370   4.703   5.399  0.7401  1.5046  0.2505
   93MOL   H33539159   1.569   4.561   5.372  0.6173 -1.9640  0.3803
   93MOL   H33639160   1.427   4.471   5.345 -2.7197  0.2025  0.8843
   93MOL   H33739161   1.518   4.440   5.493 -1.5421 -1.0422 -0.1020
   93MOL   C33839162   0.850   4.986   5.371  0.5352 -0.0357 -0.1364
   93MOL   C33939163   0.820   5.067   5.238  0.4181  0.7691  0.2777
   93MOL   C34039164   0.834   4.972   5.114 -0.1608  0.2422 -0.2948
   93MOL   O34139165   0.915   4.995   5.016  0.0780 -0.0394 -0.1385
   93MOL   O34239166   0.750   4.868   5.123  0.1589 -0.4456  0.3584
   93MOL   C34339167   0.739   4.774   5.013 -0.2438  0.1017 -0.0564
   93MOL   C34439168   0.589   4.770   4.996  0.9533  0.1161  0.1675
   93MOL   C34539169   0.511   4.898   4.967  1.0342 -0.1325  0.0277
   93MOL   C34639170   0.357   4.869   4.950 -0.1053 -0.1890 -0.0345
   93MOL   H34739171   0.821   5.042   5.460  0.1701  0.3415 -0.4852
   93MOL   H34839172   0.780   4.903   5.365 -0.4213  0.6417  1.3881
   93MOL   H34939173   0.894   5.147   5.238  0.7275  0.5030  1.4883
   93MOL   H35039174   0.789   4.680   5.036 -1.6256 -1.0579 -1.6660
   93MOL   H35139175   0.781   4.816   4.922 -0.0288  0.4756  0.2149
   93MOL   H35239176   0.576   4.695   4.919  1.4755  0.4447 -0.2499
   93MOL   H35339177   0.555   4.727   5.090  0.5404  0.6838  0.2814
   93MOL   H35439178   0.558   4.950   4.883 -1.2546  2.0537  0.0433
   93MOL   H35539179   0.517   4.966   5.051 -0.7289 -0.0532  0.0934
   93MOL   H35639180   0.309   4.962   4.921  1.6832  0.5603 -0.6116
   93MOL   H35739181   0.302   4.843   5.041 -1.0504 -1.1012 -0.8507
   93MOL   H35839182   0.320   4.796   4.878 -2.8584 -0.4211  1.5122
   93MOL   C35939183   0.689   5.146   5.245  0.3031 -0.6144 -0.3537
   93MOL   C36039184   0.710   5.289   5.181  0.4772 -0.2061  0.0032
   93MOL   C36139185   0.575   5.340   5.124  0.0112  0.7083 -0.0631
   93MOL   O36239186   0.489   5.372   5.204  0.0629 -0.5126 -0.0783
   93MOL   O36339187   0.565   5.348   4.994 -0.3638 -0.2872 -0.0062
   93MOL   C36439188   0.438   5.367   4.944  0.1846 -0.1377  0.2170
   93MOL   C36539189   0.454   5.370   4.790 -0.1912 -0.1562 -0.4450
   93MOL   C36639190   0.490   5.236   4.727  0.6144  0.1325 -0.0654
   93MOL   C36739191   0.509   5.242   4.576  0.0538  0.1273 -0.2431
   93MOL   H36839192   0.653   5.161   5.347  0.4970 -1.9410 -0.0820
   93MOL   H36939193   0.619   5.089   5.183 -1.2056  1.4788 -0.6447
   93MOL   H37039194   0.781   5.265   5.102  0.7556 -0.3245  0.2863
   93MOL   H37139195   0.401   5.464   4.976  1.1301  0.3563 -0.1609
   93MOL   H37239196   0.363   5.295   4.975 -1.4667  1.5566  0.1981
   93MOL   H37339197   0.364   5.407   4.739  0.7327  1.2558 -1.0887
   93MOL   H37439198   0.532   5.441   4.764  0.5416  0.3449  2.9679
   93MOL   H37539199   0.410   5.163   4.737  1.4948 -0.7562  0.6371
   93MOL   H37639200   0.583   5.200   4.773 -1.1451 -2.4377  1.5766
   93MOL   H37739201   0.539   5.148   4.528  1.6499  1.0555 -1.1120
   93MOL   H37839202   0.587   5.312   4.546  0.0845  0.1741 -0.0558
   93MOL   H37939203   0.412   5.250   4.527  0.6355  0.9628 -1.2769
   93MOL   C38039204   0.773   5.391   5.276  0.0854  0.1362  0.0408
   93MOL   C38139205   0.865   5.498   5.212 -0.0628  0.7617 -0.0028
   93MOL   C38239206   0.809   5.553   5.077  0.3374 -0.2542 -0.4819
   93MOL   O38339207   0.850   5.519   4.973 -0.0532 -0.1194  0.0638
   93MOL   O38439208   0.709   5.641   5.097  0.3790 -0.3752  0.5291
   93MOL   C38539209   0.644   5.701   4.986  0.5493  0.3228  0.2200
   93MOL   C38639210   0.522   5.777   5.041 -0.2189  0.3087  0.2210
   93MOL   C38739211   0.563   5.910   5.097  0.0736 -0.6446  0.1419
   93MOL   C38839212   0.463   5.959   5.195  0.7153 -0.4283 -0.0935
   93MOL   H38939213   0.821   5.339   5.359 -1.1012 -0.1240  0.5826
   93MOL   H39039214   0.698   5.448   5.330 -3.5589 -2.4020 -2.0638
   93MOL   H39139215   0.958   5.443   5.198 -0.9995 -1.3760  1.8137
   93MOL   H39239216   0.605   5.617   4.928 -2.5502  1.1166  1.0573
   93MOL   H39339217   0.709   5.758   4.921  2.4875  0.1179  1.9375
   93MOL   H39439218   0.445   5.805   4.970 -0.3003  2.8879  1.2799
   93MOL   H39539219   0.465   5.716   5.111  1.4241 -0.8620  0.5802
   93MOL   H39639220   0.578   5.986   5.020 -2.1862  1.1566  1.4103
   93MOL   H39739221   0.659   5.891   5.145  0.5312 -0.8265 -0.8265
   93MOL   H39839222   0.508   6.042   5.251  1.5486  1.2809 -3.1546
   93MOL   H39939223   0.443   5.877   5.263  0.6071 -0.6327 -0.3724
   93MOL   H40039224   0.370   5.991   5.146 -0.6183 -2.3562  1.1465
   93MOL   C40139225   0.891   5.610   5.313  0.0533  0.4464  0.1859
   93MOL   C40239226   1.005   5.700   5.273 -0.3829 -0.1496 -0.4283
   93MOL   C40339227   1.102   5.747   5.387  0.1513 -0.0626 -0.7992
   93MOL   O40439228   1.067   5.730   5.508  0.1271  0.2478  0.2167
   93MOL   O40539229   1.218   5.803   5.330  0.0943 -0.2186 -0.0317
   93MOL   C40639230   1.324   5.842   5.411 -0.1445  0.1832 -0.4182
   93MOL   C40739231   1.307   5.981   5.462  0.2712 -0.5282  0.1855
   93MOL   C40839232   1.430   6.027   5.529 -0.1941 -0.0344 -0.0977
   93MOL   C40939233   1.406   6.163   5.602 -0.4657  0.2066  0.9062
   93MOL   H41039234   0.906   5.564   5.411  0.8728 -0.7635 -0.4990
   93MOL   H41139235   0.803   5.671   5.329 -0.0384  0.2854  0.2987
   93MOL   H41239236   0.974   5.786   5.213 -1.4943 -1.2996 -1.5600
   93MOL   H41339237   1.416   5.820   5.357  0.9315  0.8042  1.1091
   93MOL   H41439238   1.334   5.774   5.496  2.5160  2.7044  1.3862
   93MOL   H41539239   1.279   6.049   5.382  2.0383  0.2457  0.2134
   93MOL   H41639240   1.218   5.990   5.525 -0.7471  0.4128 -1.3464
   93MOL   H41739241   1.517   6.023   5.463 -0.7204 -1.6960 -0.7169
   93MOL   H41839242   1.454   5.960   5.612 -2.3508 -0.0018  0.5847
   93MOL   H41939243   1.499   6.194   5.650 -0.5004  1.9760 -0.1441
   93MOL   H42039244   1.334   6.166   5.684 -0.9944  3.2448  0.3925
   93MOL   H42139245   1.376   6.237   5.529 -0.5782 -0.1759  0.5640
   93MOL   H42239246   1.075   5.645   5.210 -0.3752  0.3887 -0.8877
   94MOL     C139247   0.601   5.083   2.156 -0.3230 -0.4456  0.1750
   94MOL     C239248   0.739   5.130   2.106 -0.1518  0.7004  0.4848
   94MOL     C339249   0.834   5.145   2.223 -0.1910 -0.1228 -0.1186
   94MOL     O439250   0.916   5.058   2.253  0.4716 -0.4356 -0.2558
   94MOL     O539251   0.831   5.264   2.278  0.1403 -0.5866  0.2025
   94MOL     C639252   0.921   5.307   2.381  0.5899 -0.1630 -0.2864
   94MOL     C739253   1.010   5.422   2.338 -0.3280  0.5562 -0.3180
   94MOL     C839254   1.144   5.370   2.283 -0.3376 -0.0906  0.6348
   94MOL     C939255   1.219   5.489   2.226  0.1045  0.4461 -0.8754
   94MOL    H1039256   0.600   4.978   2.182 -2.2874 -0.5119 -0.1062
   94MOL    H1139257   0.575   5.141   2.245 -1.3707 -0.3830 -0.1612
   94MOL    H1239258   0.717   5.230   2.069  2.3620  0.3118 -2.2836
   94MOL    H1339259   0.989   5.228   2.414  2.0470  0.1904 -2.2803
   94MOL    H1439260   0.872   5.341   2.472  2.7203  1.9947  0.1294
   94MOL    H1539261   0.960   5.483   2.262 -0.3824  0.4875 -0.3376
   94MOL    H1639262   1.032   5.479   2.428  0.9207  0.5984 -0.6483
   94MOL    H1739263   1.144   5.294   2.204  2.2239  0.3381  0.1961
   94MOL    H1839264   1.202   5.327   2.365 -0.0670  0.0716  0.5288
   94MOL    H1939265   1.231   5.566   2.302 -1.2078 -0.5381  0.3576
   94MOL    H2039266   1.168   5.519   2.135 -1.0718  0.9647 -0.0571
   94MOL    H2139267   1.317   5.455   2.193  0.6405 -0.4484  1.5541
   94MOL    H2239268   0.528   5.100   2.076  0.9775 -3.0532 -1.6277
   94MOL    C2339269   0.797   5.051   1.988  0.5548  0.4127 -0.3196
   94MOL    C2439270   0.734   5.082   1.851  0.1883 -0.1289 -0.1330
   94MOL    C2539271   0.755   5.229   1.799  0.2490  0.8030  0.5218
   94MOL    O2639272   0.664   5.300   1.753 -0.6515  0.7223 -0.0569
   94MOL    O2739273   0.887   5.273   1.820 -0.3840  0.4614 -0.0255
   94MOL    C2839274   0.913   5.419   1.811  0.2179  0.8065  0.4630
   94MOL    C2939275   0.891   5.482   1.949 -0.3501  0.3008 -0.2547
   94MOL    C3039276   0.882   5.633   1.949  0.0834  0.1673  0.1740
   94MOL    C3139277   0.846   5.694   2.090 -0.0497  0.1300 -0.1688
   94MOL    H3239278   0.798   4.943   2.005 -1.3451  0.4609  0.2359
   94MOL    H3339279   0.902   5.078   1.996  0.8147 -0.5836 -0.2979
   94MOL    H3439280   0.626   5.081   1.868  0.2171 -2.3439  0.0694
   94MOL    H3539281   0.864   5.465   1.725  0.0126  0.4448  0.3824
   94MOL    H3639282   1.015   5.432   1.775 -0.2722  0.9898 -0.8648
   94MOL    H3739283   0.798   5.441   1.988 -0.0440 -0.1365  0.0311
   94MOL    H3839284   0.973   5.449   2.014  0.4643 -0.1877 -1.5209
   94MOL    H3939285   0.808   5.669   1.878 -2.2490  0.3516  2.6028
   94MOL    H4039286   0.976   5.671   1.909 -0.2919  1.3656  0.3899
   94MOL    H4139287   0.933   5.726   2.147 -1.2040 -0.7644  2.1843
   94MOL    H4239288   0.783   5.626   2.147 -1.8870  1.2976 -0.7661
   94MOL    H4339289   0.780   5.780   2.080  0.3901  0.4970  0.0698
   94MOL    C4439290   0.777   4.978   1.748  0.2629  0.8596 -0.4177
   94MOL    C4539291   0.716   4.988   1.607  0.4620  0.7909  0.4111
   94MOL    C4639292   0.816   5.036   1.495  0.2489  0.3949 -0.2627
   94MOL    O4739293   0.926   5.074   1.527 -0.1373 -0.2871  0.3086
   94MOL    O4839294   0.763   5.040   1.365  0.3763 -0.1538  0.2964
   94MOL    C4939295   0.835   5.115   1.266 -0.0827  0.5461  0.7138
   94MOL    C5039296   0.758   5.103   1.132 -0.3224  0.1542 -0.4148
   94MOL    C5139297   0.851   5.155   1.021  0.0180  1.0630 -0.2705
   94MOL    C5239298   0.851   5.308   0.997  1.2288 -0.7622 -0.0517
   94MOL    H5339299   0.746   4.881   1.785 -0.7915  1.7720  1.1668
   94MOL    H5439300   0.886   4.977   1.745  0.2266  1.0325 -1.8759
   94MOL    H5539301   0.638   5.064   1.608 -0.0792  0.2278  1.3344
   94MOL    H5639302   0.937   5.075   1.268 -0.3639 -0.1525  3.0942
   94MOL    H5739303   0.842   5.222   1.284 -0.7917  0.7419 -0.1427
   94MOL    H5839304   0.746   4.997   1.111 -0.0671 -0.2291  1.2449
   94MOL    H5939305   0.662   5.154   1.137  0.3535  1.5388 -1.0766
   94MOL    H6039306   0.815   5.102   0.932  1.3002 -0.5335  0.1364
   94MOL    H6139307   0.953   5.120   1.033 -0.1873 -0.7895 -3.3303
   94MOL    H6239308   0.876   5.375   1.080  1.4338  1.2224 -1.6778
   94MOL    H6339309   0.749   5.329   0.966  0.9196 -1.6944  0.3085
   94MOL    H6439310   0.924   5.332   0.920  0.5604 -0.4612 -0.6010
   94MOL    C6539311   0.641   4.860   1.564  0.2107  0.4459 -0.2447
   94MOL    C6639312   0.523   4.825   1.657  0.1212 -0.4241 -0.1332
   94MOL    C6739313   0.419   4.937   1.651 -0.3252 -0.1010 -0.1656
   94MOL    O6839314   0.394   4.992   1.757  0.6529 -0.1124  0.1780
   94MOL    O6939315   0.373   4.964   1.527  1.3793  0.3927 -0.4539
   94MOL    C7039316   0.282   5.078   1.516 -0.9850  0.0215  1.1640
   94MOL    C7139317   0.316   5.166   1.395 -0.2678 -0.0321 -0.0862
   94MOL    C7239318   0.285   5.093   1.263  0.3616 -0.1601  0.2899
   94MOL    C7339319   0.303   5.180   1.134  0.1468 -0.1617 -0.1723
   94MOL    H7439320   0.717   4.781   1.568  0.0198  0.2593 -0.3039
   94MOL    H7539321   0.605   4.861   1.461 -0.8230 -2.8124  0.0171
   94MOL    H7639322   0.555   4.822   1.761  1.7905  0.6922 -0.5851
   94MOL    H7739323   0.285   5.142   1.605 -1.4067 -0.0831  1.2557
   94MOL    H7839324   0.183   5.032   1.525 -1.1349  0.1663  0.2886
   94MOL    H7939325   0.245   5.248   1.400 -0.6453 -0.2851 -1.0083
   94MOL    H8039326   0.417   5.205   1.403  0.5362 -2.0987  0.1440
   94MOL    H8139327   0.176   5.082   1.266  0.4525 -1.6082 -0.9132
   94MOL    H8239328   0.331   4.994   1.259 -3.0536 -1.8187  0.1933
   94MOL    H8339329   0.221   5.251   1.135 -0.7670 -1.2099  2.4324
   94MOL    H8439330   0.303   5.111   1.049 -0.7300 -0.6378  0.2094
   94MOL    H8539331   0.401   5.229   1.135 -0.8684  1.9038  0.5802
   94MOL    C8639332   0.465   4.694   1.612 -0.0881  1.1714  0.1417
   94MOL    C8739333   0.358   4.638   1.708  0.1723 -0.5285  0.0101
   94MOL    C8839334   0.261   4.549   1.634  0.2774 -0.2086 -0.6715
   94MOL    O8939335   0.293   4.492   1.531  0.2575 -0.3999 -0.1000
   94MOL    O9039336   0.148   4.536   1.699  0.4848 -0.2999  0.5307
   94MOL    C9139337   0.032   4.473   1.648  1.0093  0.3332  0.8704
   94MOL    C9239338   7.843   4.345   1.730  0.3637 -0.1042  0.3498
   94MOL    C9339339   7.785   4.387   1.870  0.4974  0.5305  0.5016
   94MOL    C9439340   7.726   4.270   1.959 -0.0209 -0.5179 -0.2441
   94MOL    H9539341   0.551   4.629   1.595 -1.0629  0.0185 -0.4868
   94MOL    H9639342   0.423   4.704   1.512 -0.7919  0.6585  0.3839
   94MOL    H9739343   0.293   4.720   1.738  0.9544  0.4829 -1.0014
   94MOL    H9839344   0.049   4.445   1.543  2.1105  2.2672  0.5172
   94MOL    H9939345   7.802   4.544   1.650 -0.1567 -0.9811  0.4352
   94MOL   H10039346   7.765   4.289   1.680 -2.4129  0.8167  3.4172
   94MOL   H10139347   0.078   4.281   1.726 -0.4049 -1.0929 -1.2610
   94MOL   H10239348   7.715   4.470   1.858  0.3479  0.4352  0.7080
   94MOL   H10339349   0.019   4.422   1.924  0.6487  1.3824 -0.2796
   94MOL   H10439350   7.634   4.225   1.921  0.5135 -0.4267 -1.6891
   94MOL   H10539351   7.700   4.308   2.058 -1.5034 -1.9125 -0.0905
   94MOL   H10639352   7.789   4.184   1.981 -1.9330 -1.8085  0.3361
   94MOL   C10739353   0.423   4.552   1.823 -0.2448 -0.4784 -0.7078
   94MOL   C10839354   0.510   4.627   1.926 -0.0365  0.0965 -0.1578
   94MOL   C10939355   0.434   4.744   1.993 -0.5549 -0.6145 -0.0777
   94MOL   O11039356   0.491   4.855   1.992 -0.6799 -0.3828  0.2810
   94MOL   O11139357   0.315   4.720   2.054 -0.1735  0.1953 -0.5287
   94MOL   C11239358   0.243   4.814   2.137 -0.1381  0.1292 -0.1775
   94MOL   C11339359   0.100   4.813   2.112 -0.6158 -0.6833 -0.5095
   94MOL   C11439360   0.022   4.684   2.156  0.5652  0.0546  0.1663
   94MOL   C11539361   7.732   4.670   2.118  0.1328  0.2039  0.2669
   94MOL   H11639362   0.477   4.477   1.766  1.0031  0.1949 -0.4169
   94MOL   H11739363   0.346   4.506   1.886 -0.8434  1.1074 -0.2442
   94MOL   H11839364   0.598   4.666   1.875 -0.2138  0.2339 -0.3603
   94MOL   H11939365   0.272   4.919   2.123  0.6344 -0.2892 -1.8093
   94MOL   H12039366   0.258   4.791   2.242  1.5231  0.5951 -0.2943
   94MOL   H12139367   0.053   4.903   2.153 -1.2673 -1.2227 -0.0506
   94MOL   H12239368   0.092   4.814   2.004  1.2750 -1.9288 -0.6796
   94MOL   H12339369   0.039   4.666   2.262 -0.2456 -0.7102  0.1709
   94MOL   H12439370   0.068   4.600   2.104 -1.9188 -2.2322  1.5587
   94MOL   H12539371   7.684   4.574   2.138 -0.0180  0.1397 -0.3730
   94MOL   H12639372   7.713   4.712   2.019  0.7331  1.1742  0.5651
   94MOL   H12739373   7.683   4.742   2.183 -1.3554  1.0932 -1.7711
   94MOL   C12839374   0.572   4.531   2.022 -0.0580 -0.2575  0.0395
   94MOL   C12939375   0.673   4.605   2.117 -0.1147  0.6460 -0.2094
   94MOL   C13039376   0.606   4.645   2.248  0.5390  0.5358 -0.1429
   94MOL   O13139377   0.493   4.608   2.278  0.5475 -0.4350 -0.4624
   94MOL   O13239378   0.691   4.716   2.329 -0.0412 -0.2842 -0.6368
   94MOL   C13339379   0.653   4.766   2.463 -0.1382 -0.5062 -0.0182
   94MOL   C13439380   0.639   4.923   2.467  0.0101  0.2188 -0.1769
   94MOL   C13539381   0.632   4.981   2.612  0.7003  0.8258  0.1786
   94MOL   C13639382   0.664   5.129   2.621  0.0852 -0.1705  0.1167
   94MOL   H13739383   0.630   4.460   1.963  0.2533  0.1108 -0.1079
   94MOL   H13839384   0.511   4.464   2.081  0.6108  0.3666  1.4598
   94MOL   H13939385   0.708   4.702   2.081 -0.0046  1.3108  1.6295
   94MOL   H14039386   0.732   4.739   2.533  1.6950 -0.5701 -2.0940
   94MOL   H14139387   0.564   4.719   2.505  0.2126 -1.7358 -0.6344
   94MOL   H14239388   0.720   4.966   2.409 -0.0830  2.1889  1.1143
   94MOL   H14339389   0.554   4.958   2.408 -0.7742 -0.8978  0.2776
   94MOL   H14439390   0.711   4.922   2.658 -0.6092  0.0271  1.4388
   94MOL   H14539391   0.540   4.949   2.660  0.4280  1.1006 -0.1516
   94MOL   H14639392   0.592   5.199   2.579  0.6152  0.5969  0.4675
   94MOL   H14739393   0.761   5.155   2.578 -0.7434 -0.4134 -1.9719
   94MOL   H14839394   0.659   5.151   2.728  3.9105 -2.2186  0.8268
   94MOL   C14939395   0.806   4.520   2.128  0.0241  0.8556  0.1262
   94MOL   C15039396   0.794   4.384   2.212 -0.3821 -0.3723  0.6806
   94MOL   C15139397   0.722   4.272   2.142  1.0397  0.4382 -1.0443
   94MOL   O15239398   0.619   4.230   2.191  0.0312  0.0562 -0.5897
   94MOL   O15339399   0.773   4.229   2.031  0.2257 -0.2841  0.1879
   94MOL   C15439400   0.690   4.150   1.946 -0.4498 -0.0190  0.3695
   94MOL   C15539401   0.583   4.227   1.869  0.3542 -0.4881 -0.4431
   94MOL   C15639402   0.506   4.125   1.782 -0.2608 -0.1094 -0.0548
   94MOL   C15739403   0.398   4.184   1.696  0.7781 -0.1316 -0.0017
   94MOL   H15839404   0.878   4.583   2.181  1.1855 -1.8209  1.8370
   94MOL   H15939405   0.849   4.510   2.029 -0.7711  1.2366 -0.2627
   94MOL   H16039406   0.733   4.402   2.300 -1.4873  2.2738 -0.5850
   94MOL   H16139407   0.645   4.067   2.003  0.0598 -1.5463 -1.4021
   94MOL   H16239408   0.767   4.113   1.878 -0.5263  0.6549 -0.0845
   94MOL   H16339409   0.517   4.277   1.940  1.1612  0.9788 -0.6930
   94MOL   H16439410   0.626   4.298   1.799  1.3689 -0.9711 -0.3192
   94MOL   H16539411   0.470   4.052   1.855 -0.8357  0.7279  0.5057
   94MOL   H16639412   0.564   4.054   1.723 -2.1997 -0.5354 -1.4682
   94MOL   H16739413   0.440   4.267   1.639  1.0302 -0.0693  0.2750
   94MOL   H16839414   0.305   4.226   1.736 -0.2282  1.3816 -3.7012
   94MOL   H16939415   0.364   4.103   1.631 -0.5045  0.7237 -0.4236
   94MOL   C17039416   0.935   4.340   2.256  0.6770  0.1747 -0.1485
   94MOL   C17139417   0.987   4.424   2.381  0.2277  0.0492  0.4419
   94MOL   C17239418   0.905   4.386   2.508 -0.0557  0.7488 -0.3382
   94MOL   O17339419   0.825   4.461   2.568 -0.2685 -0.1282  0.5083
   94MOL   O17439420   0.924   4.262   2.548 -0.6242 -0.1054  0.3329
   94MOL   C17539421   0.861   4.219   2.669  0.6829 -0.4888 -0.0882
   94MOL   C17639422   0.961   4.230   2.784 -0.5615  0.6515 -0.0164
   94MOL   C17739423   1.088   4.147   2.773 -0.1156  1.2742  0.5336
   94MOL   C17839424   1.196   4.206   2.858  0.0888 -0.1565  0.2333
   94MOL   H17939425   0.998   4.358   2.169 -0.0064 -1.2291 -0.9569
   94MOL   H18039426   0.940   4.238   2.295  1.2691  0.6955  1.1552
   94MOL   H18139427   0.961   4.526   2.352  1.1764 -0.2513 -1.5502
   94MOL   H18239428   0.855   4.112   2.648 -0.4709 -0.2828 -0.8377
   94MOL   H18339429   0.760   4.259   2.681  0.7071 -0.6805  0.7968
   94MOL   H18439430   0.978   4.333   2.814  1.0354 -0.3899  2.8170
   94MOL   H18539431   0.907   4.200   2.874 -2.6582 -0.9299 -1.7357
   94MOL   H18639432   1.126   4.147   2.671  1.0131 -0.5619  0.9355
   94MOL   H18739433   1.056   4.044   2.789  1.2174  0.3457 -2.3980
   94MOL   H18839434   1.185   4.184   2.964  3.2427 -0.9463  0.4652
   94MOL   H18939435   1.210   4.312   2.832  2.8356 -0.7675 -1.0024
   94MOL   H19039436   1.285   4.151   2.829  2.2354  1.2653  3.8167
   94MOL   C19139437   1.137   4.413   2.406  0.6226  0.0236 -0.0117
   94MOL   C19239438   1.230   4.449   2.288 -0.5872 -0.6560 -0.1021
   94MOL   C19339439   1.197   4.592   2.240  0.8139 -0.9889  0.1069
   94MOL   O19439440   1.168   4.603   2.120 -0.3595 -0.0180 -0.2141
   94MOL   O19539441   1.209   4.693   2.337  0.1322  0.3269  0.1030
   94MOL   C19639442   1.203   4.827   2.299 -0.1472 -0.4198 -0.4060
   94MOL   C19739443   1.337   4.873   2.243  0.3559 -1.0286  0.6624
   94MOL   C19839444   1.344   5.025   2.244 -0.4854  0.6555  0.2403
   94MOL   C19939445   1.477   5.085   2.205 -0.4331 -0.0983 -0.1681
   94MOL   H20039446   1.153   4.308   2.431  2.8608  0.3313 -0.0797
   94MOL   H20139447   1.144   4.477   2.494 -0.1354  1.6400 -1.1031
   94MOL   H20239448   1.214   4.379   2.206  0.1205 -1.5657  0.5288
   94MOL   H20339449   1.174   4.880   2.391 -1.3569 -0.0337 -0.9931
   94MOL   H20439450   1.116   4.848   2.236 -1.2416 -1.9498  0.5524
   94MOL   H20539451   1.412   4.831   2.309  0.9527  1.4505  1.6221
   94MOL   H20639452   1.357   4.827   2.146  0.4784 -1.2681  0.8015
   94MOL   H20739453   1.316   5.053   2.345 -0.9530  0.5028  0.1558
   94MOL   H20839454   1.270   5.060   2.172 -0.8375  0.0173  0.2905
   94MOL   H20939455   1.560   5.039   2.259  0.3780  1.2761 -0.2220
   94MOL   H21039456   1.491   5.192   2.209 -0.4107  0.0483 -2.9228
   94MOL   H21139457   1.488   5.061   2.099 -0.6521  1.8726 -0.6529
   94MOL   C21239458   1.380   4.444   2.338 -0.0022 -0.2630 -0.1727
   94MOL   C21339459   1.493   4.475   2.237  0.3173  0.3223  0.1539
   94MOL   C21439460   1.636   4.498   2.295 -0.0251  0.3374  0.2069
   94MOL   O21539461   1.679   4.414   2.376  0.0678 -0.8388  0.4077
   94MOL   O21639462   1.704   4.604   2.239 -0.5101 -0.0121  0.4149
   94MOL   C21739463   1.826   4.638   2.302 -0.0430 -0.4777  0.7348
   94MOL   C21839464   1.808   4.721   2.439  0.0866 -0.7923  0.0882
   94MOL   C21939465   1.728   4.846   2.417  0.0218 -0.4684 -0.5975
   94MOL   C22039466   1.714   4.940   2.534 -0.1127 -0.1335 -0.1261
   94MOL   H22139467   1.391   4.344   2.380  2.9174 -0.7751 -2.0559
   94MOL   H22239468   1.389   4.513   2.422  1.1435 -1.5415  0.7707
   94MOL   H22339469   1.467   4.576   2.205 -1.2365 -0.1164  0.0365
   94MOL   H22439470   1.892   4.702   2.244 -1.4716 -0.5626 -1.0520
   94MOL   H22539471   1.882   4.549   2.330  0.8549  0.2338  1.2379
   94MOL   H22639472   1.764   4.667   2.523 -0.3939 -0.9495 -0.2595
   94MOL   H22739473   1.908   4.752   2.468 -0.7061  1.8929  0.0298
   94MOL   H22839474   1.632   4.821   2.373  0.0435 -0.1042 -0.8521
   94MOL   H22939475   1.772   4.892   2.328 -0.1666  0.1300 -0.3826
   94MOL   H23039476   1.809   4.974   2.573 -0.4679 -0.4867  1.0519
   94MOL   H23139477   1.661   4.897   2.618 -1.8636  0.2067 -1.0216
   94MOL   H23239478   1.654   5.029   2.513 -2.1940 -1.6043 -0.6236
   94MOL   C23339479   1.499   4.385   2.110  0.1969  0.2358  1.1922
   94MOL   C23439480   1.513   4.235   2.129 -0.5994 -0.2874 -0.0522
   94MOL   C23539481   1.433   4.156   2.035 -0.1034 -0.2868  0.8122
   94MOL   O23639482   1.480   4.081   1.953  0.4487  0.1279 -0.9381
   94MOL   O23739483   1.304   4.182   2.042 -0.4624  0.1189  0.6103
   94MOL   C23839484   1.221   4.138   1.936 -0.3601 -0.3568 -0.4186
   94MOL   C23939485   1.131   4.263   1.903  0.0172  0.6821  0.7308
   94MOL   C24039486   1.045   4.230   1.782 -0.2925  0.0102 -0.4314
   94MOL   C24139487   0.968   4.351   1.731 -0.3564  0.4043  0.5826
   94MOL   H24239488   1.585   4.410   2.049 -1.8831  3.5030 -0.5422
   94MOL   H24339489   1.405   4.402   2.057  0.5274 -0.7689  0.2656
   94MOL   H24439490   1.463   4.210   2.223 -2.4855  1.3104 -0.5942
   94MOL   H24539491   1.162   4.049   1.962  1.4883 -0.7127  2.9076
   94MOL   H24639492   1.284   4.113   1.851 -2.3176 -1.6110 -1.5427
   94MOL   H24739493   1.079   4.296   1.993 -0.8708  0.3218  0.3605
   94MOL   H24839494   1.198   4.340   1.866 -0.3669  0.3900 -0.5869
   94MOL   H24939495   0.964   4.156   1.785 -2.6451  2.4920 -0.0214
   94MOL   H25039496   1.108   4.193   1.701 -0.7668  2.3424 -1.9061
   94MOL   H25139497   0.874   4.379   1.777  0.2837 -0.0457  2.2033
   94MOL   H25239498   0.943   4.341   1.625 -0.8861 -0.4672  0.7851
   94MOL   H25339499   1.032   4.439   1.738 -1.9763  1.7514 -1.0816
   94MOL   C25439500   1.659   4.181   2.147  0.4074 -0.0300  0.5295
   94MOL   C25539501   1.680   4.032   2.187 -0.8600 -0.2528 -0.5727
   94MOL   C25639502   1.826   3.990   2.169  0.1326  0.3139 -0.4377
   94MOL   O25739503   1.915   4.068   2.205 -0.8320 -0.2419 -0.2151
   94MOL   O25839504   1.836   3.863   2.116  0.0481  0.3339 -0.4545
   94MOL   C25939505   1.965   3.831   2.069 -0.5783  0.0167 -0.1420
   94MOL   C26039506   1.953   3.756   1.929 -0.2131  0.5394 -0.0069
   94MOL   C26139507   1.861   3.640   1.911 -0.0797 -0.2443 -0.1074
   94MOL   C26239508   1.856   3.573   1.772  0.3161 -1.0471 -0.9938
   94MOL   H26339509   1.725   4.251   2.198  0.7973  3.0746 -4.0104
   94MOL   H26439510   1.698   4.193   2.046  0.9112 -1.2890  0.5594
   94MOL   H26539511   1.617   3.968   2.126  0.1766 -2.6349  0.7761
   94MOL   H26639512   2.025   3.772   2.139  0.8347  0.3383 -1.0467
   94MOL   H26739513   2.015   3.922   2.035  1.5956 -1.1714 -0.2423
   94MOL   H26839514   1.925   3.820   1.845  1.6217  0.7371 -0.4965
   94MOL   H26939515   2.053   3.714   1.913 -0.8053 -0.7490 -0.3469
   94MOL   H27039516   1.761   3.675   1.937 -0.5462 -0.3467 -1.7408
   94MOL   H27139517   1.871   3.567   1.992 -0.7618 -0.6916 -0.4203
   94MOL   H27239518   1.764   3.516   1.760  0.0222 -1.5413  2.9613
   94MOL   H27339519   1.935   3.498   1.768  0.5525 -0.8723  0.2084
   94MOL   H27439520   1.859   3.632   1.681 -0.9018  0.8581  0.1748
   94MOL   C27539521   1.617   3.991   2.324  0.2444  0.3151  0.4164
   94MOL   C27639522   1.664   4.063   2.456 -0.0110  0.0271 -0.4772
   94MOL   C27739523   1.556   4.113   2.543  0.1247 -0.3803  0.8676
   94MOL   O27839524   1.455   4.045   2.567 -0.7437 -0.1289 -0.1904
   94MOL   O27939525   1.582   4.246   2.586  0.0503 -0.0041  0.1273
   94MOL   C28039526   1.491   4.300   2.667  0.3313 -0.2415 -0.1505
   94MOL   C28139527   1.570   4.381   2.772  0.2268  0.1153  0.4968
   94MOL   C28239528   1.644   4.496   2.710 -0.5134  0.2877  1.2325
   94MOL   C28339529   1.689   4.591   2.828 -0.3907  0.1521 -1.1411
   94MOL   H28439530   1.628   3.883   2.333 -1.4621 -0.0178 -1.1597
   94MOL   H28539531   1.509   4.005   2.318  0.2185 -0.6914 -1.7344
   94MOL   H28639532   1.722   4.147   2.419 -1.0911  0.9876 -0.0000
   94MOL   H28739533   1.436   4.225   2.724 -0.9713  1.8437  1.4215
   94MOL   H28839534   1.425   4.358   2.603  0.5927 -0.2969 -0.4688
   94MOL   H28939535   1.487   4.412   2.835 -1.4643 -0.7569 -1.2562
   94MOL   H29039536   1.649   4.320   2.817 -0.0373 -0.1650  0.5800
   94MOL   H29139537   1.587   4.556   2.639  0.8356 -1.7506 -1.6824
   94MOL   H29239538   1.731   4.460   2.656 -0.4676  1.1252  0.7351
   94MOL   H29339539   1.742   4.680   2.794 -0.5781  0.7406  0.0560
   94MOL   H29439540   1.757   4.537   2.894 -0.7261  1.5383  0.3739
   94MOL   H29539541   1.603   4.621   2.889  0.7115  0.7264  0.1411
   94MOL   C29639542   1.766   3.975   2.533 -0.0962  0.7869 -0.1588
   94MOL   C29739543   1.846   4.039   2.647 -0.0347 -0.0654 -0.1397
   94MOL   C29839544   1.823   3.969   2.785 -0.7021  0.2400 -0.4132
   94MOL   O29939545   1.925   3.940   2.853 -0.2409  0.3924 -0.1770
   94MOL   O30039546   1.690   3.960   2.826 -0.5603  0.1664 -0.2882
   94MOL   C30139547   1.657   3.908   2.959 -0.3390  0.7632 -0.2167
   94MOL   C30239548   1.502   3.933   2.975 -0.1447  0.0844 -0.6253
   94MOL   C30339549   1.458   3.898   3.113  0.0775  0.3990  0.3592
   94MOL   C30439550   1.312   3.936   3.147 -0.8029 -0.9599  0.4465
   94MOL   H30539551   1.832   3.931   2.458 -0.2389  2.4896 -1.3049
   94MOL   H30639552   1.722   3.880   2.564  1.1736  1.3392  3.5742
   94MOL   H30739553   1.801   4.137   2.660  3.2811  1.1624  2.8067
   94MOL   H30839554   1.720   3.948   3.038  1.9201 -1.5350 -0.7546
   94MOL   H30939555   1.666   3.799   2.969 -0.3819  0.7890  0.1045
   94MOL   H31039556   1.476   4.035   2.949 -0.2804  0.3356  0.4477
   94MOL   H31139557   1.436   3.875   2.911 -0.7281  0.7737 -0.6500
   94MOL   H31239558   1.524   3.940   3.189 -0.7252 -1.2583  2.0301
   94MOL   H31339559   1.464   3.789   3.124 -2.2753 -0.0092 -1.9441
   94MOL   H31439560   1.239   3.918   3.068 -1.1118  0.2337  0.4524
   94MOL   H31539561   1.293   4.039   3.177  1.5950 -0.8129  1.5884
   94MOL   H31639562   1.291   3.868   3.230  0.3434 -1.6431  0.1899
   94MOL   C31739563   1.990   4.071   2.596 -0.6483 -0.5488 -0.0918
   94MOL   C31839564   2.074   4.163   2.687  0.4246 -1.0887 -0.0244
   94MOL   C31939565   2.227   4.153   2.659  0.4402 -0.3452  0.5885
   94MOL   O32039566   2.302   4.242   2.620  0.2147 -0.5654  0.1652
   94MOL   O32139567   2.265   4.032   2.696  0.0833  0.2298  0.6427
   94MOL   C32239568   2.394   3.980   2.679 -0.0984 -0.9056  0.3913
   94MOL   C32339569   2.434   3.940   2.535 -0.6332  0.2379 -0.2595
   94MOL   C32439570   2.345   3.819   2.486 -0.0995 -0.3158 -0.4259
   94MOL   C32539571   2.379   3.777   2.342 -0.1568  0.0464  0.2632
   94MOL   H32639572   1.973   4.122   2.502  0.0935 -0.3468 -0.1237
   94MOL   H32739573   2.051   3.985   2.567  0.0238  0.1419 -0.7265
   94MOL   H32839574   2.057   4.125   2.787 -0.5806  2.4048  1.2222
   94MOL   H32939575   2.413   3.897   2.747 -0.5281 -1.1279  0.2419
   94MOL   H33039576   2.464   4.057   2.710  1.3058 -0.8695 -2.7824
   94MOL   H33139577   2.439   4.020   2.461  0.8996  2.6986  2.3693
   94MOL   H33239578   2.538   3.909   2.548  0.0515  1.4027 -2.7559
   94MOL   H33339579   2.239   3.840   2.494  0.3847  1.6749  1.1206
   94MOL   H33439580   2.375   3.741   2.556  0.2397 -0.1276 -0.3591
   94MOL   H33539581   2.487   3.767   2.336 -0.1899  0.5418 -1.5654
   94MOL   H33639582   2.346   3.857   2.276  0.1385 -0.3126 -0.3224
   94MOL   H33739583   2.326   3.686   2.313 -1.5029  0.7520  0.4527
   94MOL   C33839584   2.028   4.313   2.682 -0.5327 -0.1874 -0.3033
   94MOL   C33939585   2.107   4.408   2.780  0.1614 -0.1845 -0.4843
   94MOL   C34039586   2.080   4.552   2.735  0.2971 -0.7931 -0.4868
   94MOL   O34139587   2.051   4.586   2.619  0.6128 -0.2690 -0.5227
   94MOL   O34239588   2.103   4.645   2.833  0.3968  0.2969  0.1400
   94MOL   C34339589   2.072   4.776   2.808 -0.0145  0.1169 -0.6894
   94MOL   C34439590   2.109   4.859   2.934 -0.1122 -0.0266 -0.2342
   94MOL   C34539591   2.036   4.804   3.061 -0.5115  0.2665  0.1977
   94MOL   C34639592   1.886   4.805   3.068 -0.6508  0.4383 -0.4355
   94MOL   H34739593   1.923   4.319   2.713 -0.1813  0.9758  0.7194
   94MOL   H34839594   2.030   4.336   2.576 -0.4802  0.1888 -0.2220
   94MOL   H34939595   2.215   4.401   2.774  0.0842 -2.7960  0.5859
   94MOL   H35039596   1.966   4.788   2.787 -0.3449  0.0924  0.8765
   94MOL   H35139597   2.132   4.816   2.727  1.6575  0.9667  0.9179
   94MOL   H35239598   2.216   4.840   2.941 -0.2497 -0.1342  1.8184
   94MOL   H35339599   2.086   4.965   2.926  1.1538  0.1689 -1.4169
   94MOL   H35439600   2.076   4.854   3.150  0.2442  4.1145 -2.2001
   94MOL   H35539601   2.076   4.704   3.075  0.8054  0.6907 -0.3970
   94MOL   H35639602   1.841   4.740   2.994 -0.1888 -0.7763  0.3361
   94MOL   H35739603   1.853   4.907   3.045 -0.1577 -0.1437 -3.9218
   94MOL   H35839604   1.846   4.774   3.165  0.2637 -1.9384 -0.7898
   94MOL   C35939605   2.053   4.391   2.933  0.5647 -0.3801  0.2171
   94MOL   C36039606   2.128   4.285   3.012  0.1583  0.3179 -0.0584
   94MOL   C36139607   2.281   4.316   3.030 -0.0849 -0.5116  0.2538
   94MOL   O36239608   2.327   4.433   3.037  0.2253 -0.3724 -0.0240
   94MOL   O36339609   2.353   4.203   3.040 -0.3354  0.6321 -0.1281
   94MOL   C36439610   2.486   4.200   3.076 -1.0206  0.5279  0.1798
   94MOL   C36539611   2.532   4.059   3.130 -0.4772  0.1837  0.3293
   94MOL   C36639612   2.478   4.046   3.270  0.3602 -0.3894  0.4828
   94MOL   C36739613   2.503   3.909   3.320 -0.1894 -0.3121 -0.5465
   94MOL   H36839614   1.945   4.377   2.940  0.5128  0.5501  1.3819
   94MOL   H36939615   2.059   4.482   2.993 -1.7126 -0.0916  0.0584
   94MOL   H37039616   2.130   4.194   2.953 -1.1824 -0.3561  0.9303
   94MOL   H37139617   2.508   4.277   3.149  0.4597  0.4067 -0.1407
   94MOL   H37239618   2.553   4.236   2.999 -1.0348 -0.3989 -0.2841
   94MOL   H37339619   2.503   3.978   3.063  1.3683  0.6197 -1.0249
   94MOL   H37439620   2.641   4.062   3.133 -0.4527 -0.3800  0.0458
   94MOL   H37539621   2.370   4.059   3.273  0.3852 -0.4372  2.2358
   94MOL   H37639622   2.508   4.127   3.336 -0.1004  1.7993 -1.8962
   94MOL   H37739623   2.607   3.885   3.298 -0.3621 -1.9000  0.2528
   94MOL   H37839624   2.441   3.827   3.281 -0.8381  1.2187 -2.8166
   94MOL   H37939625   2.488   3.906   3.428  1.4072 -2.3082 -0.3434
   94MOL   C38039626   2.064   4.254   3.142  0.0771  0.4702  0.1009
   94MOL   C38139627   1.949   4.143   3.138  0.4502 -0.5070 -0.4580
   94MOL   C38239628   1.992   4.000   3.172  0.4847 -1.1286  0.1240
   94MOL   O38339629   1.938   3.928   3.252  0.1958  0.0401  0.1028
   94MOL   O38439630   2.103   3.973   3.106  0.1192  0.6206 -0.0670
   94MOL   C38539631   2.160   3.840   3.121 -0.1261 -0.7999  0.1946
   94MOL   C38639632   2.245   3.805   3.000 -0.2160  0.5964 -0.2852
   94MOL   C38739633   2.314   3.672   3.022  0.2616 -0.3837 -0.6405
   94MOL   C38839634   2.396   3.620   2.900  0.2529  0.5801  0.0037
   94MOL   H38939635   2.024   4.348   3.179 -0.8178  0.4573 -0.8201
   94MOL   H39039636   2.130   4.224   3.223 -0.3427  0.4741  0.4476
   94MOL   H39139637   1.924   4.129   3.033 -0.4873 -0.3324 -0.2612
   94MOL   H39239638   2.091   3.761   3.150  1.5171 -1.1281  3.3625
   94MOL   H39339639   2.228   3.841   3.206 -0.3422 -2.7212  0.3941
   94MOL   H39439640   2.191   3.804   2.906  0.0632 -0.1694 -0.4346
   94MOL   H39539641   2.327   3.876   2.988  0.1806  0.1931  0.0334
   94MOL   H39639642   2.245   3.596   3.058 -0.7913  0.3344 -1.1216
   94MOL   H39739643   2.382   3.676   3.107  0.8034  1.5544 -1.1256
   94MOL   H39839644   2.333   3.572   2.825  3.8914 -1.2707 -2.0038
   94MOL   H39939645   2.465   3.550   2.947 -0.5081  1.0287  1.8200
   94MOL   H40039646   2.459   3.692   2.846  0.3177 -0.3764 -1.2043
   94MOL   C40139647   1.820   4.189   3.210  0.2760 -0.0998 -0.2199
   94MOL   C40239648   1.744   4.296   3.134 -0.1116  0.0610 -0.0316
   94MOL   C40339649   1.595   4.294   3.159  0.2211  0.2925  0.4984
   94MOL   O40439650   1.516   4.288   3.060  0.7192 -0.4561 -0.0711
   94MOL   O40539651   1.570   4.300   3.284 -0.5254  0.2279 -0.1828
   94MOL   C40639652   1.435   4.266   3.324 -0.0615 -0.6703  0.1227
   94MOL   C40739653   1.409   4.318   3.465  0.0882 -0.7542  0.1314
   94MOL   C40839654   1.269   4.276   3.518  0.4827 -0.9202  1.2751
   94MOL   C40939655   1.233   4.335   3.651 -0.4508 -0.5645 -0.1385
   94MOL   H41039656   1.853   4.230   3.305 -0.3117 -0.3724  0.1044
   94MOL   H41139657   1.752   4.107   3.235 -1.4140  1.6518  1.1382
   94MOL   H41239658   1.762   4.293   3.026 -1.8934  0.2917 -0.3438
   94MOL   H41339659   1.413   4.160   3.316 -2.3878 -0.2913  0.9046
   94MOL   H41439660   1.368   4.311   3.251  0.6423 -0.5660 -0.4581
   94MOL   H41539661   1.483   4.273   3.531 -1.2415 -0.1137  2.0836
   94MOL   H41639662   1.426   4.421   3.496  4.2786 -1.7575  1.4729
   94MOL   H41739663   1.263   4.167   3.521  1.3245 -0.9524  2.8275
   94MOL   H41839664   1.194   4.306   3.446  2.4704  0.0842 -0.4206
   94MOL   H41939665   1.311   4.308   3.721  0.2200  4.4702  1.2259
   94MOL   H42039666   1.141   4.289   3.688 -0.2826 -1.2661 -0.5853
   94MOL   H42139667   1.221   4.443   3.647 -0.4434 -0.6186 -1.9696
   94MOL   H42239668   1.788   4.387   3.176 -0.3988  0.2648 -0.1765
   95MOL     C139669   1.023   2.782   4.224  0.1631 -0.3607  0.4863
   95MOL     C239670   1.163   2.716   4.236 -0.0279  0.7849 -0.3838
   95MOL     C339671   1.261   2.799   4.314  0.3707  0.0495  0.1716
   95MOL     O439672   1.361   2.849   4.266 -0.3491 -0.2023 -0.1315
   95MOL     O539673   1.229   2.822   4.450 -0.0347 -0.7573 -0.5601
   95MOL     C639674   1.311   2.904   4.531 -0.0814  0.0575 -0.3371
   95MOL     C739675   1.436   2.837   4.577  0.3459 -0.4379 -0.3512
   95MOL     C839676   1.533   2.937   4.647  0.2900  0.2385 -0.1713
   95MOL     C939677   1.658   2.874   4.694 -0.7291  0.0589  0.3017
   95MOL    H1039678   0.973   2.730   4.143 -0.1164  2.4300 -1.2097
   95MOL    H1139679   0.947   2.772   4.301  1.4278 -1.2198  1.6625
   95MOL    H1239680   1.209   2.707   4.138  0.1394  1.8104 -0.4005
   95MOL    H1339681   1.261   2.937   4.622 -0.7213  1.9171 -1.3320
   95MOL    H1439682   1.333   2.996   4.477 -0.5613  1.6799  2.1334
   95MOL    H1539683   1.417   2.754   4.646  1.1973  0.4038  0.9218
   95MOL    H1639684   1.484   2.784   4.494  0.2761  0.0753 -0.7201
   95MOL    H1739685   1.483   2.993   4.726 -0.0052  0.1334 -0.2813
   95MOL    H1839686   1.564   3.014   4.576 -1.3636  1.3503  0.2749
   95MOL    H1939687   1.643   2.772   4.729  0.2269 -0.9003 -1.9783
   95MOL    H2039688   1.694   2.924   4.784 -0.6196 -0.0995  0.3457
   95MOL    H2139689   1.739   2.866   4.621 -0.1195  1.2616  0.8285
   95MOL    H2239690   1.032   2.888   4.202  0.0608 -0.4334  0.1012
   95MOL    C2339691   1.149   2.567   4.292 -0.1677 -0.5792  0.2470
   95MOL    C2439692   1.146   2.461   4.188 -0.6494 -0.3948 -0.2904
   95MOL    C2539693   1.268   2.462   4.100  0.5883  0.1716  0.3160
   95MOL    O2639694   1.377   2.472   4.152  0.4668  1.0066  0.6351
   95MOL    O2739695   1.247   2.430   3.971  0.4077  0.1537 -0.6012
   95MOL    C2839696   1.355   2.432   3.878 -0.0592  0.1163 -0.0255
   95MOL    C2939697   1.341   2.317   3.781  0.7098 -0.2361 -0.7658
   95MOL    C3039698   1.212   2.321   3.698  0.2013 -0.3387  0.3479
   95MOL    C3139699   1.207   2.203   3.598  0.7047 -0.0370  1.0426
   95MOL    H3239700   1.061   2.572   4.358  0.0055  3.6995  0.2733
   95MOL    H3339701   1.237   2.553   4.354 -0.1053  0.7229  0.4572
   95MOL    H3439702   1.056   2.479   4.128  1.5906 -2.2099 -4.3915
   95MOL    H3539703   1.456   2.424   3.918 -0.0314  2.8426  0.5543
   95MOL    H3639704   1.350   2.528   3.827 -0.8735  0.0648 -0.0436
   95MOL    H3739705   1.430   2.322   3.718  1.2019 -0.8190 -0.1276
   95MOL    H3839706   1.344   2.222   3.834  0.7475 -0.2114 -0.7239
   95MOL    H3939707   1.211   2.407   3.631 -0.5873 -1.3905 -1.0232
   95MOL    H4039708   1.118   2.338   3.750  1.0962  3.3199  0.8813
   95MOL    H4139709   1.275   2.226   3.516  0.1713 -1.6539  0.1288
   95MOL    H4239710   1.112   2.193   3.545  0.4161  0.0234  1.5510
   95MOL    H4339711   1.227   2.101   3.631  0.3518 -0.5873 -0.4186
   95MOL    C4439712   1.127   2.321   4.262  0.2034 -0.4409 -0.3417
   95MOL    C4539713   1.086   2.196   4.180 -0.3169  0.2334 -0.1117
   95MOL    C4639714   0.956   2.210   4.100  0.0309  0.4782  0.6978
   95MOL    O4739715   0.850   2.153   4.129 -0.1439  0.3536 -0.1569
   95MOL    O4839716   0.968   2.299   3.994 -0.2415  0.3287 -0.2925
   95MOL    C4939717   0.855   2.359   3.935 -0.5150  0.0392  0.4401
   95MOL    C5039718   0.770   2.269   3.858 -0.0585 -0.2002 -0.3669
   95MOL    C5139719   0.844   2.205   3.745 -0.0672 -0.0965  0.2011
   95MOL    C5239720   0.741   2.146   3.653  0.3216 -0.5304  0.4115
   95MOL    H5339721   1.046   2.332   4.334 -0.7576 -0.7258 -1.3668
   95MOL    H5439722   1.209   2.294   4.328  0.4260  0.9162 -0.0463
   95MOL    H5539723   1.045   2.117   4.243 -1.9940  0.1389 -1.3155
   95MOL    H5639724   0.888   2.443   3.875 -1.4651 -0.0493 -0.2038
   95MOL    H5739725   0.801   2.410   4.015  0.3551 -1.0428  1.7476
   95MOL    H5839726   0.716   2.198   3.921  0.3732  0.9230  1.2941
   95MOL    H5939727   0.710   2.346   3.810 -3.3182 -1.3913  1.6605
   95MOL    H6039728   0.918   2.138   3.787 -0.0093  0.4883  1.0299
   95MOL    H6139729   0.897   2.285   3.693 -1.9999  1.0192 -0.0779
   95MOL    H6239730   0.690   2.057   3.692  0.3965 -1.2505 -1.0861
   95MOL    H6339731   0.785   2.101   3.563 -1.5588  0.0539 -0.8367
   95MOL    H6439732   0.655   2.211   3.636 -0.9131 -2.5775 -1.5920
   95MOL    C6539733   1.202   2.134   4.092 -0.1356  0.0529  0.9041
   95MOL    C6639734   1.222   1.977   4.117 -0.1360  0.9293  0.4513
   95MOL    C6739735   1.091   1.900   4.079 -0.9934  0.2802 -0.0728
   95MOL    O6839736   1.037   1.820   4.151  0.2902 -0.4129  0.0690
   95MOL    O6939737   1.045   1.931   3.961  0.1409 -0.2924 -0.3896
   95MOL    C7039738   0.936   1.864   3.899 -0.6742  0.0222  0.1961
   95MOL    C7139739   0.982   1.824   3.758 -0.2595  0.5607  0.3471
   95MOL    C7239740   1.098   1.715   3.776  0.3455 -0.5940 -0.0648
   95MOL    C7339741   1.232   1.738   3.707  0.1113  0.7913  0.1813
   95MOL    H7439742   1.301   2.177   4.110 -0.1909  0.0375  1.2545
   95MOL    H7539743   1.190   2.155   3.986 -1.0510  0.6406  1.1159
   95MOL    H7639744   1.242   1.959   4.223  0.1079 -1.7781 -0.0206
   95MOL    H7739745   0.855   1.936   3.890  0.4268  1.1811 -0.6719
   95MOL    H7839746   0.911   1.771   3.949 -0.1391  0.4280  1.2444
   95MOL    H7939747   0.907   1.769   3.701  0.1122 -0.9117  1.2499
   95MOL    H8039748   1.013   1.910   3.699 -1.3759  0.0731 -0.9821
   95MOL    H8139749   1.069   1.626   3.720  0.2160  0.5828 -1.8930
   95MOL    H8239750   1.107   1.689   3.882 -1.3223  1.2175  0.5492
   95MOL    H8339751   1.290   1.648   3.728 -3.9867 -1.4969  2.3905
   95MOL    H8439752   1.279   1.832   3.736  1.5370  0.2622 -0.3434
   95MOL    H8539753   1.221   1.752   3.599  2.0716 -1.0698 -0.3117
   95MOL    C8639754   1.340   1.933   4.026 -0.6123 -0.2636 -0.3043
   95MOL    C8739755   1.435   1.828   4.083  0.1972  0.3476 -0.2558
   95MOL    C8839756   1.359   1.698   4.113 -0.5559  0.5082 -0.0405
   95MOL    O8939757   1.324   1.614   4.027 -0.5099  0.2551  0.3089
   95MOL    O9039758   1.334   1.688   4.247  0.3148 -0.1913  0.0668
   95MOL    C9139759   1.248   1.586   4.285 -0.0217 -0.1800  0.0221
   95MOL    C9239760   1.212   1.593   4.433 -0.0565  0.2727  0.2775
   95MOL    C9339761   1.321   1.546   4.529  0.4609  0.4638 -0.2098
   95MOL    C9439762   1.271   1.552   4.674 -0.6471  0.0417  0.0367
   95MOL    H9539763   1.401   2.020   4.002  0.7761 -1.6298 -1.8699
   95MOL    H9639764   1.298   1.890   3.935 -3.2567  0.6976  0.4063
   95MOL    H9739765   1.475   1.875   4.173  0.8052  1.9140 -1.3230
   95MOL    H9839766   1.302   1.491   4.276  1.8821  0.8349  0.4118
   95MOL    H9939767   1.161   1.579   4.220  1.0040 -0.7815 -1.3396
   95MOL   H10039768   1.162   1.688   4.452 -3.1250 -0.6939 -2.4608
   95MOL   H10139769   1.124   1.529   4.436  2.0828 -2.7298  2.1736
   95MOL   H10239770   1.399   1.623   4.522 -0.7460  1.7946  0.8040
   95MOL   H10339771   1.354   1.445   4.506 -0.7287  0.4901 -2.1285
   95MOL   H10439772   1.334   1.475   4.716 -2.1009 -0.7647  0.7910
   95MOL   H10539773   1.167   1.521   4.686 -0.6808  0.4389  0.8093
   95MOL   H10639774   1.296   1.643   4.728 -0.2631  0.1316 -0.2894
   95MOL   C10739775   1.558   1.794   4.003 -0.0374 -0.1609 -0.0043
   95MOL   C10839776   1.648   1.911   3.954  0.2066  0.8520 -0.1438
   95MOL   C10939777   1.596   1.979   3.828  0.7669 -0.1697 -0.3811
   95MOL   O11039778   1.563   2.097   3.821  0.0855 -0.2858 -0.5928
   95MOL   O11139779   1.600   1.890   3.725  0.3404 -0.1276  0.3486
   95MOL   C11239780   1.540   1.926   3.600  0.3955 -0.3445 -0.5050
   95MOL   C11339781   1.527   1.810   3.508 -0.0458  0.2874 -0.0324
   95MOL   C11439782   1.659   1.764   3.457 -0.2354 -0.1380 -0.8017
   95MOL   C11539783   1.630   1.631   3.379  0.2170  0.4224 -0.9162
   95MOL   H11639784   1.524   1.739   3.915 -1.6384  0.0856  0.4459
   95MOL   H11739785   1.629   1.726   4.050  0.6711 -0.3315 -1.3193
   95MOL   H11839786   1.742   1.863   3.926  0.6044  1.2683  0.4710
   95MOL   H11939787   1.596   2.008   3.554 -0.6276  1.3356  1.1829
   95MOL   H12039788   1.445   1.977   3.615  0.4560 -1.3847  4.4167
   95MOL   H12139789   1.469   1.727   3.549 -1.8608  1.2227 -0.6533
   95MOL   H12239790   1.463   1.828   3.422 -1.5100 -1.2629  0.6992
   95MOL   H12339791   1.736   1.763   3.535 -1.4875 -1.1378  0.4441
   95MOL   H12439792   1.694   1.827   3.375  1.4980 -1.6214 -1.2306
   95MOL   H12539793   1.584   1.553   3.440  0.3040 -1.4426 -3.1925
   95MOL   H12639794   1.720   1.590   3.334  0.8309 -0.2597  0.8694
   95MOL   H12739795   1.551   1.655   3.308 -0.6017  0.6870  0.0654
   95MOL   C12839796   1.681   2.005   4.071  0.1038 -0.5421  0.1537
   95MOL   C12939797   1.806   2.102   4.062 -0.1402  0.7085  0.4417
   95MOL   C13039798   1.786   2.236   4.129  0.2928 -0.3692 -0.3853
   95MOL   O13139799   1.813   2.344   4.079  0.3200  0.0658  0.7296
   95MOL   O13239800   1.743   2.216   4.254 -0.4709 -0.1678  0.3234
   95MOL   C13339801   1.717   2.325   4.337  0.4411  0.6282 -0.2647
   95MOL   C13439802   1.597   2.298   4.436  0.9427 -0.3905  0.8458
   95MOL   C13539803   1.552   2.420   4.517  1.0830  0.1826 -1.0912
   95MOL   C13639804   1.425   2.389   4.601 -0.2069 -0.3433  0.2466
   95MOL   H13739805   1.699   1.942   4.158  1.4825 -3.6192 -2.2212
   95MOL   H13839806   1.584   2.053   4.087 -0.7879 -1.4080 -2.3837
   95MOL   H13939807   1.829   2.123   3.957  1.0531 -1.0661  0.3169
   95MOL   H14039808   1.674   2.395   4.267 -0.3097 -1.7722 -2.2620
   95MOL   H14139809   1.805   2.359   4.392  0.4099  0.7235 -0.2738
   95MOL   H14239810   1.525   2.264   4.361  0.1750 -0.0071  1.3921
   95MOL   H14339811   1.609   2.226   4.516 -2.1982 -0.1528  1.6241
   95MOL   H14439812   1.533   2.498   4.444  0.2653  0.4201 -0.6210
   95MOL   H14539813   1.626   2.450   4.592  0.1020 -1.6197  0.6802
   95MOL   H14639814   1.447   2.330   4.690  1.5871  2.3056  1.6047
   95MOL   H14739815   1.343   2.347   4.542 -0.5443 -2.2633  2.0282
   95MOL   H14839816   1.379   2.479   4.641  2.6555  0.5179  1.7077
   95MOL   C14939817   1.927   2.035   4.134  0.0476 -0.2794 -0.1406
   95MOL   C15039818   2.051   2.043   4.037 -0.0470  0.6444  0.7643
   95MOL   C15139819   2.113   2.179   4.048 -0.0099 -0.7920 -0.2325
   95MOL   O15239820   2.105   2.244   4.152  0.4049  0.3339  0.3099
   95MOL   O15339821   2.191   2.213   3.944 -0.3446 -0.2493 -0.3370
   95MOL   C15439822   2.243   2.348   3.936 -0.0374  0.3026  0.0857
   95MOL   C15539823   2.258   2.391   3.786  0.0722  0.2997 -0.5790
   95MOL   C15639824   2.187   2.524   3.762  0.4882  0.0411 -0.5497
   95MOL   C15739825   2.181   2.544   3.607 -0.1888 -0.3511 -0.6721
   95MOL   H15839826   1.902   1.933   4.162  0.4950  0.0025  1.3275
   95MOL   H15939827   1.955   2.074   4.232  1.9953  2.4473 -1.7305
   95MOL   H16039828   2.014   2.026   3.935  2.5435 -0.1592 -0.0705
   95MOL   H16139829   2.341   2.354   3.985  0.5140 -1.2474 -0.7733
   95MOL   H16239830   2.172   2.411   3.989 -0.7269  1.4811 -2.1676
   95MOL   H16339831   2.361   2.390   3.750 -0.8530  1.6694 -3.4809
   95MOL   H16439832   2.220   2.314   3.720  1.4816 -1.0613  0.1725
   95MOL   H16539833   2.238   2.601   3.820 -0.0966  0.6604 -0.8581
   95MOL   H16639834   2.089   2.516   3.809  0.5959 -1.7108 -0.5931
   95MOL   H16739835   2.163   2.649   3.586 -0.9111  0.5419  4.0174
   95MOL   H16839836   2.109   2.486   3.549  0.8691  0.2756 -2.6948
   95MOL   H16939837   2.282   2.519   3.573 -0.0745  0.1016 -0.6649
   95MOL   C17039838   2.158   1.927   4.067  0.0464 -0.4239 -0.5308
   95MOL   C17139839   2.249   1.890   3.947  0.4099 -0.5256 -0.5503
   95MOL   C17239840   2.362   1.797   3.985  0.2161 -0.3597 -0.0292
   95MOL   O17339841   2.372   1.763   4.106  0.5304 -0.3518  0.1397
   95MOL   O17439842   2.436   1.768   3.878 -0.2869 -0.3615 -0.6786
   95MOL   C17539843   2.519   1.657   3.872  0.2221  0.0936 -0.4586
   95MOL   C17639844   2.596   1.660   3.746  0.3184  0.9248  0.0340
   95MOL   C17739845   2.694   1.773   3.727  0.4873 -0.5828 -0.0312
   95MOL   C17839846   2.829   1.738   3.778 -0.6010 -0.1182 -0.2731
   95MOL   H17939847   2.107   1.845   4.117  1.0202 -0.9527 -0.3763
   95MOL   H18039848   2.207   1.951   4.161 -1.2399  0.4121 -0.0601
   95MOL   H18139849   2.298   1.979   3.910 -1.8658  0.7110 -0.6960
   95MOL   H18239850   2.453   1.570   3.879 -0.2030  0.3569 -1.1829
   95MOL   H18339851   2.590   1.656   3.954 -1.4702  2.2281  1.0871
   95MOL   H18439852   2.640   1.561   3.739 -1.7157  0.1846 -3.5148
   95MOL   H18539853   2.522   1.654   3.666 -0.6861 -2.0256  1.0965
   95MOL   H18639854   2.661   1.859   3.784  0.0670 -0.1082 -0.9712
   95MOL   H18739855   2.689   1.801   3.622  0.4549 -0.8609 -0.1070
   95MOL   H18839856   2.895   1.822   3.755  0.4427 -0.6736  0.6626
   95MOL   H18939857   2.881   1.649   3.743  3.0145  0.9958  2.0284
   95MOL   H19039858   2.838   1.727   3.886 -0.8828 -0.6229 -0.2980
   95MOL   C19139859   2.148   1.834   3.838 -0.1335 -0.2480  0.4472
   95MOL   C19239860   2.131   1.925   3.710  0.5012  0.1822 -0.6363
   95MOL   C19339861   2.230   1.909   3.597  0.3735 -0.4295 -0.4832
   95MOL   O19439862   2.278   1.800   3.565 -0.4087 -0.0219  0.9652
   95MOL   O19539863   2.261   2.029   3.539  0.6709  0.0147  0.2798
   95MOL   C19639864   2.348   2.043   3.430 -0.2276  0.4651  0.4750
   95MOL   C19739865   2.403   2.188   3.443  0.3285  0.4611  0.3965
   95MOL   C19839866   2.331   2.284   3.354 -0.1164  0.5918 -0.1248
   95MOL   C19939867   2.337   2.256   3.205 -0.4205  0.1393  0.2237
   95MOL   H20039868   2.052   1.823   3.888 -0.0293 -0.3806  0.6175
   95MOL   H20139869   2.186   1.735   3.814  1.9669  1.2117 -2.5870
   95MOL   H20239870   2.134   2.027   3.749 -1.9933  0.4283 -1.0234
   95MOL   H20339871   2.296   2.015   3.339  0.5948 -1.8849  0.6830
   95MOL   H20439872   2.434   1.977   3.440 -1.3122 -0.9356  0.7756
   95MOL   H20539873   2.408   2.210   3.549 -1.6347  1.1413  0.3776
   95MOL   H20639874   2.507   2.203   3.415  0.4668  2.2418  1.8005
   95MOL   H20739875   2.378   2.377   3.384  1.3738  0.5127 -2.0804
   95MOL   H20839876   2.228   2.294   3.389 -0.0589  1.0831 -0.0907
   95MOL   H20939877   2.442   2.262   3.178 -0.2699 -0.4172  0.6651
   95MOL   H21039878   2.289   2.334   3.146  2.5489 -0.3367 -3.0153
   95MOL   H21139879   2.282   2.165   3.179  0.3042 -0.4300  0.6278
   95MOL   C21239880   1.987   1.908   3.638 -0.1917 -0.1229 -0.6739
   95MOL   C21339881   1.946   2.011   3.526 -0.1853  0.2734 -0.0750
   95MOL   C21439882   1.935   2.157   3.570  0.0776  0.3765  0.2487
   95MOL   O21539883   2.014   2.241   3.534  0.2653 -0.0671 -0.4000
   95MOL   O21639884   1.839   2.175   3.655 -0.1539  0.8868 -0.1929
   95MOL   C21739885   1.832   2.287   3.734 -0.3863 -0.2836  0.6878
   95MOL   C21839886   1.780   2.408   3.658 -0.6907  0.3030  0.5886
   95MOL   C21939887   1.761   2.526   3.752  0.7949 -0.1771  0.4395
   95MOL   C22039888   1.738   2.653   3.671  0.0044 -0.3961 -0.7638
   95MOL   H22139889   1.908   1.924   3.711 -0.0818 -1.5986 -0.2278
   95MOL   H22239890   1.965   1.802   3.624 -1.9290  0.1419 -0.0656
   95MOL   H22339891   1.845   1.984   3.496 -0.2136 -1.4811  1.5345
   95MOL   H22439892   1.931   2.315   3.768  0.1091  1.4898 -2.0302
   95MOL   H22539893   1.758   2.264   3.811 -1.2645  0.8785  0.2025
   95MOL   H22639894   1.861   2.444   3.594 -0.3830  1.7606  1.7498
   95MOL   H22739895   1.696   2.388   3.591 -2.2135  0.3398  2.4450
   95MOL   H22839896   1.844   2.560   3.812  0.5473  0.4929  0.4058
   95MOL   H22939897   1.685   2.500   3.826  1.5056  0.0013  1.2318
   95MOL   H23039898   1.655   2.655   3.601 -1.5010  1.4472  0.9947
   95MOL   H23139899   1.831   2.667   3.616  0.8623  1.8309  1.1528
   95MOL   H23239900   1.731   2.739   3.738  2.0903  0.8578 -2.0947
   95MOL   C23339901   2.018   1.984   3.388 -0.1297 -0.7083 -0.2068
   95MOL   C23439902   1.936   1.958   3.261 -0.2680  0.2850  0.3037
   95MOL   C23539903   1.844   2.082   3.228 -0.6863  0.4158 -0.2169
   95MOL   O23639904   1.721   2.071   3.238 -0.6542 -0.0953 -0.1415
   95MOL   O23739905   1.917   2.192   3.202 -0.2370 -0.2213 -0.1957
   95MOL   C23839906   1.855   2.310   3.160 -1.2455  0.1499 -0.3771
   95MOL   C23939907   1.906   2.422   3.253 -0.1715  0.5245 -0.4112
   95MOL   C24039908   1.843   2.557   3.201  0.2834 -0.1664 -0.0700
   95MOL   C24139909   1.828   2.653   3.320  0.0379 -0.3284 -0.1158
   95MOL   H24239910   2.076   1.892   3.395  0.4901 -0.2041  1.7720
   95MOL   H24339911   2.077   2.074   3.368 -0.9872 -0.3225 -1.0214
   95MOL   H24439912   1.868   1.876   3.284 -0.5123 -0.4640 -2.8650
   95MOL   H24539913   1.746   2.298   3.164 -1.5924  2.4108 -2.0214
   95MOL   H24639914   1.884   2.325   3.056 -1.3798 -2.5591 -0.8508
   95MOL   H24739915   1.877   2.395   3.354 -3.4972  0.9505 -1.2089
   95MOL   H24839916   2.014   2.433   3.267 -0.4317 -0.2692  2.5609
   95MOL   H24939917   1.750   2.537   3.147  1.6841 -1.8351 -1.8998
   95MOL   H25039918   1.903   2.603   3.122  2.6234 -1.0865  1.1378
   95MOL   H25139919   1.796   2.754   3.292  0.1886 -0.2140  0.1131
   95MOL   H25239920   1.919   2.662   3.379 -0.0483  1.5726 -0.2425
   95MOL   H25339921   1.738   2.627   3.375 -0.7138  0.7220 -0.8198
   95MOL   C25439922   2.024   1.929   3.137 -0.9753 -0.1854  0.2568
   95MOL   C25539923   2.044   1.782   3.094 -0.2656  0.0433  0.0004
   95MOL   C25639924   2.133   1.707   3.199 -0.1186  0.3916  0.0597
   95MOL   O25739925   2.080   1.614   3.261 -0.4130  0.0520  0.6627
   95MOL   O25839926   2.263   1.741   3.199  0.6135  0.0884 -0.1355
   95MOL   C25939927   2.354   1.663   3.278 -0.6146  1.4832  0.0898
   95MOL   C26039928   2.500   1.699   3.257  0.8798  0.2116  0.0263
   95MOL   C26139929   2.597   1.589   3.295 -0.3745  0.3092  0.1391
   95MOL   C26239930   2.738   1.626   3.259  0.1581 -0.6123 -0.1842
   95MOL   H26339931   2.118   1.968   3.176 -2.3027  0.2485  3.1243
   95MOL   H26439932   2.007   1.997   3.054  0.3701 -0.3391 -0.1606
   95MOL   H26539933   2.098   1.773   3.000  0.2837 -0.5392  0.3661
   95MOL   H26639934   2.342   1.563   3.238  0.5132  1.1586  0.5511
   95MOL   H26739935   2.325   1.667   3.383 -1.0840  0.7925 -0.0129
   95MOL   H26839936   2.510   1.713   3.149  0.1777  2.4999  0.2257
   95MOL   H26939937   2.536   1.793   3.299  1.8458  0.5187 -1.4605
   95MOL   H27039938   2.559   1.496   3.254  0.2540 -0.8764  2.1598
   95MOL   H27139939   2.610   1.590   3.404 -2.2018 -1.0213  0.3955
   95MOL   H27239940   2.754   1.623   3.151 -1.6721 -1.7546 -0.4604
   95MOL   H27339941   2.803   1.552   3.305 -0.0556  0.4209  1.8011
   95MOL   H27439942   2.783   1.718   3.295 -0.9491 -0.6178  1.2502
   95MOL   C27539943   1.905   1.711   3.070  0.1222 -0.2836 -0.1474
   95MOL   C27639944   1.802   1.781   2.978  0.1414  0.3995  0.0598
   95MOL   C27739945   1.857   1.810   2.833 -0.3565 -0.0742  0.2920
   95MOL   O27839946   1.906   1.724   2.760  0.6708 -0.4579  0.3032
   95MOL   O27939947   1.851   1.938   2.815  0.4989 -0.2629 -0.2206
   95MOL   C28039948   1.916   2.002   2.706 -0.2083 -0.3678 -0.4108
   95MOL   C28139949   2.050   2.060   2.746  0.1774  0.4011 -0.6396
   95MOL   C28239950   2.035   2.193   2.821  0.3743 -0.0170 -0.4920
   95MOL   C28339951   2.169   2.248   2.872  0.1516  0.2086  0.0589
   95MOL   H28439952   1.862   1.691   3.168  0.4035 -0.2234 -0.0122
   95MOL   H28539953   1.928   1.610   3.036  2.0587  0.4177 -0.9364
   95MOL   H28639954   1.781   1.881   3.016 -0.7613 -0.1036  0.9023
   95MOL   H28739955   1.854   2.082   2.665 -1.3315 -0.0019  1.8847
   95MOL   H28839956   1.924   1.934   2.622 -0.5464 -1.0324  0.0891
   95MOL   H28939957   2.107   1.988   2.805  1.1139  1.9777  0.4166
   95MOL   H29039958   2.101   2.085   2.653  0.7579 -0.3525 -0.5220
   95MOL   H29139959   1.978   2.183   2.914  1.7668  1.2687  0.5519
   95MOL   H29239960   1.987   2.270   2.761 -1.4576 -0.7235  0.0505
   95MOL   H29339961   2.238   2.178   2.918 -1.0863 -0.9782  0.1292
   95MOL   H29439962   2.158   2.337   2.933 -0.3660 -0.5650  1.0975
   95MOL   H29539963   2.222   2.282   2.783 -0.8094  1.7804  0.0620
   95MOL   C29639964   1.678   1.696   2.964 -1.0858  0.1803  0.7269
   95MOL   C29739965   1.566   1.754   2.874 -0.5673 -0.1382  0.2718
   95MOL   C29839966   1.461   1.636   2.837 -0.8989  0.5235 -0.0895
   95MOL   O29939967   1.451   1.587   2.723  0.0441  0.4981 -0.3858
   95MOL   O30039968   1.382   1.611   2.938 -0.1166  0.0211 -0.0440
   95MOL   C30139969   1.295   1.500   2.940 -0.0938 -0.7412  1.1173
   95MOL   C30239970   1.314   1.421   3.062  0.0400  0.8556 -0.1676
   95MOL   C30339971   1.282   1.504   3.188  0.5528 -0.2725  0.6349
   95MOL   C30439972   1.277   1.421   3.316 -0.2297  0.2051  0.5265
   95MOL   H30539973   1.634   1.674   3.062 -0.2593 -1.2428  0.8020
   95MOL   H30639974   1.706   1.602   2.917 -1.0275  1.3750 -1.6455
   95MOL   H30739975   1.619   1.788   2.785 -0.3883 -0.2760  0.3280
   95MOL   H30839976   1.306   1.437   2.852 -1.9055  0.5001 -0.0133
   95MOL   H30939977   1.199   1.549   2.932 -0.6654 -1.8319  1.1318
   95MOL   H31039978   1.252   1.332   3.051 -0.4388  1.3570 -1.6414
   95MOL   H31139979   1.418   1.391   3.076  0.7295  2.7522 -1.0226
   95MOL   H31239980   1.188   1.558   3.179 -1.0897 -3.1148 -0.0037
   95MOL   H31339981   1.355   1.584   3.197 -1.0767  1.4786 -1.2978
   95MOL   H31439982   1.381   1.391   3.327 -1.5436 -4.1318  2.2163
   95MOL   H31539983   1.215   1.332   3.312  0.3115 -0.1495 -0.0291
   95MOL   H31639984   1.249   1.492   3.394 -0.7963  0.6537 -0.0737
   95MOL   C31739985   1.499   1.873   2.946 -0.3965 -0.5712  0.7828
   95MOL   C31839986   1.471   1.993   2.853  0.1139 -0.3793  0.4692
   95MOL   C31939987   1.323   1.993   2.808 -0.6843  0.1279  0.1821
   95MOL   O32039988   1.230   1.979   2.886  0.6558  0.1283 -0.0739
   95MOL   O32139989   1.314   1.992   2.677 -0.0902  0.1982  0.2439
   95MOL   C32239990   1.186   1.976   2.615 -0.0069 -0.2598 -0.2888
   95MOL   C32339991   1.143   2.114   2.585  0.6970  0.1407  0.2134
   95MOL   C32439992   1.018   2.115   2.498 -0.1209 -0.0323 -1.1021
   95MOL   C32539993   1.036   2.104   2.353  0.2843 -0.6312  0.1184
   95MOL   H32639994   1.558   1.916   3.028  1.3823 -0.4530 -0.5315
   95MOL   H32739995   1.411   1.840   3.002  0.0447  1.0481  2.5056
   95MOL   H32839996   1.516   1.983   2.754 -0.4245 -0.7628  0.2555
   95MOL   H32939997   1.115   1.910   2.665 -0.7244 -1.1499 -2.4138
   95MOL   H33039998   1.199   1.918   2.523  3.6777 -1.3903  0.8714
   95MOL   H33139999   1.122   2.164   2.680  0.7430  3.1976 -1.3251
   95MOL   H33240000   1.228   2.171   2.548  0.6095  0.0858 -0.0677
   95MOL   H33340001   0.978   2.216   2.513 -1.5429 -1.0669  2.5780
   95MOL   H33440002   0.940   2.045   2.526  0.7128 -0.5390 -0.0028
   95MOL   H33540003   1.111   2.028   2.331  1.2217  0.3198 -0.0464
   95MOL   H33640004   1.081   2.191   2.305  0.0607 -0.0325  0.9913
   95MOL   H33740005   0.945   2.091   2.295  0.0757 -0.4780  0.4076
   95MOL   C33840006   1.515   2.127   2.912  0.7589 -0.4218  0.2353
   95MOL   C33940007   1.521   2.258   2.824  0.1619  0.4276  0.6754
   95MOL   C34040008   1.524   2.376   2.917  0.0777 -0.6094 -0.1389
   95MOL   O34140009   1.623   2.403   2.990  0.2135 -0.1186  0.5567
   95MOL   O34240010   1.414   2.447   2.916 -0.4394  0.4304 -0.7956
   95MOL   C34340011   1.414   2.572   2.974  0.5915 -0.4511  0.8081
   95MOL   C34440012   1.444   2.688   2.869  0.7027 -0.4003 -0.3001
   95MOL   C34540013   1.583   2.711   2.851 -0.3924 -0.0733  0.0163
   95MOL   C34640014   1.609   2.808   2.742  0.1526 -0.4545  0.0259
   95MOL   H34740015   1.612   2.110   2.959  0.4787  0.8103  1.2973
   95MOL   H34840016   1.445   2.143   2.994  1.5415 -0.4968  0.9267
   95MOL   H34940017   1.425   2.274   2.775  0.7547  1.0970 -0.2875
   95MOL   H35040018   1.483   2.573   3.058  2.0218 -0.0206 -0.3434
   95MOL   H35140019   1.311   2.585   3.007  0.0783  1.9605 -1.5311
   95MOL   H35240020   1.398   2.671   2.772 -0.3888  0.8759 -0.0220
   95MOL   H35340021   1.399   2.782   2.901 -1.2447 -1.5125  0.3113
   95MOL   H35440022   1.629   2.613   2.833 -3.4635 -1.2438 -1.8420
   95MOL   H35540023   1.629   2.744   2.944  1.8319 -0.3248 -0.9631
   95MOL   H35640024   1.706   2.856   2.733  0.4040 -1.0693 -0.5508
   95MOL   H35740025   1.532   2.886   2.750 -0.1832 -0.3764 -3.4655
   95MOL   H35840026   1.582   2.766   2.645 -0.0168 -0.5552  0.1154
   95MOL   C35940027   1.639   2.250   2.726  0.1175  1.0537 -0.6352
   95MOL   C36040028   1.631   2.357   2.616 -0.1587 -0.6310 -0.4129
   95MOL   C36140029   1.768   2.389   2.549  0.6609  0.5653  0.1214
   95MOL   O36240030   1.801   2.331   2.443  0.5815 -0.4139  0.5554
   95MOL   O36340031   1.834   2.487   2.604 -0.1155 -0.2390 -0.3992
   95MOL   C36440032   1.965   2.528   2.566  0.5249  0.4199 -0.4038
   95MOL   C36540033   1.996   2.655   2.652  0.1896  0.9647  0.7860
   95MOL   C36640034   1.960   2.637   2.803 -0.1841  0.8369  0.0132
   95MOL   C36740035   2.017   2.749   2.893 -0.0939 -0.1740 -0.6052
   95MOL   H36840036   1.639   2.148   2.689  1.2409  0.7237  0.2249
   95MOL   H36940037   1.727   2.261   2.790 -2.9353  2.2513  3.6401
   95MOL   H37040038   1.589   2.453   2.648  2.2591  0.0326  0.9080
   95MOL   H37140039   1.966   2.538   2.458 -1.0848  2.8184 -0.2248
   95MOL   H37240040   2.029   2.445   2.597 -1.7206 -1.3340 -0.2588
   95MOL   H37340041   2.101   2.681   2.654  0.8281 -1.5020  1.4500
   95MOL   H37440042   1.929   2.738   2.630  1.0260  1.8275  1.4509
   95MOL   H37540043   1.999   2.546   2.847  2.0060  0.6703 -2.2295
   95MOL   H37640044   1.853   2.620   2.816 -0.3188  2.7143  1.7756
   95MOL   H37740045   2.003   2.840   2.835 -0.2375 -0.0061 -0.3063
   95MOL   H37840046   2.123   2.753   2.917 -0.2452  1.4606 -0.1160
   95MOL   H37940047   1.967   2.771   2.987 -1.8946  2.3079 -2.0863
   95MOL   C38040048   1.534   2.308   2.505  0.2818  1.0207 -0.4069
   95MOL   C38140049   1.491   2.400   2.393 -0.0645 -0.4180 -0.5489
   95MOL   C38240050   1.422   2.335   2.265  0.1081 -0.2976  0.7892
   95MOL   O38340051   1.317   2.267   2.266 -0.0282  0.7322 -0.1745
   95MOL   O38440052   1.487   2.372   2.152 -0.1166  0.2567 -0.8575
   95MOL   C38540053   1.434   2.346   2.022 -0.1113 -0.9103 -0.3414
   95MOL   C38640054   1.344   2.474   1.980  0.9653 -0.5312 -0.0270
   95MOL   C38740055   1.206   2.463   2.042  0.7207 -0.0290 -0.2128
   95MOL   C38840056   1.120   2.588   2.021  0.5033 -0.2743  0.2645
   95MOL   H38940057   1.445   2.276   2.560 -0.1566 -1.0144 -2.2224
   95MOL   H39040058   1.559   2.213   2.459 -0.2297  0.0449  1.3105
   95MOL   H39140059   1.585   2.445   2.359 -1.2527  2.3506 -0.3517
   95MOL   H39240060   1.380   2.251   2.021 -1.0289 -0.4031  0.4318
   95MOL   H39340061   1.518   2.334   1.953  0.2654  0.0063 -0.0452
   95MOL   H39440062   1.403   2.564   2.000  0.5361  0.2695 -2.1891
   95MOL   H39540063   1.336   2.488   1.872 -0.7150  1.0184  0.2607
   95MOL   H39640064   1.215   2.451   2.150 -0.7429 -1.0571 -0.1990
   95MOL   H39740065   1.157   2.381   1.990 -1.4754  1.5756 -0.7561
   95MOL   H39840066   1.017   2.566   2.049  0.5832 -0.9773  0.0170
   95MOL   H39940067   1.126   2.614   1.915  1.4118  1.0329  0.6209
   95MOL   H40040068   1.159   2.668   2.084 -0.2609 -0.2777  0.7357
   95MOL   C40140069   1.406   2.526   2.432  0.8631 -0.6975  0.5226
   95MOL   C40240070   1.393   2.628   2.315  0.0638 -0.0886 -0.0472
   95MOL   C40340071   1.375   2.777   2.366  0.1744  0.5394  0.0014
   95MOL   O40440072   1.319   2.808   2.474 -0.9002 -0.0702 -0.4632
   95MOL   O40540073   1.426   2.864   2.282  0.2654  0.3486  0.0677
   95MOL   C40640074   1.420   3.003   2.301  0.0394 -0.6455  0.1179
   95MOL   C40740075   1.273   3.055   2.276  0.2564  0.7095  0.4383
   95MOL   C40840076   1.265   3.206   2.272 -0.8503  0.3594  0.5929
   95MOL   C40940077   1.319   3.264   2.135 -0.4718 -0.0288  0.2044
   95MOL   H41040078   1.454   2.577   2.516  0.0533  1.6706 -0.3981
   95MOL   H41140079   1.303   2.505   2.459 -0.0606  2.1380 -0.6084
   95MOL   H41240080   1.304   2.598   2.259 -0.8994  1.5342  0.5831
   95MOL   H41340081   1.493   3.054   2.238  0.5395 -0.9863  0.4168
   95MOL   H41440082   1.445   3.041   2.401 -1.3531 -1.2365  0.7002
   95MOL   H41540083   1.243   3.023   2.176  2.4385  1.7613 -0.5982
   95MOL   H41640084   1.194   3.013   2.338 -0.1897  1.8228  0.6349
   95MOL   H41740085   1.315   3.245   2.361 -0.9111 -0.6792  1.0809
   95MOL   H41840086   1.161   3.234   2.285 -0.6629  1.5244 -0.2206
   95MOL   H41940087   1.299   3.371   2.133 -1.3137 -0.1927 -2.1172
   95MOL   H42040088   1.274   3.230   2.042 -1.3454 -1.4044  1.1086
   95MOL   H42140089   1.425   3.239   2.143 -0.4274  0.2624  0.5614
   95MOL   H42240090   1.480   2.629   2.249  0.7658 -1.5577  0.8297
   96MOL     C140091   6.396   5.469   1.483 -0.8269  0.3601 -0.4685
   96MOL     C240092   6.469   5.451   1.614 -0.1845  0.0493  1.2468
   96MOL     C340093   6.607   5.523   1.640 -0.2161 -0.3623 -0.6207
   96MOL     O440094   6.599   5.621   1.716  0.4652 -0.6034 -0.0407
   96MOL     O540095   6.714   5.470   1.576  0.2801 -0.5267 -0.2784
   96MOL     C640096   6.844   5.515   1.607 -0.4391  0.0866 -0.0220
   96MOL     C740097   6.955   5.439   1.527 -0.5820  0.8506  0.1303
   96MOL     C840098   6.969   5.288   1.568 -0.2157 -0.0804  0.2590
   96MOL     C940099   7.098   5.231   1.505 -0.0025  0.1111 -0.4083
   96MOL    H1040100   6.457   5.430   1.401 -1.1774 -1.8966  0.3080
   96MOL    H1140101   6.314   5.398   1.487 -1.1010  0.8068  2.3403
   96MOL    H1240102   6.497   5.346   1.603  0.1076  0.1801  0.7311
   96MOL    H1340103   6.867   5.501   1.713 -0.0938 -0.0747 -0.1194
   96MOL    H1440104   6.848   5.622   1.588  1.3007 -0.1398 -0.9449
   96MOL    H1540105   6.944   5.455   1.419 -0.8538 -0.9711 -0.1188
   96MOL    H1640106   7.048   5.489   1.554  1.9973 -2.4881 -2.0739
   96MOL    H1740107   6.886   5.220   1.550  0.0554 -0.5694  0.8379
   96MOL    H1840108   6.975   5.283   1.677  0.9689  0.4278  0.2285
   96MOL    H1940109   7.079   5.146   1.439  3.2991 -0.5983 -0.5500
   96MOL    H2040110   7.160   5.187   1.583  0.2221  0.8172 -0.1837
   96MOL    H2140111   7.148   5.312   1.451 -1.2521  1.1900  0.0261
   96MOL    H2240112   6.355   5.564   1.448 -0.9547  0.0239 -1.2413
   96MOL    C2340113   6.376   5.453   1.740 -0.1549  0.7447  0.7399
   96MOL    C2440114   6.301   5.572   1.788 -0.5589 -0.7081 -0.1357
   96MOL    C2540115   6.154   5.579   1.737  0.4604  0.0083 -0.2886
   96MOL    O2640116   6.084   5.480   1.735 -0.0509  0.3562  0.0685
   96MOL    O2740117   6.112   5.704   1.692 -0.1846  0.1830 -0.1371
   96MOL    C2840118   5.982   5.740   1.649 -1.4402 -0.0338  0.0091
   96MOL    C2940119   5.987   5.827   1.524 -0.5045 -0.0950 -0.0169
   96MOL    C3040120   6.007   5.743   1.395  0.0383 -0.0012  0.2672
   96MOL    C3140121   6.043   5.844   1.279  0.1845  0.2361 -0.0910
   96MOL    H3240122   6.440   5.416   1.820  1.9032  0.4415 -0.9938
   96MOL    H3340123   6.309   5.368   1.734  0.6948  0.1353 -0.2859
   96MOL    H3440124   6.356   5.659   1.752  0.1020 -1.4575 -0.9697
   96MOL    H3540125   5.940   5.786   1.739 -1.2618 -0.2694  0.2114
   96MOL    H3640126   5.936   5.647   1.616 -1.9894 -0.0755  0.9018
   96MOL    H3740127   5.899   5.890   1.517  0.8319  1.6305 -1.7296
   96MOL    H3840128   6.069   5.898   1.530  0.7190 -1.4759  0.0909
   96MOL    H3940129   5.924   5.679   1.367 -0.6296  1.1766 -0.4879
   96MOL    H4040130   6.092   5.680   1.419 -0.1305 -0.7244 -1.0085
   96MOL    H4140131   6.131   5.907   1.287  0.2523  0.3436 -1.5197
   96MOL    H4240132   5.954   5.908   1.275  0.1989  0.2593 -0.0087
   96MOL    H4340133   6.040   5.798   1.180 -2.2475 -0.5263  0.3077
   96MOL    C4440134   6.289   5.583   1.946  0.1223 -0.1345  0.1367
   96MOL    C4540135   6.418   5.607   2.024 -0.0324  0.2089 -0.6907
   96MOL    C4640136   6.473   5.751   1.989  0.3633 -0.0220 -0.4254
   96MOL    O4740137   6.395   5.841   1.962  0.7303  0.4094 -0.0087
   96MOL    O4840138   6.607   5.770   1.998  0.3412  0.4905  0.1733
   96MOL    C4940139   6.659   5.908   1.998  0.5764 -0.2681  0.6874
   96MOL    C5040140   6.815   5.886   2.016  0.1371  0.4633 -0.2355
   96MOL    C5140141   6.887   5.814   1.899 -0.1757  0.1078  0.0772
   96MOL    C5240142   6.908   5.892   1.766  0.0371 -0.7628 -0.1130
   96MOL    H5340143   6.231   5.500   1.987 -0.9332  1.0421  1.1067
   96MOL    H5440144   6.219   5.662   1.974  0.7852  0.8554 -0.9663
   96MOL    H5540145   6.495   5.540   1.985  1.2992  1.1547  0.2926
   96MOL    H5640146   6.628   5.963   2.087 -2.1802  0.4544 -0.6699
   96MOL    H5740147   6.633   5.969   1.912  2.2257 -1.1395 -0.4499
   96MOL    H5840148   6.859   5.983   2.038 -1.6853  1.0322  1.1148
   96MOL    H5940149   6.832   5.831   2.109 -1.8334  0.4312  0.1352
   96MOL    H6040150   6.834   5.721   1.878  0.0958 -0.3839  1.4574
   96MOL    H6140151   6.985   5.787   1.938 -0.0209 -0.5202 -0.7243
   96MOL    H6240152   6.946   5.992   1.781 -0.3246 -0.4759 -1.0826
   96MOL    H6340153   6.817   5.898   1.706 -2.0501 -2.4084  2.7324
   96MOL    H6440154   6.974   5.831   1.704 -0.3572 -2.1994  0.8465
   96MOL    C6540155   6.413   5.573   2.178 -0.1688  0.2271 -0.5051
   96MOL    C6640156   6.540   5.601   2.257  0.4783 -0.0966 -0.5228
   96MOL    C6740157   6.510   5.680   2.389 -0.4068 -0.3104 -0.1730
   96MOL    O6840158   6.417   5.659   2.461 -0.2401 -0.4319 -0.0438
   96MOL    O6940159   6.611   5.773   2.414 -0.2363  0.1910 -0.5147
   96MOL    C7040160   6.637   5.826   2.547 -0.5620  0.2414 -0.7071
   96MOL    C7140161   6.765   5.907   2.544 -0.2525 -0.8845 -0.0080
   96MOL    C7240162   6.893   5.822   2.538  0.3171 -0.2265  0.3429
   96MOL    C7340163   7.011   5.908   2.499  0.0997 -1.0757 -0.0554
   96MOL    H7440164   6.380   5.471   2.199 -1.6389  0.4314 -1.7100
   96MOL    H7540165   6.337   5.632   2.229 -1.8958 -1.6564 -0.8331
   96MOL    H7640166   6.608   5.664   2.200 -0.0972 -0.1128 -1.2251
   96MOL    H7740167   6.652   5.748   2.622  1.3686  0.5911 -0.6964
   96MOL    H7840168   6.553   5.887   2.580  0.1605  1.4028 -0.9969
   96MOL    H7940169   6.758   5.985   2.468  0.8574 -1.2478 -0.5012
   96MOL    H8040170   6.765   5.966   2.636  0.3072  1.0190 -1.1929
   96MOL    H8140171   6.885   5.727   2.485 -0.9376 -0.8403  1.5918
   96MOL    H8240172   6.908   5.773   2.634 -2.0552 -0.7007  0.5007
   96MOL    H8340173   7.102   5.848   2.503  1.2514  0.6642  0.4839
   96MOL    H8440174   7.014   5.995   2.564 -0.8863 -0.5958 -0.6413
   96MOL    H8540175   7.008   5.938   2.394  1.1081 -0.6074  0.0376
   96MOL    C8640176   6.614   5.471   2.287  0.0128  0.1138  0.4829
   96MOL    C8740177   6.696   5.411   2.170 -0.5450 -0.9718  0.1759
   96MOL    C8840178   6.829   5.483   2.141 -0.5293 -0.3358 -0.1355
   96MOL    O8940179   6.871   5.583   2.206  0.0143 -0.1709 -0.0226
   96MOL    O9040180   6.893   5.427   2.035 -0.4308 -0.4352 -0.0148
   96MOL    C9140181   7.012   5.478   1.978 -0.3595 -1.0819 -0.4143
   96MOL    C9240182   7.111   5.369   1.937 -0.5066 -0.9396 -0.5313
   96MOL    C9340183   7.230   5.418   1.852  0.7617  0.4649  0.4551
   96MOL    C9440184   7.325   5.306   1.813  0.0787  0.2886  0.2362
   96MOL    H9540185   6.539   5.400   2.320  0.4105  0.0137  1.1895
   96MOL    H9640186   6.678   5.495   2.372  0.5312 -1.3718  0.5206
   96MOL    H9740187   6.630   5.430   2.085  0.8236  0.3819 -0.6156
   96MOL    H9840188   7.066   5.544   2.046  0.4145  0.2093 -2.2177
   96MOL    H9940189   6.985   5.540   1.892 -0.9927 -1.2638 -0.3458
   96MOL   H10040190   7.147   5.315   2.024 -0.0979 -1.4554 -1.0183
   96MOL   H10140191   7.054   5.300   1.876 -2.7278  1.0633 -0.7937
   96MOL   H10240192   7.288   5.481   1.920  2.7426 -1.5861  0.7169
   96MOL   H10340193   7.208   5.463   1.755  0.0726 -1.8358 -0.4993
   96MOL   H10440194   7.407   5.350   1.758 -0.1919  0.0364 -0.3693
   96MOL   H10540195   7.275   5.229   1.754 -1.0892  0.7031  0.6549
   96MOL   H10640196   7.372   5.261   1.900  1.1098  0.5188 -0.2012
   96MOL   C10740197   6.709   5.257   2.183  0.4147 -0.2331 -0.2576
   96MOL   C10840198   6.574   5.176   2.188  0.5186  0.2863 -0.3155
   96MOL   C10940199   6.486   5.188   2.066 -0.0365  0.1017 -0.1738
   96MOL   O11040200   6.535   5.207   1.955  0.3339 -0.1700  0.2193
   96MOL   O11140201   6.358   5.161   2.087 -0.1255  0.2157 -0.0316
   96MOL   C11240202   6.257   5.183   1.990  0.0128  0.0066 -0.2803
   96MOL   C11340203   6.150   5.076   2.007  0.7407  0.3311  0.2912
   96MOL   C11440204   6.048   5.094   1.907  0.5636 -0.1798 -0.0327
   96MOL   C11540205   5.918   5.014   1.932  0.0999 -0.2590  0.0750
   96MOL   H11640206   6.761   5.245   2.278  1.6207  1.7168 -0.6359
   96MOL   H11740207   6.769   5.220   2.100  0.8987  2.2538 -1.0761
   96MOL   H11840208   6.511   5.209   2.270 -0.7373  0.6754 -1.4167
   96MOL   H11940209   6.285   5.201   1.886  0.1398  1.0454 -0.0729
   96MOL   H12040210   6.207   5.275   2.020 -2.5700 -2.1578  2.3756
   96MOL   H12140211   6.171   4.969   2.014 -0.8814 -0.1646 -2.0518
   96MOL   H12240212   6.113   5.087   2.109  1.5758  0.5486  0.5775
   96MOL   H12340213   6.084   5.096   1.804  1.4947  0.3455  0.3024
   96MOL   H12440214   6.016   5.197   1.917 -1.6901 -1.0359  2.0457
   96MOL   H12540215   5.940   4.909   1.954 -0.3349 -0.2645  0.4868
   96MOL   H12640216   5.850   5.026   1.849  0.8689 -2.6384 -0.9515
   96MOL   H12740217   5.864   5.054   2.018 -1.7777  1.5262 -1.9027
   96MOL   C12840218   6.610   5.028   2.198  0.2706  0.4460 -0.4389
   96MOL   C12940219   6.701   4.984   2.320  0.1147  1.0089 -0.2741
   96MOL   C13040220   6.649   5.026   2.456 -0.1428 -0.0322  0.0874
   96MOL   O13140221   6.595   4.947   2.534 -0.5746 -0.2135  0.0382
   96MOL   O13240222   6.662   5.155   2.479  0.3593  0.1891  0.5782
   96MOL   C13340223   6.611   5.218   2.600  0.1722 -0.7553 -0.1080
   96MOL   C13440224   6.461   5.209   2.616  0.1264  0.6522  0.2821
   96MOL   C13540225   6.409   5.314   2.722 -0.2163  0.0033  0.4315
   96MOL   C13640226   6.253   5.310   2.732 -0.8541 -0.3688  0.7869
   96MOL   H13740227   6.671   5.002   2.112 -1.3519  0.0211 -1.5031
   96MOL   H13840228   6.523   4.962   2.197 -0.0890  0.9232 -1.1574
   96MOL   H13940229   6.793   5.042   2.326  1.1265 -0.1956 -3.0063
   96MOL   H14040230   6.627   5.326   2.586  2.2640 -0.8319  1.4632
   96MOL   H14140231   6.668   5.187   2.688  1.3446 -2.0936 -1.3075
   96MOL   H14240232   6.402   5.224   2.526 -3.0957  0.3389  2.2706
   96MOL   H14340233   6.435   5.111   2.656 -0.6604  1.0305  0.6901
   96MOL   H14440234   6.443   5.416   2.701  1.4327 -0.4569  0.8592
   96MOL   H14540235   6.451   5.301   2.822 -0.4084 -3.7055  0.0961
   96MOL   H14640236   6.223   5.224   2.791  1.8230 -0.3101  2.2989
   96MOL   H14740237   6.206   5.289   2.636  0.8867  0.1790 -0.2069
   96MOL   H14840238   6.215   5.402   2.775  0.3228  2.2454 -3.4059
   96MOL   C14940239   6.738   4.833   2.311  0.1528  0.3264 -0.7033
   96MOL   C15040240   6.860   4.784   2.222 -0.4828  0.7741  0.4983
   96MOL   C15140241   6.987   4.793   2.299  0.0426  0.2831  0.3725
   96MOL   O15240242   7.058   4.694   2.315  0.3414 -0.4252  0.1860
   96MOL   O15340243   7.011   4.914   2.355 -0.6975  0.3429  0.3581
   96MOL   C15440244   7.134   4.963   2.411  0.0833  0.5308  0.4115
   96MOL   C15540245   7.170   5.098   2.341  0.0495 -0.2893 -0.1490
   96MOL   C15640246   7.060   5.206   2.344  0.0676  0.1283  0.7372
   96MOL   C15740247   7.054   5.301   2.458  0.4851 -1.0370  0.7855
   96MOL   H15840248   6.651   4.773   2.285  0.1336  0.7893 -1.7129
   96MOL   H15940249   6.769   4.787   2.405 -1.6960  0.6691  0.1114
   96MOL   H16040250   6.882   4.859   2.146 -0.8004 -0.0741 -0.4271
   96MOL   H16140251   7.211   4.887   2.396  0.0800  0.7606 -0.7626
   96MOL   H16240252   7.116   4.982   2.517 -1.1003 -2.4453  0.7972
   96MOL   H16340253   7.268   5.127   2.379  0.2843 -1.1145 -0.1139
   96MOL   H16440254   7.186   5.062   2.240  2.5872  1.8109 -0.5523
   96MOL   H16540255   6.963   5.157   2.330  0.7651 -0.6703 -1.5821
   96MOL   H16640256   7.054   5.273   2.259  0.0896 -2.0858 -1.0715
   96MOL   H16740257   7.017   5.268   2.554 -0.7353  2.7824  1.7166
   96MOL   H16840258   6.985   5.381   2.430  1.3674 -1.1972 -2.0854
   96MOL   H16940259   7.148   5.357   2.461  0.8232 -1.4108 -1.3814
   96MOL   C17040260   6.846   4.650   2.143  0.5544  0.1025 -0.2036
   96MOL   C17140261   6.928   4.641   2.018 -0.1899 -0.1161  0.2142
   96MOL   C17240262   7.038   4.536   2.039  0.1812 -0.0042 -0.0308
   96MOL   O17340263   7.037   4.443   2.125  0.3359 -0.2008  0.3628
   96MOL   O17440264   7.140   4.553   1.950 -0.0202  0.0973 -0.1224
   96MOL   C17540265   7.223   4.446   1.914  0.4539 -0.2455 -0.2482
   96MOL   C17640266   7.300   4.463   1.787 -0.3451 -0.4159  0.4144
   96MOL   C17740267   7.413   4.563   1.800  0.1832 -0.0156  0.2953
   96MOL   C17840268   7.496   4.581   1.670  0.3263  0.1677  0.1021
   96MOL   H17940269   6.738   4.641   2.130  0.4941  0.7416 -0.1817
   96MOL   H18040270   6.859   4.569   2.214 -1.9919 -1.0633 -0.9851
   96MOL   H18140271   6.974   4.732   1.979  0.6594 -0.4885  0.3258
   96MOL   H18240272   7.155   4.361   1.907  1.5657 -1.0972 -0.9044
   96MOL   H18340273   7.302   4.423   1.985  0.4037  0.6526  0.0977
   96MOL   H18440274   7.337   4.376   1.732  0.2055 -0.3529  0.6863
   96MOL   H18540275   7.231   4.502   1.711 -0.9749  2.9888  2.6213
   96MOL   H18640276   7.473   4.538   1.888 -0.4680 -1.7119  0.2874
   96MOL   H18740277   7.369   4.659   1.826 -2.0186 -0.7461 -0.6802
   96MOL   H18840278   7.428   4.620   1.594 -1.5541 -0.5046  1.4098
   96MOL   H18940279   7.539   4.484   1.644  0.4415  0.6492 -1.5684
   96MOL   H19040280   7.574   4.656   1.681 -1.2283  1.6719  1.0351
   96MOL   C19140281   6.838   4.586   1.904 -0.0814  0.1411 -0.2807
   96MOL   C19240282   6.898   4.590   1.759  0.3212  0.0679  0.0895
   96MOL   C19340283   6.878   4.451   1.694  0.3708  0.5597 -0.4884
   96MOL   O19440284   6.792   4.434   1.607 -0.3518 -0.7549 -0.1693
   96MOL   O19540285   6.951   4.353   1.751 -0.2491  0.7858  0.6269
   96MOL   C19640286   6.919   4.220   1.724  0.5271 -0.2685 -0.0905
   96MOL   C19740287   7.017   4.124   1.797  0.2122 -0.6454  0.3318
   96MOL   C19840288   6.959   3.985   1.812 -0.7376 -0.0554 -0.1850
   96MOL   C19940289   7.061   3.895   1.871  0.3116  0.2466 -0.8364
   96MOL   H20040290   6.754   4.656   1.905  1.5789  2.1984  1.2701
   96MOL   H20140291   6.786   4.494   1.928 -0.3664  0.5382  0.6305
   96MOL   H20240292   7.006   4.603   1.766  0.2569  0.9945 -0.5507
   96MOL   H20340293   6.917   4.194   1.618 -1.9811 -2.9059  0.5316
   96MOL   H20440294   6.818   4.205   1.761  0.4473 -0.3980 -0.3546
   96MOL   H20540295   7.115   4.116   1.748 -0.0299 -0.4579 -0.1878
   96MOL   H20640296   7.039   4.165   1.895 -1.1294 -0.9000  0.7428
   96MOL   H20740297   6.929   3.939   1.718 -1.7448 -0.2421  0.2197
   96MOL   H20840298   6.876   3.984   1.882 -0.9212 -0.8246 -0.4115
   96MOL   H20940299   7.018   3.805   1.914  0.5195  0.2644 -0.5887
   96MOL   H21040300   7.098   3.949   1.958  3.2216 -1.2272 -1.0924
   96MOL   H21140301   7.146   3.884   1.804  0.5677  3.0416 -1.0381
   96MOL   C21240302   6.840   4.700   1.666  0.6948  0.1199  0.2395
   96MOL   C21340303   6.865   4.849   1.699 -0.2527  0.0794  0.5901
   96MOL   C21440304   7.015   4.887   1.685  0.3480  0.2277 -0.1596
   96MOL   O21540305   7.059   4.926   1.582  0.5650  0.4366  0.1282
   96MOL   O21640306   7.079   4.866   1.801 -0.2184 -0.3547 -0.3266
   96MOL   C21740307   7.212   4.915   1.818 -0.7057 -1.1180 -0.2598
   96MOL   C21840308   7.261   4.906   1.963 -0.6101  0.4162  0.9704
   96MOL   C21940309   7.405   4.956   1.992 -0.2090  0.0621  0.4345
   96MOL   C22040310   7.452   4.902   2.122  0.5174 -0.3677  0.0127
   96MOL   H22140311   6.731   4.694   1.664  0.7136  0.0028 -2.6899
   96MOL   H22240312   6.874   4.702   1.563 -0.8422  3.0860 -0.2669
   96MOL   H22340313   6.838   4.863   1.803 -1.1915  3.4576 -0.0407
   96MOL   H22440314   7.225   5.016   1.780 -0.5739 -1.0076  0.0839
   96MOL   H22540315   7.282   4.862   1.753  1.1495 -1.5274  2.0126
   96MOL   H22640316   7.185   4.952   2.026 -0.5524  1.8870  0.0082
   96MOL   H22740317   7.253   4.801   1.988  0.7540 -0.0588 -0.4840
   96MOL   H22840318   7.406   5.065   1.985 -1.0824  0.0163 -0.5153
   96MOL   H22940319   7.465   4.921   1.908  0.4678  0.7644  0.6198
   96MOL   H23040320   7.376   4.918   2.198  0.3142  1.9450 -0.6353
   96MOL   H23140321   7.539   4.959   2.155 -1.2106  0.8351  2.7042
   96MOL   H23240322   7.464   4.794   2.121 -1.2665 -0.5831  0.9047
   96MOL   C23340323   6.773   4.953   1.628 -0.4146 -0.1388 -0.6339
   96MOL   C23440324   6.614   4.941   1.644  0.3294  0.0509 -0.1468
   96MOL   C23540325   6.561   4.887   1.783 -0.2826  0.4243 -0.5125
   96MOL   O23640326   6.610   4.929   1.886 -0.0443 -0.3787  0.1973
   96MOL   O23740327   6.456   4.800   1.772  0.4230  0.0753 -0.2481
   96MOL   C23840328   6.378   4.778   1.889  0.8831 -0.5791 -0.5480
   96MOL   C23940329   6.436   4.646   1.939  0.3370 -0.4316 -0.3273
   96MOL   C24040330   6.393   4.532   1.844  0.0858 -0.4557  0.4585
   96MOL   C24140331   6.492   4.422   1.821  0.0207 -0.2943 -0.2004
   96MOL   H24240332   6.796   4.973   1.523 -0.1233  0.5428 -0.4384
   96MOL   H24340333   6.793   5.045   1.682  0.6612 -0.1918 -0.9438
   96MOL   H24440334   6.593   4.869   1.565 -2.3861  1.2061 -0.5472
   96MOL   H24540335   6.271   4.783   1.872  0.8801  0.9484 -0.0915
   96MOL   H24640336   6.396   4.842   1.975  1.4452 -2.3737  0.7165
   96MOL   H24740337   6.545   4.645   1.949  0.3652  2.0609 -0.1526
   96MOL   H24840338   6.394   4.632   2.038 -0.2031 -0.2464 -0.5289
   96MOL   H24940339   6.370   4.569   1.744  0.4383  0.1545  0.6044
   96MOL   H25040340   6.302   4.489   1.886  0.5957 -1.4114  0.5969
   96MOL   H25140341   6.586   4.464   1.787  1.5251 -1.4278  2.4348
   96MOL   H25240342   6.446   4.353   1.750 -0.9601 -1.0839  1.1760
   96MOL   H25340343   6.520   4.365   1.909  2.7073  0.9782 -0.1922
   96MOL   C25440344   6.545   5.077   1.595  0.3408  0.4050  0.6381
   96MOL   C25540345   6.485   5.077   1.454 -0.4163 -0.0526  0.3044
   96MOL   C25640346   6.591   5.093   1.344  1.0474 -0.3083 -0.0835
   96MOL   O25740347   6.660   5.193   1.351 -0.5904 -0.3133 -0.8040
   96MOL   O25840348   6.595   5.010   1.248 -0.4386  0.0812 -0.5079
   96MOL   C25940349   6.700   5.008   1.152 -0.5375 -0.2386  0.5678
   96MOL   C26040350   6.819   4.908   1.187  0.5263 -0.1256  0.1197
   96MOL   C26140351   6.888   4.851   1.062  0.0188  0.0158 -0.2021
   96MOL   C26240352   6.951   4.957   0.972  0.2790 -0.0227 -0.3389
   96MOL   H26340353   6.617   5.157   1.612  0.5151  1.2023 -3.3371
   96MOL   H26440354   6.475   5.110   1.673  0.5441  1.5707  0.3419
   96MOL   H26540355   6.433   5.172   1.441 -0.3468  0.3912  2.9542
   96MOL   H26640356   6.735   5.108   1.128 -2.2275  0.5672  1.3432
   96MOL   H26740357   6.659   4.964   1.061  1.7619  1.2234 -1.2371
   96MOL   H26840358   6.886   4.966   1.251  0.5944  1.3856 -1.3110
   96MOL   H26940359   6.783   4.831   1.256 -4.1151  2.0115  0.2701
   96MOL   H27040360   6.821   4.786   1.005  0.9767 -1.3520  0.2050
   96MOL   H27140361   6.972   4.787   1.090  0.1899 -0.5111 -1.8372
   96MOL   H27240362   7.021   4.914   0.900 -0.7356 -0.3564 -1.1248
   96MOL   H27340363   7.011   5.027   1.031 -1.6962  0.0671  1.6003
   96MOL   H27440364   6.884   5.020   0.912  1.6969 -0.1477 -2.1223
   96MOL   C27540365   6.383   4.962   1.422  0.0729 -0.6999  0.3725
   96MOL   C27640366   6.248   4.957   1.501  0.3846  1.0650  0.3351
   96MOL   C27740367   6.164   5.076   1.451  1.1361 -0.5884  0.9367
   96MOL   O27840368   6.190   5.137   1.346  0.7180 -0.3449 -0.2922
   96MOL   O27940369   6.072   5.109   1.544 -0.2630  0.0189 -0.5172
   96MOL   C28040370   6.003   5.232   1.534  0.9682  0.5513  0.3874
   96MOL   C28140371   5.864   5.186   1.484 -0.2512 -0.1720 -0.3763
   96MOL   C28240372   5.749   5.289   1.465 -0.0775 -0.2083 -1.1203
   96MOL   C28340373   5.602   5.229   1.439  0.4400 -0.3370 -1.3340
   96MOL   H28440374   6.427   4.863   1.432 -2.3613 -1.7917  0.6253
   96MOL   H28540375   6.364   4.963   1.315  3.0200  0.7430 -0.1945
   96MOL   H28640376   6.265   4.971   1.607 -0.3932  1.4427  0.4093
   96MOL   H28740377   6.055   5.299   1.465  0.2045  0.9712  0.2188
   96MOL   H28840378   5.989   5.273   1.634  0.7471  2.3449 -0.3639
   96MOL   H28940379   5.873   5.128   1.392  0.7453 -1.1383  0.3017
   96MOL   H29040380   5.826   5.117   1.559  1.8518  0.2321  1.1345
   96MOL   H29140381   5.787   5.353   1.385  0.0329  0.5583 -0.4614
   96MOL   H29240382   5.742   5.360   1.547  0.8129 -1.0485 -0.3089
   96MOL   H29340383   5.591   5.127   1.475 -2.0994  0.3437 -0.0615
   96MOL   H29440384   5.557   5.234   1.340  1.4903 -0.7611 -1.8454
   96MOL   H29540385   5.535   5.283   1.507  0.1263 -1.3058 -0.8679
   96MOL   C29640386   6.183   4.817   1.495 -0.1846 -0.8484 -0.7751
   96MOL   C29740387   6.073   4.779   1.591  0.4138  0.8395 -0.2439
   96MOL   C29840388   5.931   4.806   1.533  0.0733 -0.1548 -0.2055
   96MOL   O29940389   5.906   4.860   1.426  0.2197  0.3020  0.7667
   96MOL   O30040390   5.835   4.765   1.621  0.3344  0.5890 -0.4968
   96MOL   C30140391   5.703   4.736   1.584 -0.0054 -0.3958 -0.5248
   96MOL   C30240392   5.619   4.722   1.709 -0.6546 -0.0533  0.4608
   96MOL   C30340393   5.462   4.703   1.693 -0.5139 -0.3220 -0.3106
   96MOL   C30440394   5.388   4.706   1.825  0.2036 -0.2256 -0.6429
   96MOL   H30540395   6.259   4.740   1.495 -2.4858 -3.1900 -0.6737
   96MOL   H30640396   6.145   4.805   1.394 -0.2868 -1.1709 -0.6990
   96MOL   H30740397   6.076   4.848   1.675 -1.9051  0.6486  0.0282
   96MOL   H30840398   5.700   4.636   1.541 -0.2577 -1.4709  1.9493
   96MOL   H30940399   5.671   4.816   1.517  1.1745 -1.1031 -1.9541
   96MOL   H31040400   5.656   4.632   1.757 -0.6735 -0.7994 -0.8917
   96MOL   H31140401   5.631   4.807   1.776 -0.9258  1.0776 -0.9103
   96MOL   H31240402   5.443   4.610   1.640  1.4094 -1.9229  1.7117
   96MOL   H31340403   5.418   4.775   1.623  0.2837 -0.4348 -0.9382
   96MOL   H31440404   5.401   4.796   1.886 -1.4491 -1.1626  1.1589
   96MOL   H31540405   5.427   4.627   1.889 -0.3636 -0.3179 -0.4038
   96MOL   H31640406   5.280   4.694   1.817 -0.0063  0.2779  1.1985
   96MOL   C31740407   6.070   4.641   1.651 -0.1291  1.0002 -0.5558
   96MOL   C31840408   6.012   4.516   1.573 -0.0882 -0.9674 -0.4264
   96MOL   C31940409   6.096   4.488   1.447  0.3501  0.1364 -0.5376
   96MOL   O32040410   6.043   4.500   1.337 -0.3567  0.0681 -0.1465
   96MOL   O32140411   6.208   4.433   1.477 -0.1705  0.0914 -0.1404
   96MOL   C32240412   6.294   4.392   1.371  0.1032  0.3454  0.1002
   96MOL   C32340413   6.387   4.511   1.339 -0.5112 -0.0126  0.8033
   96MOL   C32440414   6.500   4.541   1.440  0.3642  0.2494  0.4746
   96MOL   C32540415   6.608   4.632   1.384  0.2414  0.3955 -0.5959
   96MOL   H32640416   6.033   4.656   1.753  0.5007  0.4879 -0.2484
   96MOL   H32740417   6.171   4.612   1.678 -0.5383  0.9243  0.9659
   96MOL   H32840418   5.912   4.541   1.536 -0.3587 -0.4690  0.6372
   96MOL   H32940419   6.239   4.349   1.287 -0.5676  0.1272  0.6465
   96MOL   H33040420   6.348   4.304   1.403 -0.9581 -0.4208 -0.2008
   96MOL   H33140421   6.427   4.501   1.237  0.1053 -3.5727  1.3198
   96MOL   H33240422   6.331   4.604   1.329 -0.6995 -0.3661 -2.0929
   96MOL   H33340423   6.545   4.451   1.481 -0.9084  0.0933  1.5647
   96MOL   H33440424   6.463   4.605   1.521  0.9719  0.6161  0.4698
   96MOL   H33540425   6.565   4.728   1.356  1.3440  0.4652 -2.1103
   96MOL   H33640426   6.653   4.587   1.296 -0.2466  0.8943 -1.1045
   96MOL   H33740427   6.689   4.654   1.453 -0.8603  2.4114  0.0778
   96MOL   C33840428   6.016   4.394   1.661 -0.4490 -0.8843  0.5951
   96MOL   C33940429   5.903   4.372   1.770  0.0493 -0.4074  0.0227
   96MOL   C34040430   5.792   4.290   1.715 -0.0139  0.1691  0.6116
   96MOL   O34140431   5.805   4.168   1.720 -0.2418  0.0538  0.4229
   96MOL   O34240432   5.699   4.359   1.654  0.2631 -0.3113  0.0169
   96MOL   C34340433   5.583   4.295   1.604 -0.5177  0.1546 -0.4836
   96MOL   C34440434   5.552   4.346   1.463 -0.6147  0.4981  0.5162
   96MOL   C34540435   5.668   4.333   1.364 -0.3077 -0.4422  0.5271
   96MOL   C34640436   5.632   4.384   1.225 -0.2216 -0.1121  1.2189
   96MOL   H34740437   6.116   4.396   1.704 -0.1584 -3.3737  0.1373
   96MOL   H34840438   6.006   4.312   1.589 -2.2932  0.1723 -0.3711
   96MOL   H34940439   5.863   4.472   1.786  1.1142 -0.2347  1.6626
   96MOL   H35040440   5.498   4.303   1.672 -0.1044  1.8705 -0.1627
   96MOL   H35140441   5.591   4.186   1.600 -0.4476  0.2018 -2.0661
   96MOL   H35240442   5.463   4.286   1.442  0.6230 -1.3790  0.5509
   96MOL   H35340443   5.520   4.450   1.473 -1.8900  0.4294 -2.2838
   96MOL   H35440444   5.716   4.236   1.358  2.9555  1.1885 -0.8285
   96MOL   H35540445   5.747   4.402   1.394 -0.4173  0.6639 -1.6142
   96MOL   H35640446   5.549   4.331   1.177  1.2931  0.7551 -2.5937
   96MOL   H35740447   5.714   4.373   1.155 -0.6958  0.5099  0.5514
   96MOL   H35840448   5.610   4.491   1.223  3.5081  0.7204 -1.1071
   96MOL   C35940449   5.953   4.324   1.909 -0.2301 -0.0877 -0.0629
   96MOL   C36040450   5.901   4.405   2.025  0.1798  0.2970  0.1681
   96MOL   C36140451   5.755   4.366   2.058  0.5099  0.4252 -0.0282
   96MOL   O36240452   5.662   4.437   2.025 -0.1001  0.4176 -0.7723
   96MOL   O36340453   5.745   4.242   2.124  0.1488 -0.4859  0.4155
   96MOL   C36440454   5.623   4.192   2.167  0.2523  0.4181  0.0528
   96MOL   C36540455   5.549   4.138   2.046 -0.5139  0.8575 -0.7943
   96MOL   C36640456   5.616   4.011   1.998 -0.3125 -0.0199 -0.4468
   96MOL   C36740457   5.543   3.955   1.872 -0.0064 -0.0549 -0.6016
   96MOL   H36840458   6.061   4.336   1.903 -0.2096 -0.1767  0.1169
   96MOL   H36940459   5.941   4.220   1.940 -4.1988 -0.1505 -1.4537
   96MOL   H37040460   5.909   4.511   1.998 -2.5761  0.3061 -0.7814
   96MOL   H37140461   5.562   4.272   2.209 -0.6833  0.8064 -1.9761
   96MOL   H37240462   5.643   4.121   2.247  1.4411  2.9688  2.0948
   96MOL   H37340463   5.447   4.130   2.083 -0.2328  3.7873  0.7766
   96MOL   H37440464   5.536   4.216   1.970  2.8634  1.6309 -0.6647
   96MOL   H37540465   5.618   3.933   2.075  2.7809  0.6063  0.1572
   96MOL   H37640466   5.718   4.036   1.969 -0.3269 -0.0157 -0.4940
   96MOL   H37740467   5.439   3.926   1.885  0.3415 -1.9485 -1.9146
   96MOL   H37840468   5.599   3.867   1.841 -0.1160 -0.1722 -0.4648
   96MOL   H37940469   5.553   4.021   1.786 -0.3809 -1.5815 -1.8324
   96MOL   C38040470   5.987   4.384   2.147 -0.0078 -0.1781  0.3679
   96MOL   C38140471   6.124   4.468   2.136 -0.0767  0.5849 -0.4441
   96MOL   C38240472   6.107   4.618   2.157 -0.7139 -0.8861 -1.3358
   96MOL   O38340473   6.109   4.682   2.055  0.2807 -0.4514  0.6259
   96MOL   O38440474   6.084   4.663   2.284  0.6555  0.6493  0.1770
   96MOL   C38540475   6.067   4.801   2.303 -0.6059  0.3477 -0.0378
   96MOL   C38640476   6.194   4.881   2.309 -1.1158  0.1619  0.2400
   96MOL   C38740477   6.287   4.859   2.424  0.8538  0.1026  0.0052
   96MOL   C38840478   6.378   4.724   2.425  0.0285 -0.8755  0.0168
   96MOL   H38940479   6.017   4.280   2.156 -0.0969 -0.3576 -1.3542
   96MOL   H39040480   5.934   4.411   2.239  1.8110 -0.7898  1.6232
   96MOL   H39140481   6.159   4.454   2.033  2.2625 -0.0825  0.4130
   96MOL   H39240482   6.018   4.800   2.401  3.5768  0.4533  2.1540
   96MOL   H39340483   6.008   4.842   2.221  0.3929 -1.0851 -1.4841
   96MOL   H39440484   6.253   4.868   2.218  1.3497 -1.6877  2.0539
   96MOL   H39540485   6.167   4.987   2.302  1.9125  0.8735 -1.8950
   96MOL   H39640486   6.230   4.870   2.516 -1.8930 -0.9680 -1.5043
   96MOL   H39740487   6.351   4.946   2.429  1.6990 -0.5924  1.7482
   96MOL   H39840488   6.433   4.712   2.518  0.9072  2.7272  0.0352
   96MOL   H39940489   6.426   4.728   2.327 -0.6609  1.2703 -0.2525
   96MOL   H40040490   6.301   4.648   2.429 -0.2539 -0.6394 -0.9187
   96MOL   C40140491   6.238   4.415   2.231  0.1551 -0.1280 -0.5418
   96MOL   C40240492   6.190   4.382   2.372 -0.5507 -0.1701  0.0606
   96MOL   C40340493   6.287   4.294   2.448  0.4425 -0.0031 -0.5854
   96MOL   O40440494   6.384   4.226   2.397  0.0690 -0.1043  0.5136
   96MOL   O40540495   6.263   4.299   2.584 -0.1707 -0.1562 -0.3013
   96MOL   C40640496   6.337   4.227   2.673  0.6653  0.4007 -0.1622
   96MOL   C40740497   6.261   4.105   2.729  0.9476 -0.2071  0.1364
   96MOL   C40840498   6.347   4.012   2.822  0.2382 -0.9328  0.4932
   96MOL   C40940499   6.274   3.888   2.867  0.0484  0.2190 -0.6533
   96MOL   H41040500   6.330   4.473   2.229 -0.1700  0.4341  0.4625
   96MOL   H41140501   6.279   4.327   2.181 -0.3507 -1.1469  0.7992
   96MOL   H41240502   6.101   4.322   2.357  1.1802 -2.4230 -1.6229
   96MOL   H41340503   6.361   4.298   2.752 -0.9531  0.2937  0.4420
   96MOL   H41440504   6.430   4.190   2.630  1.8571  1.6700  1.2902
   96MOL   H41540505   6.179   4.145   2.788  1.7455  2.6595 -0.6458
   96MOL   H41640506   6.216   4.054   2.643  1.0725 -0.3147  0.1348
   96MOL   H41740507   6.383   4.081   2.899 -0.1529  2.1311 -1.9677
   96MOL   H41840508   6.441   3.990   2.771  0.3651  0.1024  0.2631
   96MOL   H41940509   6.233   3.834   2.782  2.1517  0.1879 -1.7001
   96MOL   H42040510   6.197   3.922   2.936  1.1953 -1.1283  1.3237
   96MOL   H42140511   6.347   3.819   2.909  0.0712 -0.2741 -1.4923
   96MOL   H42240512   6.165   4.473   2.427 -0.2164 -1.0931  1.7719
   97MOL     C140513   6.872   6.532   3.333  0.2304 -0.4751 -0.3245
   97MOL     C240514   6.798   6.644   3.400  0.4569  0.0162 -0.1979
   97MOL     C340515   6.766   6.628   3.548  0.2393 -0.4031  0.5352
   97MOL     O440516   6.797   6.701   3.643  0.0060 -0.7769 -0.0016
   97MOL     O540517   6.702   6.508   3.573  0.2696  0.4358 -0.0477
   97MOL     C640518   6.686   6.463   3.712 -0.6163 -0.4339  0.5624
   97MOL     C740519   6.600   6.332   3.710 -0.3165 -0.0091  0.1443
   97MOL     C840520   6.450   6.347   3.680 -0.1938  0.6300 -0.2889
   97MOL     C940521   6.382   6.214   3.665 -0.0859  0.5913 -0.0061
   97MOL    H1040522   6.837   6.527   3.230 -0.6181  2.2689 -0.2050
   97MOL    H1140523   6.981   6.539   3.340  0.2808 -1.5883  0.2344
   97MOL    H1240524   6.699   6.639   3.356  1.3057  1.9057 -2.4879
   97MOL    H1340525   6.643   6.526   3.789 -0.1486 -0.5863  0.9551
   97MOL    H1440526   6.791   6.445   3.737 -0.1062 -0.8948 -1.7978
   97MOL    H1540527   6.647   6.263   3.641  1.2217  2.4878 -1.3907
   97MOL    H1640528   6.618   6.301   3.813 -1.0410 -1.8874 -0.2711
   97MOL    H1740529   6.442   6.400   3.585 -0.7810  2.1838  0.6049
   97MOL    H1840530   6.410   6.415   3.755 -0.9162  2.6100 -2.3914
   97MOL    H1940531   6.403   6.157   3.575 -1.5459  0.8835 -0.5477
   97MOL    H2040532   6.275   6.231   3.656 -0.2636 -0.6094 -0.1431
   97MOL    H2140533   6.398   6.158   3.757 -0.2020  0.4004 -0.1042
   97MOL    H2240534   6.847   6.438   3.384 -0.5988 -0.5603 -0.8873
   97MOL    C2340535   6.868   6.773   3.372 -0.3390  0.0154 -0.7622
   97MOL    C2440536   6.880   6.817   3.228 -0.7571 -0.5346  0.3972
   97MOL    C2540537   6.763   6.790   3.135 -0.0201  0.1916  0.1283
   97MOL    O2640538   6.775   6.712   3.042 -0.2440 -0.1583 -0.1165
   97MOL    O2740539   6.649   6.866   3.165  0.3886 -0.0681  0.7546
   97MOL    C2840540   6.552   6.879   3.063  0.4512  0.1446  0.6253
   97MOL    C2940541   6.436   6.969   3.090 -0.1624 -0.1685 -0.1353
   97MOL    C3040542   6.479   7.109   3.125 -0.3695  0.3757 -0.2676
   97MOL    C3140543   6.356   7.197   3.157  0.3256 -0.2550 -0.4333
   97MOL    H3240544   6.969   6.757   3.408 -0.5514 -1.5309 -0.8191
   97MOL    H3340545   6.819   6.847   3.435  1.1812  1.4773 -1.2729
   97MOL    H3440546   6.971   6.763   3.202  0.5001  0.7119  2.0509
   97MOL    H3540547   6.514   6.781   3.035 -0.6550  0.5959  0.5400
   97MOL    H3640548   6.599   6.924   2.976 -1.5737  1.9516  0.4378
   97MOL    H3740549   6.376   6.976   2.999 -1.6751 -1.4075  0.7481
   97MOL    H3840550   6.368   6.929   3.165  1.4541 -2.0951  0.3313
   97MOL    H3940551   6.551   7.151   3.055  0.9825 -0.9691  0.2846
   97MOL    H4040552   6.543   7.108   3.214 -0.1795  1.3392 -0.3945
   97MOL    H4140553   6.371   7.299   3.192 -1.3612  0.2523 -1.1192
   97MOL    H4240554   6.290   7.143   3.224  0.7937  2.2034  2.1234
   97MOL    H4340555   6.288   7.213   3.074 -0.6627 -1.7568  0.0766
   97MOL    C4440556   6.932   6.971   3.228 -0.2189  0.0055 -0.6613
   97MOL    C4540557   6.977   7.025   3.092 -0.1286  0.4445  0.4851
   97MOL    C4640558   6.897   7.149   3.042 -0.0768  0.0049 -0.4779
   97MOL    O4740559   6.829   7.143   2.942  0.0166 -0.0761 -0.0922
   97MOL    O4840560   6.922   7.257   3.128  0.0488 -0.3431  0.0952
   97MOL    C4940561   6.882   7.387   3.091 -0.8428  1.1123  0.1255
   97MOL    C5040562   6.748   7.423   3.152  0.6212 -0.0793  0.7032
   97MOL    C5140563   6.706   7.568   3.150 -0.3669 -0.0684 -0.2978
   97MOL    C5240564   6.591   7.596   3.244  0.1597  0.2768 -0.3368
   97MOL    H5340565   7.015   6.974   3.298  0.2291 -0.3670 -1.1738
   97MOL    H5440566   6.855   7.038   3.267 -0.4473  0.6438 -2.1618
   97MOL    H5540567   6.946   6.952   3.017 -1.7414 -0.0321  1.5770
   97MOL    H5640568   6.879   7.407   2.984 -0.8740  0.3057 -0.0232
   97MOL    H5740569   6.961   7.455   3.124  1.5497 -1.9889  1.0439
   97MOL    H5840570   6.669   7.358   3.113 -0.8781  0.4882  2.6958
   97MOL    H5940571   6.754   7.403   3.259 -0.1966  4.5766  1.7260
   97MOL    H6040572   6.685   7.594   3.046  0.4899 -3.1050 -1.2769
   97MOL    H6140573   6.786   7.637   3.178  0.4588 -0.8921 -0.6129
   97MOL    H6240574   6.568   7.702   3.239  0.0415  0.1723 -2.4432
   97MOL    H6340575   6.629   7.590   3.346  1.2448  1.6319 -0.6451
   97MOL    H6440576   6.513   7.521   3.228 -2.1730  2.7325 -0.9757
   97MOL    C6540577   7.130   7.038   3.076 -0.9875 -0.1606 -0.0039
   97MOL    C6640578   7.200   6.914   3.006  0.5039 -0.6615  0.3404
   97MOL    C6740579   7.180   6.922   2.850 -0.0013  0.2929  0.6462
   97MOL    O6840580   7.253   6.974   2.772 -0.8112  0.0961 -1.1081
   97MOL    O6940581   7.070   6.859   2.821 -0.1701  0.4053 -0.0214
   97MOL    C7040582   7.043   6.843   2.685  0.2100  0.2554  0.0332
   97MOL    C7140583   6.908   6.772   2.665 -0.7350  0.2651 -0.5917
   97MOL    C7240584   6.790   6.870   2.653 -1.1499 -0.3134  0.1120
   97MOL    C7340585   6.661   6.797   2.628 -0.0466 -1.0526 -0.2899
   97MOL    H7440586   7.173   7.058   3.174  1.6412 -1.4347 -0.8482
   97MOL    H7540587   7.158   7.123   3.014  3.2610  0.6305  2.7972
   97MOL    H7640588   7.145   6.823   3.031  1.4529 -1.9908 -2.1941
   97MOL    H7740589   7.120   6.776   2.648 -1.1754 -1.2789 -0.1641
   97MOL    H7840590   7.048   6.936   2.629 -0.7740  1.2469  1.5683
   97MOL    H7940591   6.909   6.716   2.571  1.6246 -1.1110  0.2209
   97MOL    H8040592   6.882   6.695   2.737  0.8126  2.0232  1.9137
   97MOL    H8140593   6.809   6.940   2.572 -1.5254 -2.8871 -2.2709
   97MOL    H8240594   6.786   6.923   2.749  1.6754 -1.7072  1.0800
   97MOL    H8340595   6.641   6.756   2.529  0.0083 -1.7395 -0.0218
   97MOL    H8440596   6.572   6.858   2.629  0.9694  0.4758 -0.9107
   97MOL    H8540597   6.643   6.717   2.700 -1.6568  0.4330  0.9740
   97MOL    C8640598   7.355   6.903   3.039  0.0945  0.0923  0.1913
   97MOL    C8740599   7.423   6.773   3.003  0.2019  1.2975 -0.0852
   97MOL    C8840600   7.569   6.786   3.047 -0.0364  0.1472  0.6561
   97MOL    O8940601   7.623   6.715   3.135 -0.8426 -0.1361 -0.2435
   97MOL    O9040602   7.625   6.893   2.988 -0.1311 -0.1494 -1.4235
   97MOL    C9140603   7.766   6.920   3.012 -0.1111  0.1318 -0.4766
   97MOL    C9240604   7.799   6.993   3.150  0.1415  0.4078  0.1912
   97MOL    C9340605   7.743   7.131   3.152  0.6225 -0.7012  0.0025
   97MOL    C9440606   7.765   7.204   3.280 -0.3672  0.4785 -0.0826
   97MOL    H9540607   7.370   6.912   3.146  0.4896 -0.5679  0.1921
   97MOL    H9640608   7.407   6.992   3.004  0.2078  0.6488  1.7553
   97MOL    H9740609   7.416   6.768   2.894  0.9865 -0.0770 -0.0804
   97MOL    H9840610   7.804   6.975   2.926 -0.0702  0.4913 -0.2316
   97MOL    H9940611   7.827   6.829   3.009 -2.4596 -1.4911 -0.0103
   97MOL   H10040612   7.761   6.937   3.236  0.8769  1.7334  1.4064
   97MOL   H10140613   0.049   6.994   3.183  0.0200 -0.1508  0.6016
   97MOL   H10240614   7.636   7.136   3.130  0.2451 -1.6365  1.5259
   97MOL   H10340615   7.795   7.187   3.075  0.4623 -1.0690 -0.3709
   97MOL   H10440616   0.018   7.225   3.283 -0.4479  1.0560 -0.9987
   97MOL   H10540617   7.734   7.150   3.370 -0.6994  2.6141  1.1005
   97MOL   H10640618   7.722   7.304   3.281 -0.1228  0.5746  0.8339
   97MOL   C10740619   7.348   6.649   3.067  0.3683  0.4630  0.6642
   97MOL   C10840620   7.285   6.550   2.964 -0.0450 -0.6218  0.4039
   97MOL   C10940621   7.403   6.466   2.916 -0.9851 -0.1639  0.2105
   97MOL   O11040622   7.453   6.487   2.807  0.3207 -0.0623  0.4201
   97MOL   O11140623   7.434   6.366   2.996 -0.0493  0.2477  0.3588
   97MOL   C11240624   7.540   6.284   2.970 -0.3903 -0.3406  0.0827
   97MOL   C11340625   7.535   6.160   3.058  0.2893 -0.3915  0.1672
   97MOL   C11440626   7.419   6.065   3.025 -0.0863  0.2956 -0.1236
   97MOL   C11540627   7.375   5.971   3.140 -0.2733  0.3997 -0.0787
   97MOL   H11640628   7.273   6.681   3.140 -0.4214 -0.1948  0.1491
   97MOL   H11740629   7.421   6.593   3.126  0.4058 -0.2731 -0.0666
   97MOL   H11840630   7.262   6.595   2.867 -0.2193  0.3921  0.9173
   97MOL   H11940631   7.639   6.325   2.983 -0.3399 -0.3677 -0.2054
   97MOL   H12040632   7.542   6.241   2.870 -0.8664 -0.0913 -0.0368
   97MOL   H12140633   7.628   6.103   3.054 -0.4378 -1.6101  0.4636
   97MOL   H12240634   7.537   6.204   3.158  1.0262 -1.9808  0.8790
   97MOL   H12340635   7.451   6.002   2.942  1.0147 -1.1258  1.3531
   97MOL   H12440636   7.329   6.122   3.001  0.1362  1.5138  1.8841
   97MOL   H12540637   7.345   6.014   3.236 -0.0613 -0.7738  0.5246
   97MOL   H12640638   7.455   5.902   3.164  1.1602  1.5671 -1.3778
   97MOL   H12740639   7.290   5.910   3.110 -0.0896 -0.3246  0.8516
   97MOL   C12840640   7.170   6.468   3.029  0.0456  0.2018 -0.4174
   97MOL   C12940641   7.113   6.352   2.947 -0.1676  0.5471  0.1051
   97MOL   C13040642   7.068   6.225   3.023  0.5510 -1.0097  0.2258
   97MOL   O13140643   7.015   6.233   3.139  0.1309  0.0168  0.1795
   97MOL   O13240644   7.075   6.115   2.947 -0.0950  0.3868 -0.5862
   97MOL   C13340645   7.047   5.985   2.999  0.5092  0.3250  0.1661
   97MOL   C13440646   6.912   5.924   2.952 -0.2981 -0.2611  0.0287
   97MOL   C13540647   6.780   5.955   3.034 -0.0613  0.3733 -0.1988
   97MOL   C13640648   6.684   6.043   2.954  0.1247  0.1379  0.2789
   97MOL   H13740649   7.087   6.537   3.045  1.2533  1.8982 -1.2582
   97MOL   H13840650   7.199   6.434   3.129 -1.6334 -2.1692 -0.7021
   97MOL   H13940651   7.203   6.314   2.896 -1.0588 -0.4195 -0.7764
   97MOL   H14040652   7.043   5.978   3.108  2.4799 -0.3695  0.2080
   97MOL   H14140653   7.133   5.926   2.968 -0.5675 -2.3438  2.0189
   97MOL   H14240654   6.892   5.946   2.847  2.3438 -1.1163 -0.7086
   97MOL   H14340655   6.928   5.816   2.957 -1.0650 -0.2654  4.2820
   97MOL   H14440656   6.801   6.015   3.123 -1.6908  1.3531 -0.4491
   97MOL   H14540657   6.725   5.869   3.071  0.1153  0.5579  0.5002
   97MOL   H14640658   6.632   5.996   2.870  1.3260  1.3719 -1.1970
   97MOL   H14740659   6.740   6.124   2.906 -1.3926  1.2945  0.4293
   97MOL   H14840660   6.601   6.089   3.006 -0.1735 -1.6603  1.4007
   97MOL   C14940661   7.012   6.391   2.844 -0.6342 -0.5345 -0.2342
   97MOL   C15040662   7.036   6.329   2.705 -0.3795  0.8624  0.1941
   97MOL   C15140663   6.907   6.350   2.618 -0.4168 -0.2797 -0.2156
   97MOL   O15240664   6.909   6.422   2.512  0.2075  0.4022  0.2199
   97MOL   O15340665   6.807   6.284   2.654 -0.1621  0.7168 -0.0832
   97MOL   C15440666   6.675   6.293   2.598 -0.8674 -0.0989  0.3224
   97MOL   C15540667   6.606   6.419   2.644 -0.1767  0.6622 -0.1445
   97MOL   C15640668   6.597   6.440   2.801 -0.0710 -0.0213 -0.3486
   97MOL   C15740669   6.490   6.339   2.856 -0.0646 -0.5834 -0.2140
   97MOL   H15840670   7.009   6.499   2.829  3.7466 -0.3183 -0.0868
   97MOL   H15940671   6.910   6.369   2.875 -0.2331 -0.1818  1.3559
   97MOL   H16040672   7.052   6.222   2.717 -0.0180  1.0658  1.6390
   97MOL   H16140673   6.618   6.210   2.641  2.0656 -1.0062  2.6249
   97MOL   H16240674   6.673   6.267   2.492  3.9433 -1.6755  0.5220
   97MOL   H16340675   6.653   6.506   2.598 -0.0636  0.9675  0.5359
   97MOL   H16440676   6.504   6.433   2.608  0.3596  0.0271 -1.9606
   97MOL   H16540677   6.571   6.542   2.830  1.1952  0.5139 -1.0621
   97MOL   H16640678   6.694   6.423   2.847  0.0918 -0.6318 -0.8956
   97MOL   H16740679   6.487   6.350   2.965 -0.7881  0.3893 -0.3256
   97MOL   H16840680   6.521   6.237   2.833 -2.8798 -1.3441 -0.8173
   97MOL   H16940681   6.391   6.343   2.812 -0.4308  0.6616  0.7123
   97MOL   C17040682   7.153   6.411   2.645 -0.1644  0.0707  0.5749
   97MOL   C17140683   7.255   6.327   2.558 -0.8445  0.0646 -0.0501
   97MOL   C17240684   7.335   6.216   2.634 -0.0790 -0.6711  0.2785
   97MOL   O17340685   7.306   6.182   2.746  0.5849 -0.2534 -0.0005
   97MOL   O17440686   7.438   6.166   2.563  0.1072 -0.3460  0.3153
   97MOL   C17540687   7.534   6.079   2.625  0.4472 -0.0250 -0.4468
   97MOL   C17640688   7.513   5.925   2.600  0.1848 -0.0748 -0.0270
   97MOL   C17740689   7.383   5.870   2.660 -0.8331 -0.6540  0.1010
   97MOL   C17840690   7.370   5.717   2.660 -0.3930  0.1534  0.2542
   97MOL   H17940691   7.222   6.452   2.719  0.4444 -1.2852  0.7827
   97MOL   H18040692   7.124   6.489   2.575  0.0750 -0.1518  0.2237
   97MOL   H18140693   7.329   6.403   2.533 -1.2684  0.3168 -0.5442
   97MOL   H18240694   7.550   6.108   2.729  1.5378 -1.8056 -0.0801
   97MOL   H18340695   7.627   6.100   2.571  1.2160  0.1816  0.9358
   97MOL   H18440696   7.520   5.905   2.494  2.5899 -1.1283  0.2850
   97MOL   H18540697   7.602   5.884   2.649  1.1675  0.1607 -1.5939
   97MOL   H18640698   7.303   5.915   2.600 -0.5738 -0.5458 -0.1640
   97MOL   H18740699   7.366   5.917   2.756  2.1626  1.3142 -0.2832
   97MOL   H18840700   7.446   5.673   2.724  1.1484 -0.0155 -1.6295
   97MOL   H18940701   7.385   5.680   2.559  2.1402 -1.2697  1.1191
   97MOL   H19040702   7.275   5.675   2.693 -0.1128 -0.5808  0.1280
   97MOL   C19140703   7.189   6.270   2.423 -0.0976  0.5766  0.5689
   97MOL   C19240704   7.282   6.259   2.304  0.1915  0.2721 -0.6262
   97MOL   C19340705   7.223   6.141   2.223  0.3963 -0.3112 -0.0629
   97MOL   O19440706   7.139   6.152   2.135  0.5589 -0.0363  0.6392
   97MOL   O19540707   7.274   6.024   2.253  0.2421  0.3109 -0.0311
   97MOL   C19640708   7.229   5.903   2.190  0.4942 -0.2137  0.2097
   97MOL   C19740709   7.292   5.782   2.272  0.2943  0.0256 -0.2550
   97MOL   C19840710   7.262   5.651   2.207  0.0966 -0.1418 -0.2090
   97MOL   C19940711   7.367   5.539   2.238 -0.4552  0.2032 -0.2174
   97MOL   H20040712   7.099   6.328   2.404 -0.3314 -0.0191 -0.1726
   97MOL   H20140713   7.143   6.175   2.448 -3.7694  2.3799  1.0473
   97MOL   H20240714   7.381   6.228   2.339 -0.8407 -0.5763  1.6234
   97MOL   H20340715   7.269   5.907   2.088 -1.8261 -1.9099 -0.8328
   97MOL   H20440716   7.120   5.894   2.187  0.5763 -1.8599  1.3689
   97MOL   H20540717   7.399   5.802   2.266  0.2915  0.9768  2.2493
   97MOL   H20640718   7.270   5.772   2.378 -0.6901  0.9894 -0.3577
   97MOL   H20740719   7.259   5.662   2.098 -1.1109 -3.0075 -0.5193
   97MOL   H20840720   7.165   5.609   2.232  0.7317 -1.0546  0.7404
   97MOL   H20940721   7.334   5.436   2.223 -2.5670  0.6215  1.3718
   97MOL   H21040722   7.394   5.546   2.343  0.5882 -2.8921 -0.2146
   97MOL   H21140723   7.456   5.551   2.176 -1.0002  1.0523 -0.8491
   97MOL   C21240724   7.293   6.392   2.231  0.1678 -0.1044 -0.1082
   97MOL   C21340725   7.404   6.409   2.142 -1.1275 -0.0031  0.2198
   97MOL   C21440726   7.391   6.313   2.025 -0.4459  0.0633 -0.4452
   97MOL   O21540727   7.462   6.211   2.014 -0.6619  0.1470 -0.2563
   97MOL   O21640728   7.302   6.354   1.939 -0.1438 -0.4203 -0.5039
   97MOL   C21740729   7.298   6.293   1.810  0.5996  0.5720  0.6241
   97MOL   C21840730   7.286   6.390   1.698 -0.0759  0.0347 -0.5102
   97MOL   C21940731   7.321   6.330   1.558  0.6476 -0.1935 -0.2572
   97MOL   C22040732   7.428   6.412   1.483  0.2426 -0.2614 -0.5534
   97MOL   H22140733   7.279   6.462   2.314 -0.1237 -0.3563  0.0546
   97MOL   H22240734   7.202   6.420   2.179  1.2994  4.4539  0.1021
   97MOL   H22340735   7.498   6.376   2.185 -0.0410  2.1318 -0.4308
   97MOL   H22440736   7.207   6.233   1.807  0.0558  1.4729 -1.9275
   97MOL   H22540737   7.369   6.214   1.787  0.2112  0.2684  0.4645
   97MOL   H22640738   7.181   6.419   1.688  0.2093  1.8184  1.3843
   97MOL   H22740739   7.340   6.482   1.718  1.9019 -0.9344 -1.3237
   97MOL   H22840740   7.229   6.330   1.501  0.8888 -1.0184 -0.6539
   97MOL   H22940741   7.367   6.231   1.561 -0.6051 -0.8578 -2.1888
   97MOL   H23040742   7.388   6.511   1.462  1.8963  0.3900 -0.6825
   97MOL   H23140743   7.474   6.369   1.394  0.2802 -2.3896  0.4532
   97MOL   H23240744   7.515   6.432   1.545  0.3833 -0.9514 -0.5236
   97MOL   C23340745   7.419   6.564   2.106 -0.8047 -0.4229  0.1103
   97MOL   C23440746   7.566   6.611   2.079  0.4544 -0.7459  0.3174
   97MOL   C23540747   7.616   6.543   1.951  0.7941  0.3583  0.3537
   97MOL   O23640748   7.572   6.572   1.843  0.4416 -0.3380  0.1450
   97MOL   O23740749   7.715   6.451   1.965  0.1057 -0.0668 -0.3122
   97MOL   C23840750   7.788   6.403   1.852 -0.1611 -0.4676 -0.0713
   97MOL   C23940751   7.720   6.273   1.811  0.2791 -0.1333  0.4294
   97MOL   C24040752   7.796   6.197   1.698 -0.8295 -0.5880  0.0245
   97MOL   C24140753   7.729   6.076   1.632  0.0673 -0.5481 -0.0101
   97MOL   H24240754   7.382   6.615   2.195 -0.6087 -2.2496  1.2502
   97MOL   H24340755   7.353   6.601   2.027 -0.2529  2.4763  0.9558
   97MOL   H24440756   7.623   6.565   2.160 -0.9884  0.0272  1.7989
   97MOL   H24540757   0.036   6.385   1.889 -0.7162 -1.8667  0.8415
   97MOL   H24640758   7.792   6.475   1.771  0.6150  0.1646  0.5219
   97MOL   H24740759   7.709   6.201   1.892 -2.7868  0.6712  0.7871
   97MOL   H24840760   7.621   6.299   1.774  0.6049  2.2576  1.1030
   97MOL   H24940761   0.031   6.161   1.752 -1.3703 -1.0431  0.6003
   97MOL   H25040762   7.824   6.269   1.620 -0.6612 -0.9901 -0.2853
   97MOL   H25140763   7.765   6.046   1.533 -1.6131 -1.3842 -0.3980
   97MOL   H25240764   7.620   6.080   1.620  0.1899  1.2059 -0.7979
   97MOL   H25340765   7.744   5.987   1.692  2.6853 -0.0091  0.1957
   97MOL   C25440766   7.591   6.763   2.078  0.1325 -0.7974  1.2732
   97MOL   C25540767   7.672   6.822   2.194 -0.2900  0.3525  0.2829
   97MOL   C25640768   7.599   6.828   2.325  0.8426 -0.2787  0.2820
   97MOL   O25740769   7.578   6.934   2.383 -0.7759 -0.5038  0.5883
   97MOL   O25840770   7.583   6.711   2.376 -0.4499 -0.4004  0.1243
   97MOL   C25940771   7.509   6.691   2.494  0.3639  0.0784  0.0604
   97MOL   C26040772   7.609   6.682   2.616 -0.2833 -0.0967 -0.2674
   97MOL   C26140773   7.698   6.554   2.619 -0.6432  0.6122 -0.3897
   97MOL   C26240774   7.824   6.564   2.716 -0.3533 -0.5010  0.0348
   97MOL   H26340775   7.494   6.810   2.064 -0.1648 -2.4326 -2.7179
   97MOL   H26440776   7.636   6.798   1.985 -0.2742  1.0155  1.7329
   97MOL   H26540777   7.688   6.928   2.171 -1.8848  0.6542  0.5352
   97MOL   H26640778   7.468   6.590   2.491 -2.1909  1.1201 -3.0245
   97MOL   H26740779   7.433   6.769   2.501  1.5943  1.0761  3.5182
   97MOL   H26840780   7.668   6.772   2.636  0.6523 -1.0049  1.1526
   97MOL   H26940781   7.545   6.672   2.703 -1.3790  0.9792 -0.9425
   97MOL   H27040782   7.742   6.542   2.520  0.2081  1.7787 -0.1664
   97MOL   H27140783   7.640   6.468   2.651  2.6974 -0.9877  1.5638
   97MOL   H27240784   0.031   6.474   2.703  0.1125 -0.5890  2.5472
   97MOL   H27340785   7.782   6.563   2.817 -2.0753  1.6467 -0.6038
   97MOL   H27440786   0.023   6.659   2.714  0.7261 -1.0982 -0.3538
   97MOL   C27540787   7.811   6.756   2.201  0.0777 -0.5773 -0.4905
   97MOL   C27640788   0.075   6.838   2.260 -0.4011  0.1916  0.2451
   97MOL   C27740789   0.085   6.970   2.182  0.3917 -0.3368 -0.2912
   97MOL   O27840790   0.134   6.974   2.068  0.3172 -0.3265 -0.6326
   97MOL   O27940791   0.036   7.086   2.247  0.8173 -0.2872 -0.3119
   97MOL   C28040792   0.063   7.206   2.185  0.4844 -1.0359 -0.4090
   97MOL   C28140793   0.061   7.327   2.281  0.2381 -0.4859  0.0383
   97MOL   C28240794   0.144   7.331   2.408 -0.1066 -0.0808 -0.2257
   97MOL   C28340795   0.120   7.443   2.507  0.1857  0.2520 -0.1208
   97MOL   H28440796   7.834   6.743   2.095  0.8659 -0.8340 -0.2926
   97MOL   H28540797   7.800   6.657   2.246 -3.2640 -1.3163 -2.7407
   97MOL   H28640798   0.175   6.798   2.246 -0.0771  0.8337  0.6987
   97MOL   H28740799   7.847   7.219   2.102 -0.3615 -0.9712  0.2924
   97MOL   H28840800   0.167   7.199   2.153  0.8523  0.1009  0.4768
   97MOL   H28940801   0.086   7.420   2.231  1.0438 -0.9850 -0.4948
   97MOL   H29040802   7.807   7.335   2.304  0.7108  0.5528  1.9432
   97MOL   H29140803   0.248   7.338   2.375 -0.0155 -1.2565 -0.1905
   97MOL   H29240804   0.157   7.244   2.472 -0.1636  0.2275  0.2046
   97MOL   H29340805   0.193   7.471   2.583  0.2676 -0.2652 -0.0136
   97MOL   H29440806   0.034   7.427   2.573  1.6034  1.3810  2.0671
   97MOL   H29540807   0.109   7.535   2.449  1.9486 -0.6570 -1.9531
   97MOL   C29640808   0.069   6.850   2.407 -0.1330  0.0461 -0.5727
   97MOL   C29740809   0.195   6.926   2.472 -0.1364 -0.0659 -0.4216
   97MOL   C29840810   0.169   6.960   2.618 -0.5879 -0.7382 -0.0496
   97MOL   O29940811   0.074   6.912   2.680 -0.0289  0.0147 -0.5829
   97MOL   O30040812   0.262   7.043   2.673  0.1398  0.5297  0.0126
   97MOL   C30140813   0.247   7.095   2.805 -0.3939  0.4855 -0.3545
   97MOL   C30240814   0.197   7.235   2.794  0.0293  0.1681 -0.0672
   97MOL   C30340815   0.204   7.310   2.931 -0.0005  0.2989  0.5281
   97MOL   C30440816   0.175   7.453   2.913  0.2393 -0.1244  0.0600
   97MOL   H30540817   0.059   6.750   2.447 -1.0932  0.4407  0.1794
   97MOL   H30640818   7.837   6.909   2.440  0.6729  0.6884  0.3916
   97MOL   H30740819   0.208   7.026   2.429 -0.5623 -0.2933 -1.0972
   97MOL   H30840820   0.347   7.092   2.849  0.9467 -2.4009 -3.3418
   97MOL   H30940821   0.185   7.030   2.867 -1.5123  1.8921  0.0322
   97MOL   H31040822   0.280   7.277   2.737  0.5342  0.6932  1.0488
   97MOL   H31140823   0.102   7.246   2.742 -0.3216  0.1643  0.5679
   97MOL   H31240824   0.306   7.289   2.962 -0.7949 -1.6975  1.8940
   97MOL   H31340825   0.133   7.262   2.998 -0.2572 -0.7442 -0.4894
   97MOL   H31440826   0.191   7.505   3.008  0.7119  1.4932 -0.8754
   97MOL   H31540827   0.072   7.464   2.880  1.0916  3.1867 -1.8233
   97MOL   H31640828   0.241   7.507   2.844  0.7364 -0.0223  0.6125
   97MOL   C31740829   0.332   6.844   2.454  0.6813 -0.2586 -0.3121
   97MOL   C31840830   0.425   6.883   2.339  0.1119  0.3312  1.1221
   97MOL   C31940831   0.468   7.031   2.335 -0.4517  0.3401 -0.2436
   97MOL   O32040832   0.393   7.118   2.282 -0.1839  0.1756 -0.0110
   97MOL   O32140833   0.581   7.058   2.409 -0.2194  1.0463  0.1569
   97MOL   C32240834   0.615   7.184   2.441 -0.7817  0.2627 -0.2998
   97MOL   C32340835   0.538   7.249   2.559  0.3157 -0.2801  0.2842
   97MOL   C32440836   0.627   7.334   2.647 -0.5990  0.1079 -0.0675
   97MOL   C32540837   0.555   7.392   2.771  0.2094 -0.4946 -0.0213
   97MOL   H32640838   0.311   6.737   2.455  0.1777 -0.2057  3.3999
   97MOL   H32740839   0.385   6.846   2.549 -0.7796  0.9296  0.5130
   97MOL   H32840840   0.377   6.866   2.243 -0.1069 -2.5349  1.7105
   97MOL   H32940841   0.599   7.251   2.356 -0.8098  1.6894  0.8052
   97MOL   H33040842   0.721   7.176   2.465 -0.3687 -2.2391 -2.7398
   97MOL   H33140843   0.456   7.314   2.528  0.2546 -0.3292  0.3419
   97MOL   H33240844   0.510   7.166   2.624  0.5405 -0.1209  0.5837
   97MOL   H33340845   0.665   7.416   2.587 -0.1931  1.9293  2.6061
   97MOL   H33440846   0.718   7.281   2.675  0.1076  2.5137  2.4128
   97MOL   H33540847   0.630   7.437   2.837 -1.0477  1.9144 -0.1600
   97MOL   H33640848   0.513   7.315   2.835 -0.0090 -1.0411 -0.8102
   97MOL   H33740849   0.484   7.470   2.742  1.0803  0.4235  0.2559
   97MOL   C33840850   0.548   6.798   2.315  0.9777  0.3609  0.1564
   97MOL   C33940851   0.516   6.652   2.280 -0.7111  0.2465 -0.2413
   97MOL   C34040852   0.414   6.626   2.167 -0.3876 -0.1761  0.4777
   97MOL   O34140853   0.321   6.546   2.182 -0.2804  0.2413  0.2110
   97MOL   O34240854   0.437   6.707   2.063 -0.3405 -0.7657 -0.0572
   97MOL   C34340855   0.347   6.733   1.955  0.5087  0.3026  0.0618
   97MOL   C34440856   0.318   6.609   1.871  0.2023 -1.0216  0.5519
   97MOL   C34540857   0.213   6.647   1.765 -0.2258  0.4066 -0.1842
   97MOL   C34640858   0.215   6.540   1.658  0.3803 -0.2508  0.0851
   97MOL   H34740859   0.609   6.804   2.405  1.3500 -2.3526  0.1189
   97MOL   H34840860   0.600   6.848   2.234  2.5763  0.4367  1.2090
   97MOL   H34940861   0.459   6.610   2.363 -0.8247 -0.7878 -0.8225
   97MOL   H35040862   0.382   6.818   1.897  1.6628  0.5987  1.1637
   97MOL   H35140863   0.254   6.753   2.007  0.1222 -0.8227 -0.1709
   97MOL   H35240864   0.405   6.572   1.817 -1.6012 -1.1075 -2.4310
   97MOL   H35340865   0.278   6.528   1.932 -2.9395  1.2442  1.5914
   97MOL   H35440866   0.233   6.742   1.715  2.0591 -0.6871 -1.4639
   97MOL   H35540867   0.110   6.648   1.800 -0.7934  1.7658 -1.8873
   97MOL   H35640868   0.118   6.529   1.609  0.9696 -1.1516 -0.8925
   97MOL   H35740869   0.237   6.438   1.691  0.5098 -0.4147 -0.5081
   97MOL   H35840870   0.289   6.569   1.585 -1.0559  1.4719 -0.7139
   97MOL   C35940871   0.654   6.577   2.242 -0.4199 -0.6987  0.3267
   97MOL   C36040872   0.751   6.571   2.362 -0.3173 -0.1575  0.0854
   97MOL   C36140873   0.680   6.519   2.491 -0.2072  0.1817  0.5369
   97MOL   O36240874   0.650   6.596   2.578  0.1246  0.1282 -1.1002
   97MOL   O36340875   0.638   6.391   2.486 -0.2401  0.2457  0.0205
   97MOL   C36440876   0.542   6.337   2.581  0.7044  0.2696 -0.0079
   97MOL   C36540877   0.551   6.187   2.579  0.1254  0.7522  0.6029
   97MOL   C36640878   0.691   6.133   2.626 -0.6130  0.1962  0.1649
   97MOL   C36740879   0.703   5.981   2.630  0.4537 -0.1989  0.1487
   97MOL   H36840880   0.697   6.640   2.163  1.6716 -1.9194  0.4765
   97MOL   H36940881   0.633   6.486   2.186 -0.2695 -1.2192  1.1223
   97MOL   H37040882   0.781   6.675   2.374  0.1652 -0.3076  0.2045
   97MOL   H37140883   0.441   6.377   2.574  1.2500  1.6044 -0.4546
   97MOL   H37240884   0.573   6.382   2.676 -0.7074  1.7925 -0.2435
   97MOL   H37340885   0.478   6.133   2.640 -1.5883  1.6721 -0.6053
   97MOL   H37440886   0.528   6.167   2.474  0.4674 -0.1456  0.6918
   97MOL   H37540887   0.717   6.163   2.728 -1.5029 -2.4503  1.2059
   97MOL   H37640888   0.772   6.171   2.563 -1.6653  3.1395  0.5053
   97MOL   H37740889   0.805   5.942   2.635  1.5245  2.5805  1.0999
   97MOL   H37840890   0.642   5.957   2.542 -0.3789  0.5267  0.5240
   97MOL   H37940891   0.649   5.931   2.710 -1.5536  0.7893 -0.5530
   97MOL   C38040892   0.873   6.485   2.343  0.3480 -0.0206 -0.0361
   97MOL   C38140893   0.964   6.447   2.463 -0.0191 -0.4131  0.5116
   97MOL   C38240894   1.087   6.368   2.405  0.1204 -0.0838 -0.3179
   97MOL   O38340895   1.177   6.428   2.343  0.3163 -0.0895  0.6406
   97MOL   O38440896   1.078   6.233   2.422 -0.6556 -0.7539  0.2830
   97MOL   C38540897   1.195   6.155   2.402  0.1385 -0.9598  0.2966
   97MOL   C38640898   1.194   6.023   2.484  0.3159 -0.4678  0.1642
   97MOL   C38740899   1.095   5.917   2.429  0.0420 -0.0752 -0.7051
   97MOL   C38840900   1.111   5.783   2.482  0.9263 -0.3414  0.2770
   97MOL   H38940901   0.936   6.537   2.270 -0.9379  0.1554 -1.0392
   97MOL   H39040902   0.852   6.398   2.280  1.3960 -0.5279  0.3023
   97MOL   H39140903   0.912   6.385   2.536  0.4316  1.6640  2.6624
   97MOL   H39240904   1.282   6.215   2.427  0.0706  0.5118 -2.7968
   97MOL   H39340905   1.201   6.132   2.295 -0.7581  0.8653 -0.1702
   97MOL   H39440906   1.289   5.970   2.495  0.8113  0.2887 -0.3303
   97MOL   H39540907   1.159   6.050   2.583  0.7034 -1.8137  0.6705
   97MOL   H39640908   1.093   5.911   2.320  0.9062 -4.3190 -0.5596
   97MOL   H39740909   0.992   5.948   2.443 -0.2095 -1.4286  0.5753
   97MOL   H39840910   1.204   5.729   2.462  0.4399 -1.0378 -0.1237
   97MOL   H39940911   1.029   5.721   2.445  0.3827  0.9438 -0.7015
   97MOL   H40040912   1.099   5.784   2.590  0.2469  1.4743  0.1944
   97MOL   C40140913   1.025   6.568   2.537  0.1539 -0.1361  0.5985
   97MOL   C40240914   1.101   6.537   2.673 -0.9114 -0.3290  0.0398
   97MOL   C40340915   1.039   6.447   2.777  0.4301  0.6145  0.2181
   97MOL   O40440916   0.941   6.485   2.840  0.2000  0.1668 -0.2366
   97MOL   O40540917   1.110   6.336   2.804 -0.0479  0.1167  0.7504
   97MOL   C40640918   1.076   6.261   2.919 -0.4467 -0.1250  0.1613
   97MOL   C40740919   1.125   6.119   2.927 -0.3454 -0.0358 -0.4921
   97MOL   C40840920   1.017   6.030   2.866 -0.3562  0.0780 -0.0837
   97MOL   C40940921   1.055   5.888   2.870 -0.0705  0.6102  0.8110
   97MOL   H41040922   0.947   6.643   2.550  1.9485  1.8171  0.2421
   97MOL   H41140923   1.098   6.617   2.473 -0.8480  0.2877 -0.2269
   97MOL   H41240924   1.107   6.630   2.728 -1.9050  0.2461 -0.8054
   97MOL   H41340925   0.969   6.259   2.940  0.1193 -1.7635  3.1811
   97MOL   H41440926   1.116   6.307   3.010  0.7241  1.6215 -1.1963
   97MOL   H41540927   1.211   6.127   2.860 -1.0618  0.3530 -1.3676
   97MOL   H41640928   1.154   6.080   3.025  0.1889  0.7846 -0.3180
   97MOL   H41740929   0.989   6.054   2.763 -2.0052  1.8105  0.7344
   97MOL   H41840930   0.924   6.041   2.922  0.4405  0.8734  1.1029
   97MOL   H41940931   1.135   5.876   2.797 -1.2039 -1.6960 -0.1112
   97MOL   H42040932   0.982   5.812   2.842 -0.8891  0.8985  2.0775
   97MOL   H42140933   1.090   5.862   2.970 -0.0357 -1.5053  0.2697
   97MOL   H42240934   1.196   6.488   2.649 -1.0741 -0.2547 -0.7887
   98MOL     C140935   3.503   4.670   6.874  0.0342 -0.2466  0.0637
   98MOL     C240936   3.447   4.769   6.768 -1.0573  0.7714 -0.1827
   98MOL     C340937   3.425   4.698   6.632  0.2011 -0.4046  0.1865
   98MOL     O440938   3.486   4.731   6.529 -0.0957  0.1697  0.6129
   98MOL     O540939   3.327   4.598   6.637  0.6044  0.1560  0.2164
   98MOL     C640940   3.252   4.567   6.522  0.9604  0.0185  0.2367
   98MOL     C740941   3.109   4.524   6.556 -0.1525 -0.0565 -0.5211
   98MOL     C840942   3.031   4.478   6.432 -0.2720 -0.5365 -0.3076
   98MOL     C940943   2.905   4.402   6.476  0.6758 -0.5862 -0.2432
   98MOL    H1040944   3.490   4.704   6.977 -0.5845 -1.7355  0.4983
   98MOL    H1140945   3.443   4.579   6.872  0.0057 -0.3561  2.9870
   98MOL    H1240946   3.519   4.846   6.742 -0.2467  0.1847  0.2932
   98MOL    H1340947   3.313   4.493   6.470  0.1872  0.1577 -0.9131
   98MOL    H1440948   3.255   4.648   6.449  0.5071 -0.3833 -0.2334
   98MOL    H1540949   3.114   4.448   6.633  0.6314  0.1149 -0.4053
   98MOL    H1640950   3.059   4.611   6.600  0.4568 -0.0296  0.1124
   98MOL    H1740951   3.087   4.415   6.362 -0.6344 -1.1441 -0.0553
   98MOL    H1840952   2.993   4.573   6.394 -0.0759  0.0709  1.0329
   98MOL    H1940953   2.843   4.392   6.387  0.6656 -2.0270 -0.0738
   98MOL    H2040954   2.834   4.449   6.544 -2.0810 -1.9434 -2.0955
   98MOL    H2140955   2.936   4.305   6.514  1.2047 -0.0534  0.7228
   98MOL    H2240956   3.603   4.633   6.852  0.3932  0.4513  0.5167
   98MOL    C2340957   3.317   4.830   6.820  0.5576 -0.0572  0.0667
   98MOL    C2440958   3.289   4.961   6.741  0.0715  0.4157  0.0093
   98MOL    C2540959   3.136   4.987   6.741 -0.1244 -0.2102 -0.2362
   98MOL    O2640960   3.082   4.947   6.640 -0.0391 -0.1269  0.2435
   98MOL    O2740961   3.079   5.052   6.845  0.0799 -0.2209 -0.2360
   98MOL    C2840962   2.935   5.083   6.850 -1.1536  0.5358  0.6770
   98MOL    C2940963   2.907   5.211   6.772 -0.3939  0.8713 -0.0350
   98MOL    C3040964   2.755   5.234   6.739  0.6598  0.7080 -0.0963
   98MOL    C3140965   2.729   5.346   6.647 -0.4151 -0.2984  1.0343
   98MOL    H3240966   3.329   4.855   6.925 -3.0788 -1.8324  0.9972
   98MOL    H3340967   3.232   4.762   6.816  0.3824  0.1992 -0.7056
   98MOL    H3440968   3.328   4.955   6.639 -1.0985  3.3157 -0.6546
   98MOL    H3540969   2.912   5.105   6.954 -0.5343  0.4910  0.8245
   98MOL    H3640970   2.868   5.003   6.819 -0.6768  0.8284 -1.1560
   98MOL    H3740971   2.952   5.299   6.819  1.0021 -0.4781  1.2105
   98MOL    H3840972   2.952   5.201   6.674 -1.2146  1.5710 -0.4921
   98MOL    H3940973   2.704   5.245   6.835  0.3504  0.9215 -0.2860
   98MOL    H4040974   2.704   5.147   6.698  1.2964  0.1389  0.2921
   98MOL    H4140975   2.773   5.325   6.550 -0.8831  0.3395  0.6787
   98MOL    H4240976   2.780   5.433   6.688 -1.4711  0.6453  0.3664
   98MOL    H4340977   2.628   5.386   6.642  0.0418  0.5941 -1.1619
   98MOL    C4440978   3.366   5.076   6.803  0.4293 -0.1734  0.2197
   98MOL    C4540979   3.343   5.209   6.735 -0.4971 -0.6742  0.0597
   98MOL    C4640980   3.353   5.329   6.835  0.4131 -0.4942  0.2328
   98MOL    O4740981   3.252   5.386   6.871 -0.5986  0.1082 -0.1978
   98MOL    O4840982   3.476   5.355   6.879  0.9582  0.4060 -0.6857
   98MOL    C4940983   3.484   5.448   6.980  0.3674  0.2383 -0.0788
   98MOL    C5040984   3.517   5.587   6.929  0.1024 -0.4294  0.0725
   98MOL    C5140985   3.561   5.690   7.035  0.1622 -0.5345 -0.1254
   98MOL    C5240986   3.592   5.827   6.969 -0.0645 -0.1399  0.0394
   98MOL    H5340987   3.471   5.054   6.823  0.5590  1.2422  1.2435
   98MOL    H5440988   3.318   5.083   6.901  1.7801  3.0784  0.7247
   98MOL    H5540989   3.246   5.215   6.685  0.2659 -1.2739 -1.5333
   98MOL    H5640990   3.552   5.405   7.053 -0.6298  0.1598  0.8165
   98MOL    H5740991   3.401   5.459   7.050  0.4725 -2.7380  0.5519
   98MOL    H5840992   3.597   5.579   6.855 -0.6664 -1.2702 -0.6815
   98MOL    H5940993   3.423   5.627   6.891  0.3319  0.4416  0.4026
   98MOL    H6040994   3.645   5.647   7.089 -0.0403  1.3367  1.7377
   98MOL    H6140995   3.482   5.697   7.110 -2.1002 -0.8520 -2.4046
   98MOL    H6240996   3.510   5.870   6.913 -2.7762 -2.3866  2.1113
   98MOL    H6340997   3.670   5.810   6.895  0.5465  3.3236 -0.1858
   98MOL    H6440998   3.637   5.891   7.045 -2.6101  1.9327 -0.1652
   98MOL    C6540999   3.433   5.225   6.614 -0.2163 -0.2664 -0.2481
   98MOL    C6641000   3.398   5.340   6.513 -0.4990  0.1197 -0.1820
   98MOL    C6741001   3.256   5.346   6.467 -0.1626 -0.0866  0.3239
   98MOL    O6841002   3.153   5.360   6.537 -0.5413 -0.3841 -0.6486
   98MOL    O6941003   3.251   5.339   6.335  0.2901 -0.3684 -0.7148
   98MOL    C7041004   3.132   5.340   6.258  0.2516  0.9790  0.4365
   98MOL    C7141005   3.168   5.423   6.130  0.3960  0.4506  0.4670
   98MOL    C7241006   3.160   5.573   6.171 -0.3451  0.0282  0.3831
   98MOL    C7341007   3.239   5.670   6.086  0.0091 -0.1394 -0.4210
   98MOL    H7441008   3.427   5.138   6.547 -1.2631  0.6211 -1.3363
   98MOL    H7541009   3.539   5.236   6.639 -0.2415 -1.3637  0.4011
   98MOL    H7641010   3.448   5.295   6.427 -0.5482 -3.6224  1.6484
   98MOL    H7741011   3.053   5.386   6.318 -1.2590 -0.8123 -0.1102
   98MOL    H7841012   3.093   5.241   6.237 -0.5278  1.2100  0.7599
   98MOL    H7941013   3.264   5.392   6.090 -1.0874 -0.7267 -2.3142
   98MOL    H8041014   3.094   5.413   6.051  1.1456 -0.0991 -0.1703
   98MOL    H8141015   3.203   5.577   6.272 -2.1610  0.0909  1.1691
   98MOL    H8241016   3.058   5.602   6.196 -0.5810  0.8265 -1.4364
   98MOL    H8341017   3.230   5.768   6.135 -1.5457 -1.2105  1.5017
   98MOL    H8441018   3.197   5.683   5.987 -0.4134  0.0057 -0.2264
   98MOL    H8541019   3.340   5.631   6.071 -0.1981 -0.7328 -0.2779
   98MOL    C8641020   3.466   5.471   6.557  0.5459  0.2206 -0.2942
   98MOL    C8741021   3.484   5.580   6.448  0.0697 -0.2753 -0.0660
   98MOL    C8841022   3.544   5.712   6.500  1.0672 -0.4311  0.0299
   98MOL    O8941023   3.615   5.721   6.603  0.0586  0.0375 -0.3930
   98MOL    O9041024   3.519   5.811   6.417 -0.3619 -0.3376 -0.6005
   98MOL    C9141025   3.559   5.947   6.461 -0.1355 -0.4848  0.7993
   98MOL    C9241026   3.465   6.005   6.570  0.0911  0.1047 -0.6845
   98MOL    C9341027   3.505   6.142   6.612  0.4865  0.5170 -0.5131
   98MOL    C9441028   3.425   6.187   6.734 -0.0687  1.0502 -0.8335
   98MOL    H9541029   3.564   5.450   6.599  0.7686  0.8620 -0.4954
   98MOL    H9641030   3.399   5.500   6.638  2.7395 -0.4385  1.7996
   98MOL    H9741031   3.392   5.628   6.416 -0.0846 -0.4068  0.1805
   98MOL    H9841032   3.553   6.017   6.377 -4.7154 -0.4431  1.0184
   98MOL    H9941033   3.665   5.951   6.483  0.3317  0.1642 -1.3973
   98MOL   H10041034   3.371   6.015   6.515 -2.5711 -1.6328  3.3552
   98MOL   H10141035   3.458   5.935   6.653 -0.7616 -1.1748 -1.7937
   98MOL   H10241036   3.481   6.215   6.535  0.1960  1.6589  0.6490
   98MOL   H10341037   3.613   6.137   6.626  0.6019 -1.2392 -1.8125
   98MOL   H10441038   3.464   6.281   6.773 -1.0572  0.5877  1.3163
   98MOL   H10541039   3.427   6.116   6.817 -0.9840  0.1044 -1.6053
   98MOL   H10641040   3.321   6.201   6.705 -0.4592  1.9101  0.9465
   98MOL   C10741041   3.554   5.536   6.308 -0.5348  0.4817 -0.6499
   98MOL   C10841042   3.701   5.499   6.322 -0.3135 -0.0730 -0.3029
   98MOL   C10941043   3.720   5.345   6.329 -0.0651  0.4018  0.4775
   98MOL   O11041044   3.780   5.301   6.431 -0.1148  0.3275  0.0258
   98MOL   O11141045   3.671   5.276   6.229 -0.6871  0.2238  0.0979
   98MOL   C11241046   3.697   5.135   6.216  0.4433 -0.0430  0.3491
   98MOL   C11341047   3.584   5.065   6.296  0.6998  0.3811 -0.3986
   98MOL   C11441048   3.452   5.061   6.216 -0.1712 -0.0543  0.2295
   98MOL   C11541049   3.336   4.997   6.297 -0.1683 -0.3653  0.1005
   98MOL   H11641050   3.536   5.605   6.226 -0.8105 -0.2679 -1.2256
   98MOL   H11741051   3.508   5.444   6.274 -0.4608  0.3706 -0.4494
   98MOL   H11841052   3.740   5.540   6.415 -0.5222 -2.3896  0.8449
   98MOL   H11941053   3.795   5.112   6.256  0.4970 -1.2510 -0.4616
   98MOL   H12041054   3.689   5.105   6.112 -1.0847 -0.4143  0.5639
   98MOL   H12141055   3.613   4.967   6.334 -0.4104  0.7482  1.4467
   98MOL   H12241056   3.563   5.116   6.390  0.9611  1.2479 -0.8002
   98MOL   H12341057   3.465   5.000   6.126  2.6923 -0.7890  1.0969
   98MOL   H12441058   3.436   5.158   6.168  0.4216  0.0304  0.1900
   98MOL   H12541059   3.359   4.907   6.354  0.5322  0.8397  1.7467
   98MOL   H12641060   3.260   4.968   6.224 -1.7355 -1.0606  1.9762
   98MOL   H12741061   3.288   5.072   6.360 -0.9778  0.5841 -1.5812
   98MOL   C12841062   3.786   5.548   6.203 -0.3662 -0.3195 -0.7479
   98MOL   C12941063   3.794   5.700   6.200  0.0838  0.8181  0.2092
   98MOL   C13041064   3.879   5.749   6.317 -0.0575 -1.0126 -0.9252
   98MOL   O13141065   3.965   5.679   6.371  0.4436  0.0393  0.1002
   98MOL   O13241066   3.852   5.875   6.353 -0.3728 -0.7116  0.6662
   98MOL   C13341067   3.923   5.951   6.447 -0.2584  0.8136 -0.6110
   98MOL   C13441068   3.927   5.886   6.592 -0.2765  0.3692 -0.1698
   98MOL   C13541069   4.012   5.964   6.693 -0.4799 -0.4612  0.0607
   98MOL   C13641070   4.023   5.897   6.831  0.1000 -0.0123  0.0265
   98MOL   H13741071   3.747   5.520   6.105 -0.6015 -0.9006 -0.4890
   98MOL   H13841072   3.882   5.497   6.202 -1.1206 -1.7793 -0.2543
   98MOL   H13941073   3.693   5.739   6.212 -1.4921 -2.5375 -1.5298
   98MOL   H14041074   3.867   6.043   6.459 -1.5012  0.1205 -1.0597
   98MOL   H14141075   4.024   5.977   6.413 -0.6999  1.8101 -1.1663
   98MOL   H14241076   3.828   5.870   6.633  1.0030 -0.5433  2.7560
   98MOL   H14341077   3.960   5.783   6.578  1.0508  0.8260 -0.4914
   98MOL   H14441078   3.959   6.058   6.703  2.1028  1.0592 -0.0127
   98MOL   H14541079   4.114   5.981   6.658 -0.2257 -1.1981  0.4286
   98MOL   H14641080   4.048   5.792   6.813  0.6356 -0.0245  0.8409
   98MOL   H14741081   3.925   5.902   6.878  1.0123 -2.0320  2.2611
   98MOL   H14841082   4.097   5.946   6.893 -0.5999  2.4248 -1.0187
   98MOL   C14941083   3.858   5.756   6.065  0.0385 -0.9703 -0.1110
   98MOL   C15041084   3.818   5.895   6.024  0.0852  0.2648 -0.6891
   98MOL   C15141085   3.915   5.946   5.910 -0.0891  0.1324 -0.6365
   98MOL   O15241086   3.868   5.956   5.790 -0.1681 -0.1359 -0.7213
   98MOL   O15341087   4.042   5.968   5.952  0.0722  0.0693  0.7003
   98MOL   C15441088   4.140   6.021   5.866 -0.3699 -0.5386  0.9857
   98MOL   C15541089   4.220   6.130   5.945  0.2582 -0.3157  0.7244
   98MOL   C15641090   4.326   6.194   5.846 -0.6862 -0.1688 -0.0489
   98MOL   C15741091   4.411   6.303   5.908  0.6050 -0.5562  0.1642
   98MOL   H15841092   3.835   5.686   5.986  1.5610 -2.1952  0.4972
   98MOL   H15941093   3.967   5.757   6.076  0.2391 -0.7551 -1.9548
   98MOL   H16041094   3.828   5.956   6.114  1.6868  1.3948 -1.5860
   98MOL   H16141095   4.090   6.067   5.780  2.7143  0.1451 -0.5493
   98MOL   H16241096   4.212   5.951   5.824  2.1939  1.9920  0.9936
   98MOL   H16341097   4.166   6.221   5.971  2.7917  0.9029  1.8860
   98MOL   H16441098   4.262   6.086   6.036  0.2506  0.4296  1.0897
   98MOL   H16541099   4.272   6.232   5.759  3.3086 -0.6174 -2.8787
   98MOL   H16641100   4.387   6.111   5.808 -1.7179 -0.9491 -0.0232
   98MOL   H16741101   4.477   6.262   5.985  0.4369 -0.2891  0.4511
   98MOL   H16841102   4.355   6.381   5.958 -0.4512  0.0150 -1.8627
   98MOL   H16941103   4.472   6.352   5.832 -0.3856  0.1243 -0.2080
   98MOL   C17041104   3.670   5.907   6.002 -0.4495 -0.7735  0.1344
   98MOL   C17141105   3.612   6.044   5.958 -0.7318  0.4093  0.0759
   98MOL   C17241106   3.457   6.022   5.924  0.7898  0.6118  0.4673
   98MOL   O17341107   3.374   5.991   6.008 -0.1185  0.3653  0.0886
   98MOL   O17441108   3.437   6.034   5.791 -0.4733  0.6840  0.5635
   98MOL   C17541109   3.311   6.022   5.733  0.3675 -0.6859  0.0336
   98MOL   C17641110   3.236   5.889   5.753 -0.5088 -0.0130  0.3134
   98MOL   C17741111   3.109   5.877   5.659  0.1107  0.4354 -0.1789
   98MOL   C17841112   3.027   5.742   5.684 -0.1799  0.0446  0.4414
   98MOL   H17941113   3.620   5.885   6.097  1.8121 -0.3250  1.4820
   98MOL   H18041114   3.649   5.832   5.926 -1.5378 -1.2861  0.9141
   98MOL   H18141115   3.655   6.076   5.864 -0.4232  1.1791  0.4720
   98MOL   H18241116   3.313   6.050   5.628 -0.0996  0.4503  0.3136
   98MOL   H18341117   3.247   6.100   5.775 -0.7810 -1.0486 -1.0390
   98MOL   H18441118   3.293   5.798   5.735  1.0171  0.9019  0.4173
   98MOL   H18541119   3.198   5.870   5.853  1.3075  0.2605  1.0573
   98MOL   H18641120   3.157   5.876   5.561  0.4053  1.6592 -0.0576
   98MOL   H18741121   3.038   5.959   5.656  1.6890  1.7896 -2.8798
   98MOL   H18841122   2.976   5.746   5.780 -1.1571 -2.6385  0.0805
   98MOL   H18941123   3.092   5.658   5.661 -0.5032 -0.1685  0.2866
   98MOL   H19041124   2.948   5.731   5.609  1.2881  0.6294 -1.2227
   98MOL   C19141125   3.636   6.164   6.056  0.4025  0.4240 -0.2176
   98MOL   C19241126   3.592   6.313   6.005  0.0487  0.4231 -0.0602
   98MOL   C19341127   3.442   6.336   6.007  0.7457 -0.5723 -0.0291
   98MOL   O19441128   3.380   6.363   5.902 -0.6111 -0.0535 -0.0058
   98MOL   O19541129   3.389   6.329   6.121  0.6898 -0.1941 -0.6655
   98MOL   C19641130   3.249   6.297   6.132 -0.6876 -0.3032 -0.0030
   98MOL   C19741131   3.223   6.248   6.265  0.2237 -0.4962 -0.4110
   98MOL   C19841132   3.078   6.212   6.302 -0.0082  0.2869 -0.1621
   98MOL   C19941133   3.064   6.080   6.383  0.1188 -0.3257 -0.9060
   98MOL   H20041134   3.741   6.169   6.083  0.7535 -2.6238 -0.8626
   98MOL   H20141135   3.583   6.143   6.149 -0.5698  0.6014 -0.7239
   98MOL   H20241136   3.616   6.312   5.899 -2.4244 -0.4387 -0.6610
   98MOL   H20341137   3.214   6.229   6.055  0.8768 -1.7327  0.5261
   98MOL   H20441138   3.192   6.389   6.116 -0.8500 -0.4550 -0.3109
   98MOL   H20541139   3.280   6.156   6.272  1.4367  0.4529  3.1668
   98MOL   H20641140   3.261   6.307   6.349 -0.8509  1.1390 -1.0430
   98MOL   H20741141   3.021   6.187   6.213 -1.3873  0.0916  0.7667
   98MOL   H20841142   3.030   6.296   6.353  0.5537  0.0267  0.8248
   98MOL   H20941143   3.108   5.997   6.328 -0.6036  0.3796 -2.5921
   98MOL   H21041144   2.961   6.051   6.401  0.5180 -1.2673 -0.0608
   98MOL   H21141145   3.100   6.081   6.486  0.0213  0.3238 -0.8759
   98MOL   C21241146   3.672   6.419   6.085 -0.2438 -0.9187 -0.0734
   98MOL   C21341147   3.757   6.526   6.002 -0.0283 -0.1233 -0.0266
   98MOL   C21441148   3.869   6.450   5.923 -0.0469 -0.0533  0.5680
   98MOL   O21541149   3.896   6.331   5.943 -0.0367  0.0412  0.1978
   98MOL   O21641150   3.944   6.528   5.841 -0.0701  0.5057  0.0118
   98MOL   C21741151   4.057   6.483   5.764 -0.7451 -0.2726 -0.1113
   98MOL   C21841152   4.121   6.605   5.706  0.7500 -0.5012  0.1726
   98MOL   C21941153   4.197   6.705   5.801 -0.2529 -0.2330 -0.0672
   98MOL   C22041154   4.232   6.838   5.725 -0.7947 -0.4529  0.8636
   98MOL   H22141155   3.734   6.386   6.169  1.3022 -2.2170 -1.6940
   98MOL   H22241156   3.595   6.469   6.145 -1.4369  0.5252 -2.7429
   98MOL   H22341157   3.806   6.587   6.079  0.4314 -0.0011 -0.4143
   98MOL   H22441158   4.012   6.416   5.690 -0.9293 -1.0257  0.6769
   98MOL   H22541159   4.127   6.421   5.820  0.6143  2.0357  0.8218
   98MOL   H22641160   4.181   6.595   5.615  0.4813  1.7272 -0.2902
   98MOL   H22741161   4.038   6.661   5.664 -0.4864 -1.9952  0.5741
   98MOL   H22841162   4.282   6.662   5.855 -1.3673 -0.5594  1.4556
   98MOL   H22941163   4.127   6.731   5.880  0.3504  2.1293 -0.2765
   98MOL   H23041164   4.311   6.829   5.649 -0.4148  2.5361  0.8695
   98MOL   H23141165   4.262   6.922   5.788  2.2259  1.3795 -2.7777
   98MOL   H23241166   4.152   6.877   5.662  0.4807 -1.7751 -1.6655
   98MOL   C23341167   3.663   6.602   5.899 -0.0034 -0.3628  0.0881
   98MOL   C23441168   3.622   6.750   5.944 -0.4468 -0.1705  0.2757
   98MOL   C23541169   3.744   6.841   5.959 -0.4028 -0.8911 -1.0195
   98MOL   O23641170   3.761   6.909   6.060 -0.4901  0.4701  0.1965
   98MOL   O23741171   3.825   6.850   5.857  0.1670 -0.3933  0.2701
   98MOL   C23841172   3.908   6.963   5.838  0.1424 -0.1260  0.3680
   98MOL   C23941173   3.901   7.008   5.689  0.9017 -0.6203  0.6075
   98MOL   C24041174   3.779   7.092   5.647  0.0449 -0.0947  0.5465
   98MOL   C24141175   3.765   7.115   5.503 -0.0507  1.2318 -0.2930
   98MOL   H24241176   3.578   6.546   5.858  0.4672 -1.9196  1.1800
   98MOL   H24341177   3.720   6.608   5.806 -0.6336 -0.4483 -0.3089
   98MOL   H24441178   3.585   6.746   6.046 -2.2860 -0.5165 -0.3790
   98MOL   H24541179   4.006   6.931   5.873 -0.1397 -0.6437  0.6820
   98MOL   H24641180   3.883   7.049   5.900 -1.9394  2.2172 -3.4879
   98MOL   H24741181   3.992   7.059   5.657  1.0060 -1.5460 -0.6339
   98MOL   H24841182   3.902   6.920   5.624  0.4443  0.6325 -1.1231
   98MOL   H24941183   3.779   7.187   5.700 -1.1040  0.2031  0.0432
   98MOL   H25041184   3.689   7.057   5.698 -0.0127 -0.1648  0.3975
   98MOL   H25141185   3.704   7.201   5.478 -0.9105  1.1575  1.4502
   98MOL   H25241186   3.720   7.021   5.469 -0.1832  1.5703 -1.0670
   98MOL   H25341187   3.860   7.109   5.450 -0.4435 -0.8116 -0.8072
   98MOL   C25441188   3.521   6.812   5.839  0.5804 -0.1193  0.3247
   98MOL   C25541189   3.376   6.760   5.854  0.2358 -0.3695 -0.2989
   98MOL   C25641190   3.301   6.808   5.983 -0.5691 -0.3642  0.3338
   98MOL   O25741191   3.259   6.922   6.001 -0.0342 -0.4915  0.4850
   98MOL   O25841192   3.316   6.713   6.077 -0.3688 -0.5877 -0.7967
   98MOL   C25941193   3.241   6.723   6.195 -0.0906 -0.5552 -0.7564
   98MOL   C26041194   3.294   6.621   6.302  0.5474 -0.1373  0.1488
   98MOL   C26141195   3.434   6.657   6.345  0.2472 -0.1504 -0.6009
   98MOL   C26241196   3.494   6.550   6.439 -0.1496  0.0568  0.1268
   98MOL   H26341197   3.546   6.786   5.736  2.1160  0.7325  0.4783
   98MOL   H26441198   3.527   6.920   5.849  1.4201 -0.2099  0.7558
   98MOL   H26541199   3.385   6.651   5.852 -0.8889 -0.4733  0.1153
   98MOL   H26641200   3.136   6.697   6.183  0.0174 -1.8781  1.0359
   98MOL   H26741201   3.262   6.823   6.233  3.6995 -1.9363  1.1786
   98MOL   H26841202   3.224   6.631   6.385 -1.9728  1.6587 -2.0937
   98MOL   H26941203   3.296   6.520   6.261 -1.0715 -0.2676  0.3472
   98MOL   H27041204   3.440   6.759   6.383  0.6286  0.0859 -1.2897
   98MOL   H27141205   3.505   6.661   6.263 -0.3741  0.3189 -1.1166
   98MOL   H27241206   3.428   6.538   6.525  0.8662  2.2717  1.2530
   98MOL   H27341207   3.584   6.589   6.485 -0.0117 -0.3008  0.1632
   98MOL   H27441208   3.518   6.460   6.382  1.1211 -0.3745  1.3240
   98MOL   C27541209   3.288   6.802   5.737  0.4005 -0.2895  0.6154
   98MOL   C27641210   3.310   6.716   5.603  0.2546 -0.6812  0.1308
   98MOL   C27741211   3.269   6.569   5.628  0.3821 -0.6575  0.2088
   98MOL   O27841212   3.190   6.545   5.717  0.4186 -0.2528 -0.9072
   98MOL   O27941213   3.323   6.484   5.551 -0.1039  0.0080  0.0043
   98MOL   C28041214   3.316   6.346   5.581 -0.0462  0.1082 -0.0117
   98MOL   C28141215   3.339   6.262   5.446 -0.2674 -0.1588  0.7666
   98MOL   C28241216   3.223   6.279   5.342 -0.0406  0.2507  0.4083
   98MOL   C28341217   3.234   6.195   5.217  0.4556  0.1412 -0.6716
   98MOL   H28441218   3.317   6.904   5.710  1.5815 -0.5974  0.7115
   98MOL   H28541219   3.180   6.808   5.755  0.1036 -1.6522 -0.6940
   98MOL   H28641220   3.418   6.711   5.588  0.3944  1.2000  0.3581
   98MOL   H28741221   3.217   6.321   5.620 -0.0221  0.3948  0.2321
   98MOL   H28841222   3.379   6.320   5.666 -1.2467 -0.1777  0.8025
   98MOL   H28941223   3.439   6.282   5.405 -0.9814 -2.4346 -2.2904
   98MOL   H29041224   3.356   6.156   5.462  0.4506 -0.4413 -1.6140
   98MOL   H29141225   3.225   6.377   5.294 -0.7243  0.6701  1.2266
   98MOL   H29241226   3.126   6.268   5.391 -1.4739 -1.3684 -2.6717
   98MOL   H29341227   3.163   6.218   5.138 -0.9337 -1.1366  0.1674
   98MOL   H29441228   3.233   6.087   5.234 -1.4950  0.1913 -0.3209
   98MOL   H29541229   3.331   6.221   5.174 -0.4469 -0.1993 -2.9755
   98MOL   C29641230   3.248   6.785   5.479 -0.0029 -0.4545 -0.0132
   98MOL   C29741231   3.315   6.748   5.341  0.9764 -0.2152 -0.4212
   98MOL   C29841232   3.206   6.748   5.229  0.6140 -0.1357  0.2605
   98MOL   O29941233   3.185   6.828   5.133  0.1911  0.0639  0.8734
   98MOL   O30041234   3.129   6.638   5.243 -0.4556 -0.0042 -0.4723
   98MOL   C30141235   2.996   6.634   5.194 -0.0875 -0.3650  0.7326
   98MOL   C30241236   2.933   6.510   5.256  0.6243  0.0685 -0.4052
   98MOL   C30341237   2.920   6.514   5.406  0.2882  0.1565  0.4882
   98MOL   C30441238   2.856   6.398   5.482 -0.7194 -0.0345 -0.0105
   98MOL   H30541239   3.254   6.894   5.484  0.5564 -0.4304 -1.1535
   98MOL   H30641240   3.145   6.755   5.498 -0.1221  0.9942  1.8053
   98MOL   H30741241   3.342   6.642   5.341 -1.2952 -0.8051 -0.9228
   98MOL   H30841242   3.010   6.619   5.087 -0.9424  0.4286  0.5047
   98MOL   H30941243   2.943   6.727   5.211 -0.3818 -0.7604  2.0279
   98MOL   H31041244   2.834   6.515   5.209  0.8220 -1.2146 -0.9687
   98MOL   H31141245   2.982   6.421   5.217  2.2868  1.6091 -1.9411
   98MOL   H31241246   2.870   6.609   5.424  0.5653  0.0261  1.9566
   98MOL   H31341247   3.020   6.517   5.451  2.0672 -4.2592 -2.7474
   98MOL   H31441248   2.821   6.429   5.580 -2.6213 -1.4615 -0.2012
   98MOL   H31541249   2.935   6.323   5.488 -2.4739 -1.8231  1.0204
   98MOL   H31641250   2.770   6.350   5.436 -1.0569  1.3572 -0.8733
   98MOL   C31741251   3.444   6.821   5.297 -0.3508 -0.2099  0.3978
   98MOL   C31841252   3.558   6.733   5.231 -0.7262 -0.1712  0.0034
   98MOL   C31941253   3.647   6.820   5.149  0.3991  0.0303 -0.1243
   98MOL   O32041254   3.675   6.789   5.031 -0.0532 -0.0572 -0.1805
   98MOL   O32141255   3.700   6.921   5.225 -1.0224 -0.2220 -0.6012
   98MOL   C32241256   3.816   6.998   5.176 -0.3796  0.0443 -0.2923
   98MOL   C32341257   3.955   6.931   5.188 -0.6252 -0.1177  0.4506
   98MOL   C32441258   3.983   6.852   5.316  0.2232  0.4270  1.4083
   98MOL   C32541259   4.093   6.742   5.312  0.1791  0.0545 -0.1241
   98MOL   H32641260   3.482   6.857   5.392  1.6083  0.2367 -0.5481
   98MOL   H32741261   3.425   6.917   5.248  2.1144  0.2039  0.2031
   98MOL   H32841262   3.499   6.661   5.174  1.3834 -0.9540 -1.2762
   98MOL   H32941263   3.827   7.089   5.235  2.9541  0.2151 -1.0818
   98MOL   H33041264   3.800   7.037   5.075 -0.2224 -3.2785 -1.6510
   98MOL   H33141265   3.970   6.861   5.106 -1.2761 -0.7908  0.9001
   98MOL   H33241266   4.024   7.015   5.177 -0.6250 -0.0365  1.0240
   98MOL   H33341267   3.894   6.808   5.361  0.0474 -0.6190  0.0723
   98MOL   H33441268   4.019   6.928   5.386  0.8966  0.7958  0.6687
   98MOL   H33541269   4.130   6.721   5.413  0.0962 -1.3150 -0.3684
   98MOL   H33641270   4.174   6.779   5.250  1.7098 -2.1949  0.4577
   98MOL   H33741271   4.055   6.646   5.278 -1.3962 -0.0517  1.8151
   98MOL   C33841272   3.635   6.653   5.340  0.4129 -0.3097  0.3877
   98MOL   C33941273   3.719   6.540   5.286 -0.1395 -0.2852 -0.6412
   98MOL   C34041274   3.774   6.470   5.408 -0.2083  0.2285  0.2394
   98MOL   O34141275   3.887   6.493   5.454 -0.1294 -0.0516  0.9127
   98MOL   O34241276   3.690   6.381   5.459 -0.1786  0.5698 -0.0950
   98MOL   C34341277   3.738   6.303   5.571  0.5257 -0.4014 -0.0784
   98MOL   C34441278   3.667   6.166   5.573  0.3161 -0.6192  0.1340
   98MOL   C34541279   3.721   6.077   5.464 -0.4087 -0.9746 -0.3931
   98MOL   C34641280   3.641   5.946   5.430 -0.0533  0.4716  0.0968
   98MOL   H34741281   3.558   6.614   5.407  1.9683 -3.5311  0.3612
   98MOL   H34841282   3.699   6.714   5.404  0.1016 -1.0557  1.4187
   98MOL   H34941283   3.812   6.582   5.248  0.0482  2.4856  2.6101
   98MOL   H35041284   3.711   6.356   5.663  0.5755  0.5753 -0.6169
   98MOL   H35141285   3.846   6.293   5.565  0.3447 -2.1496 -0.7540
   98MOL   H35241286   3.706   6.127   5.666  0.2343  2.8369  1.7144
   98MOL   H35341287   3.558   6.167   5.567  0.3898 -1.2735 -1.7399
   98MOL   H35441288   3.821   6.049   5.496 -1.1504 -1.3217  1.6518
   98MOL   H35541289   3.731   6.124   5.366 -0.5412 -1.9736 -0.8970
   98MOL   H35641290   3.617   5.888   5.519 -1.8250 -0.8142 -1.1814
   98MOL   H35741291   3.699   5.873   5.374  0.0210  1.4677 -1.1608
   98MOL   H35841292   3.546   5.964   5.379  0.2699  1.8670 -0.0465
   98MOL   C35941293   3.645   6.445   5.189 -0.1668  0.3829  0.4155
   98MOL   C36041294   3.740   6.332   5.132  0.4403  1.2481  0.2293
   98MOL   C36141295   3.663   6.223   5.055  0.2973  0.1314  0.6449
   98MOL   O36241296   3.673   6.109   5.099 -0.2984 -0.1282  0.3045
   98MOL   O36341297   3.586   6.265   4.950  0.3265 -0.0456  0.7417
   98MOL   C36441298   3.497   6.183   4.880  0.1325  0.3346  0.7051
   98MOL   C36541299   3.417   6.269   4.781 -0.7061  0.1136 -0.9487
   98MOL   C36641300   3.320   6.379   4.835 -0.8960  0.6286 -0.2746
   98MOL   C36741301   3.238   6.455   4.731  0.1262 -0.0951  0.0212
   98MOL   H36841302   3.623   6.503   5.100 -0.1134  1.2026  0.9331
   98MOL   H36941303   3.547   6.419   5.228 -0.5159 -0.1101 -0.7523
   98MOL   H37041304   3.783   6.271   5.212 -0.6234 -0.9194 -0.8271
   98MOL   H37141305   3.421   6.145   4.949 -0.1184 -0.1482  0.1614
   98MOL   H37241306   3.555   6.104   4.834  2.2708  2.2240  0.0574
   98MOL   H37341307   3.485   6.318   4.710 -2.4027  2.1044 -1.2625
   98MOL   H37441308   3.359   6.197   4.724 -1.3642 -0.6036  0.6263
   98MOL   H37541309   3.360   6.448   4.909 -1.6471  1.1064 -0.3097
   98MOL   H37641310   3.242   6.327   4.890  1.6151 -1.2351  1.6219
   98MOL   H37741311   3.212   6.406   4.636  1.3136  0.4491 -0.5905
   98MOL   H37841312   3.280   6.552   4.703 -4.2109  2.3463  1.4013
   98MOL   H37941313   3.142   6.489   4.770  1.7103  2.7498  1.5690
   98MOL   C38041314   3.852   6.388   5.040  0.1119 -0.6300  0.1910
   98MOL   C38141315   3.981   6.312   5.035  0.0615  0.6131  0.2307
   98MOL   C38241316   4.067   6.346   5.162  0.1167  0.1470 -0.7068
   98MOL   O38341317   4.156   6.429   5.150  0.4171 -0.0007 -0.1045
   98MOL   O38441318   4.042   6.280   5.273 -0.6557  0.3104  0.2229
   98MOL   C38541319   4.139   6.285   5.377 -0.3545  0.3072 -0.7955
   98MOL   C38641320   4.126   6.165   5.474 -0.0345  0.1284 -0.2893
   98MOL   C38741321   4.157   6.023   5.406  0.6352  0.6833 -0.8304
   98MOL   C38841322   4.160   5.900   5.497 -0.1017 -0.4886 -0.4255
   98MOL   H38941323   3.861   6.493   5.067 -4.3232  0.0503 -0.6020
   98MOL   H39041324   3.817   6.410   4.939  1.8217  0.0912 -0.2763
   98MOL   H39141325   4.051   6.358   4.965 -0.0585  0.5973  0.1006
   98MOL   H39241326   4.119   6.381   5.425 -1.2809  1.0436 -2.5939
   98MOL   H39341327   4.240   6.292   5.337  0.5963  1.7096  1.7107
   98MOL   H39441328   4.196   6.183   5.556  0.2509  2.5061 -1.0144
   98MOL   H39541329   4.022   6.155   5.505  0.1236  2.3336  1.0750
   98MOL   H39641330   4.252   6.017   5.352  0.9057 -1.1066 -0.1864
   98MOL   H39741331   4.085   6.003   5.327  1.0621 -0.6391 -0.9013
   98MOL   H39841332   4.249   5.919   5.556 -1.0509  3.5901 -0.1506
   98MOL   H39941333   4.174   5.806   5.443  1.0392  0.7436 -2.2834
   98MOL   H40041334   4.083   5.888   5.574  1.3772  1.7243  1.4910
   98MOL   C40141335   3.982   6.163   4.992 -0.9594  0.4630  0.4202
   98MOL   C40241336   4.125   6.115   4.967  0.3401  0.8380  0.2600
   98MOL   C40341337   4.150   6.047   4.829  0.4499 -0.7527 -0.6644
   98MOL   O40441338   4.151   5.927   4.816  0.0855 -0.8520  0.4962
   98MOL   O40541339   4.168   6.139   4.732 -0.4133  0.3372 -0.5561
   98MOL   C40641340   4.215   6.114   4.604 -0.2293  0.4441  0.2593
   98MOL   C40741341   4.371   6.114   4.601  0.4257  0.0484  0.0480
   98MOL   C40841342   4.431   6.245   4.654 -0.0877  0.2371  0.6283
   98MOL   C40941343   4.576   6.247   4.628 -0.3057 -0.1410 -0.1697
   98MOL   H41041344   3.929   6.148   4.898  0.0769 -0.5991  0.0042
   98MOL   H41141345   3.938   6.092   5.062 -1.8490  0.4824 -0.1101
   98MOL   H41241346   4.151   6.037   5.040 -2.0770 -1.3126 -1.0948
   98MOL   H41341347   4.173   6.195   4.544  0.7040  0.8653  0.1571
   98MOL   H41441348   4.159   6.031   4.561  1.0459 -1.1338  1.5917
   98MOL   H41541349   4.405   6.034   4.666  1.5689  2.0977  2.0808
   98MOL   H41641350   4.408   6.097   4.500  2.2295 -0.2970  0.7543
   98MOL   H41741351   4.388   6.263   4.752 -0.8804  0.9753  0.1524
   98MOL   H41841352   4.394   6.322   4.586 -2.3536 -1.1718  0.1878
   98MOL   H41941353   4.619   6.158   4.673 -0.7345 -0.2884 -0.0551
   98MOL   H42041354   4.625   6.338   4.663 -0.3244  0.6133 -2.0078
   98MOL   H42141355   4.590   6.234   4.520  0.2948 -3.3412  0.2588
   98MOL   H42241356   4.189   6.202   4.980  0.6241  0.9225 -1.6536
   99MOL     C141357   1.208   5.348   3.359  0.2098 -0.4430 -0.1672
   99MOL     C241358   1.278   5.309   3.234  0.0655  0.4114 -0.3972
   99MOL     C341359   1.251   5.166   3.192  0.9450  0.5127  0.5911
   99MOL     O441360   1.340   5.087   3.176 -0.1749  0.4005 -0.3714
   99MOL     O541361   1.124   5.140   3.167 -0.2796  0.1145  0.4849
   99MOL     C641362   1.081   5.003   3.143 -0.3179  0.0357 -0.3838
   99MOL     C741363   0.925   5.009   3.152 -0.2974  0.4059 -0.1228
   99MOL     C841364   0.872   5.054   3.282 -0.1397 -0.4345 -0.1624
   99MOL     C941365   0.720   5.077   3.266  0.0476 -0.5661 -0.2324
   99MOL    H1041366   1.105   5.313   3.360 -0.6953  2.1737  1.7573
   99MOL    H1141367   1.266   5.306   3.442  0.9280  1.5077  0.3500
   99MOL    H1241368   1.380   5.311   3.273  0.2557 -0.9614 -0.7881
   99MOL    H1341369   1.126   4.945   3.223  0.1364  0.1812 -0.5327
   99MOL    H1441370   1.115   4.969   3.045  3.1021  2.5985 -0.1743
   99MOL    H1541371   0.891   5.066   3.066  0.1577  0.6755 -0.1228
   99MOL    H1641372   0.893   4.908   3.124  1.3508  0.1912 -1.3339
   99MOL    H1741373   0.911   5.154   3.299 -2.0664  0.0396  1.6732
   99MOL    H1841374   0.897   5.000   3.374  2.2768  1.4042  0.3102
   99MOL    H1941375   0.668   5.117   3.353  2.0610 -0.0867  0.7803
   99MOL    H2041376   0.667   4.993   3.221 -0.4362  0.6536 -2.0167
   99MOL    H2141377   0.718   5.163   3.198 -1.4960 -1.0231 -0.7937
   99MOL    H2241378   1.199   5.456   3.368 -1.9550 -0.5083 -1.2026
   99MOL    C2341379   1.283   5.410   3.113 -0.1420  0.5844 -0.0026
   99MOL    C2441380   1.142   5.442   3.050 -0.1011 -0.4643  0.1956
   99MOL    C2541381   1.064   5.565   3.116 -0.5666 -0.1857  1.2770
   99MOL    O2641382   1.117   5.640   3.197 -0.1977 -0.0317 -0.5083
   99MOL    O2741383   0.931   5.576   3.071  0.9783  0.0525 -0.4613
   99MOL    C2841384   0.847   5.679   3.118  0.1033 -0.4068 -0.9782
   99MOL    C2941385   0.706   5.625   3.099 -0.4774 -0.3315 -0.2281
   99MOL    C3041386   0.689   5.492   3.176  0.5210 -0.3617  0.4982
   99MOL    C3141387   0.550   5.421   3.161  0.6374  0.2895  0.6041
   99MOL    H3241388   1.352   5.361   3.044 -1.5292 -1.5170  0.0309
   99MOL    H3341389   1.337   5.497   3.149 -1.0802  0.5323  1.6119
   99MOL    H3441390   1.080   5.353   3.059 -0.3549 -0.0969  2.6987
   99MOL    H3541391   0.877   5.773   3.073  0.2150  0.8512  1.6033
   99MOL    H3641392   0.875   5.707   3.220  1.3100 -0.3229 -1.3166
   99MOL    H3741393   0.645   5.711   3.124  1.3606  1.0647 -0.4064
   99MOL    H3841394   0.686   5.600   2.994  0.4345  0.1715 -0.5293
   99MOL    H3941395   0.708   5.517   3.280 -1.9420  0.5583  0.7754
   99MOL    H4041396   0.758   5.413   3.146 -2.1468 -2.7326  0.3849
   99MOL    H4141397   0.551   5.339   3.233  1.3209  0.6047  0.9611
   99MOL    H4241398   0.534   5.374   3.064  1.3011 -2.1901  1.6598
   99MOL    H4341399   0.470   5.491   3.184 -0.4405 -0.8823  0.4824
   99MOL    C4441400   1.172   5.471   2.901 -0.3930 -0.2122 -0.1586
   99MOL    C4541401   1.129   5.352   2.807 -0.4018  0.7908  0.4774
   99MOL    C4641402   0.975   5.338   2.785  0.1735 -0.5536 -0.2602
   99MOL    O4741403   0.918   5.232   2.806  0.5851 -0.1622 -0.1702
   99MOL    O4841404   0.920   5.452   2.739 -0.6231 -0.6224  0.0412
   99MOL    C4941405   0.780   5.446   2.717  0.2440  0.1062 -0.2409
   99MOL    C5041406   0.742   5.561   2.629  0.3310  0.2989  0.3350
   99MOL    C5141407   0.603   5.555   2.573  0.8620 -0.3313  0.7153
   99MOL    C5241408   0.567   5.674   2.477  0.0118  0.9658  0.4705
   99MOL    H5341409   1.276   5.497   2.884 -0.6420  0.5952 -0.4964
   99MOL    H5441410   1.124   5.563   2.868  0.5391 -0.2059 -1.5552
   99MOL    H5541411   1.166   5.259   2.851  2.2869  1.2637 -0.6650
   99MOL    H5641412   0.730   5.464   2.811  0.4558 -1.0906  0.1113
   99MOL    H5741413   0.743   5.346   2.692 -1.0015  0.0078  1.9352
   99MOL    H5841414   0.741   5.654   2.685 -1.2999  0.0697  0.7060
   99MOL    H5941415   0.817   5.560   2.550 -0.9837 -0.2180 -0.9382
   99MOL    H6041416   0.531   5.560   2.654 -1.3482 -1.0722 -1.1398
   99MOL    H6141417   0.585   5.463   2.518  2.6201  1.1802 -2.5648
   99MOL    H6241418   0.495   5.739   2.526 -0.0174 -0.1672  1.9230
   99MOL    H6341419   0.512   5.636   2.391 -0.2441  2.8259 -0.2286
   99MOL    H6441420   0.661   5.717   2.440  1.1304 -1.4621  0.4209
   99MOL    C6541421   1.211   5.353   2.668  0.2328  0.1313  0.2991
   99MOL    C6641422   1.360   5.325   2.691 -0.2948  0.2275  0.6704
   99MOL    C6741423   1.385   5.184   2.734 -0.3126  0.6183  0.6138
   99MOL    O6841424   1.432   5.159   2.841  0.4061 -0.0143  0.4141
   99MOL    O6941425   1.344   5.103   2.641  0.3682  0.0824 -0.0184
   99MOL    C7041426   1.375   4.962   2.649 -0.3660  0.2285 -1.1743
   99MOL    C7141427   1.253   4.885   2.696  0.0787  0.4834  0.1183
   99MOL    C7241428   1.270   4.734   2.668  0.7942 -0.0127 -0.1793
   99MOL    C7341429   1.164   4.655   2.751 -0.4207 -0.3286  0.0345
   99MOL    H7441430   1.202   5.454   2.627 -0.4818 -0.2266 -0.4397
   99MOL    H7541431   1.157   5.283   2.605 -0.8230  0.2486  1.0595
   99MOL    H7641432   1.393   5.381   2.779  0.3806  0.3017  0.3762
   99MOL    H7741433   1.460   4.946   2.715 -2.6287  1.5105  2.2007
   99MOL    H7841434   1.400   4.949   2.544  0.9512  0.8260 -0.9381
   99MOL    H7941435   1.220   4.916   2.796  3.4491  1.6225  0.9591
   99MOL    H8041436   1.169   4.913   2.633 -0.0122 -0.4141 -0.1532
   99MOL    H8141437   1.367   4.715   2.716  0.6279  0.6566  0.4407
   99MOL    H8241438   1.276   4.727   2.560 -0.1492  0.8498 -0.2906
   99MOL    H8341439   1.060   4.665   2.719 -0.8469  1.2845  1.8228
   99MOL    H8441440   1.165   4.697   2.852 -0.8817  0.3615 -0.2419
   99MOL    H8541441   1.183   4.548   2.746  0.4079 -0.0834 -3.6923
   99MOL    C8641442   1.441   5.367   2.564 -0.4348  0.6780 -0.2544
   99MOL    C8741443   1.450   5.522   2.544 -0.6653 -0.2366  0.4424
   99MOL    C8841444   1.494   5.599   2.668  0.1472 -0.2921  0.4315
   99MOL    O8941445   1.579   5.551   2.748 -0.0619 -0.2430  0.6819
   99MOL    O9041446   1.438   5.722   2.687 -0.5923  0.0700 -0.1302
   99MOL    C9141447   1.485   5.804   2.787  0.1842 -0.3875 -0.4698
   99MOL    C9241448   1.415   5.761   2.920  0.9074 -0.1349  0.3382
   99MOL    C9341449   1.443   5.877   3.022 -0.9343  0.5880 -0.2430
   99MOL    C9441450   1.344   5.868   3.131  0.0069  0.5314  0.0087
   99MOL    H9541451   1.404   5.311   2.478  1.4787 -0.0323 -0.6323
   99MOL    H9641452   1.541   5.328   2.579 -0.8320  0.2208  1.3445
   99MOL    H9741453   1.358   5.567   2.508 -0.8529 -0.7318  0.2968
   99MOL    H9841454   1.453   5.907   2.767  1.4071  0.4829  1.8702
   99MOL    H9941455   1.594   5.804   2.788  0.1977  0.0424 -1.5586
   99MOL   H10041456   1.307   5.750   2.909  1.0964 -0.3561 -1.4749
   99MOL   H10141457   1.441   5.661   2.954  2.5077 -0.0401 -0.5922
   99MOL   H10241458   1.435   5.971   2.966  2.9108  0.1509 -1.6834
   99MOL   H10341459   1.544   5.880   3.064 -1.3138 -1.4222  0.8531
   99MOL   H10441460   1.245   5.834   3.098  0.4442 -0.7882  0.0131
   99MOL   H10541461   1.330   5.965   3.179 -1.4746  0.2539  0.1910
   99MOL   H10641462   1.366   5.802   3.215  1.0047 -0.4052 -0.9816
   99MOL   C10741463   1.544   5.558   2.427 -0.2641  0.1532  0.6115
   99MOL   C10841464   1.697   5.544   2.440 -0.5455 -0.2909  0.4016
   99MOL   C10941465   1.751   5.408   2.394  0.1141 -0.1630 -0.4135
   99MOL   O11041466   1.680   5.334   2.323 -0.7087  0.1511 -0.0114
   99MOL   O11141467   1.866   5.369   2.443 -0.3232  0.1749 -0.1282
   99MOL   C11241468   1.931   5.244   2.411  0.0686 -0.0980  0.3834
   99MOL   C11341469   1.980   5.250   2.261 -1.0710 -0.7502  0.1479
   99MOL   C11441470   1.968   5.106   2.197  0.5635 -0.0018 -0.8012
   99MOL   C11541471   2.030   5.111   2.058  0.3667  0.2926  0.5109
   99MOL   H11641472   1.509   5.656   2.395 -0.2429  0.4639  1.5315
   99MOL   H11741473   1.511   5.501   2.340 -0.4196  0.3668  0.5295
   99MOL   H11841474   1.720   5.550   2.546  2.1763 -2.1627 -0.0280
   99MOL   H11941475   1.853   5.168   2.414 -0.5209  0.5413  1.9644
   99MOL   H12041476   2.018   5.222   2.472 -0.4384 -0.4391  0.9916
   99MOL   H12141477   1.913   5.317   2.208 -1.5592 -0.5320  1.0241
   99MOL   H12241478   2.079   5.294   2.257 -0.0979 -2.8792 -0.0702
   99MOL   H12341479   1.861   5.089   2.191  0.9348 -2.3761 -1.1295
   99MOL   H12441480   2.007   5.028   2.263  0.9094  0.2175 -0.7430
   99MOL   H12541481   2.002   5.204   2.008  0.1519 -0.4044 -0.6640
   99MOL   H12641482   1.997   5.024   2.002  0.4150 -0.1608  1.1885
   99MOL   H12741483   2.138   5.122   2.063  0.5409 -1.7587  2.2973
   99MOL   C12841484   1.765   5.659   2.356 -0.1494  0.6333 -0.0775
   99MOL   C12941485   1.772   5.650   2.203 -0.5235 -0.4237  0.9445
   99MOL   C13041486   1.634   5.669   2.142  0.0209  0.3640 -0.2970
   99MOL   O13141487   1.568   5.580   2.080  0.8707 -0.4431  0.0678
   99MOL   O13241488   1.589   5.789   2.173 -0.0002 -0.0596  0.7375
   99MOL   C13341489   1.459   5.823   2.133 -0.3210 -0.5999 -0.4677
   99MOL   C13441490   1.398   5.949   2.196 -0.5232  0.1675  0.0410
   99MOL   C13541491   1.457   6.072   2.125 -0.4175 -0.3718  0.1852
   99MOL   C13641492   1.427   6.210   2.180  0.3178 -0.0559 -0.0165
   99MOL   H13741493   1.865   5.657   2.401 -1.1343  1.1713  2.1783
   99MOL   H13841494   1.740   5.761   2.386 -0.8904  1.3178 -2.8809
   99MOL   H13941495   1.808   5.552   2.170  1.9344  0.0086  2.1998
   99MOL   H14041496   1.402   5.738   2.170  0.3315 -1.4989 -1.4804
   99MOL   H14141497   1.463   5.835   2.024  1.7176  1.1962 -0.2362
   99MOL   H14241498   1.290   5.953   2.180 -0.3956  1.3212 -0.5970
   99MOL   H14341499   1.420   5.947   2.303  3.0175 -1.9773 -0.6636
   99MOL   H14441500   1.422   6.067   2.022 -1.9340 -1.4139  0.7275
   99MOL   H14541501   1.563   6.050   2.117 -0.8097 -1.7819 -1.4520
   99MOL   H14641502   1.328   6.245   2.150  0.4195  1.9971  1.8604
   99MOL   H14741503   1.489   6.280   2.123  0.7998 -3.3391 -3.7292
   99MOL   H14841504   1.446   6.224   2.286  0.7745 -0.2529 -0.0722
   99MOL   C14941505   1.859   5.764   2.136  0.6671 -0.4845 -0.0203
   99MOL   C15041506   1.944   5.725   2.009 -0.5206  0.2067  0.1264
   99MOL   C15141507   2.066   5.630   2.043  0.0442  0.5100  0.2477
   99MOL   O15241508   2.054   5.537   2.130 -0.0395  0.0824  0.5458
   99MOL   O15341509   2.176   5.657   1.968  0.3134 -0.4680 -0.5618
   99MOL   C15441510   2.296   5.579   1.985 -0.6459  0.1893  0.3148
   99MOL   C15541511   2.335   5.495   1.857  0.6661 -0.4622  0.1446
   99MOL   C15641512   2.226   5.395   1.819  0.2936 -0.3156  0.6802
   99MOL   C15741513   2.256   5.295   1.704  0.1777 -0.5203  0.1758
   99MOL   H15841514   1.920   5.805   2.216 -1.7888  1.2520  1.0237
   99MOL   H15941515   1.805   5.852   2.103 -0.7636 -1.5397 -0.5727
   99MOL   H16041516   1.995   5.817   1.981 -2.2739  1.5933  1.4596
   99MOL   H16141517   2.296   5.521   2.078 -1.2293 -1.4555 -0.6786
   99MOL   H16241518   2.381   5.646   1.998 -0.6705  0.4756 -0.9112
   99MOL   H16341519   2.353   5.567   1.776 -1.3757  0.6714  0.6688
   99MOL   H16441520   2.429   5.447   1.881  1.1140  0.9017  1.1958
   99MOL   H16541521   2.141   5.454   1.785  0.6141 -0.6180 -0.6427
   99MOL   H16641522   2.180   5.348   1.906 -0.0798  0.6180  0.9973
   99MOL   H16741523   2.174   5.229   1.676  0.7571 -0.9556 -0.5102
   99MOL   H16841524   2.349   5.239   1.714  0.1571 -0.6767 -0.4972
   99MOL   H16941525   2.280   5.355   1.616  0.6182 -0.8176  0.0884
   99MOL   C17041526   1.868   5.674   1.881 -0.4595 -0.2806  0.9215
   99MOL   C17141527   1.776   5.778   1.798  0.0854 -0.0482  0.1983
   99MOL   C17241528   1.860   5.908   1.771  0.5959 -0.2396 -0.0589
   99MOL   O17341529   1.820   6.011   1.816  0.1847 -0.2506 -0.1510
   99MOL   O17441530   1.967   5.887   1.693  0.1737  0.5216  0.4742
   99MOL   C17541531   2.055   5.997   1.667  0.0624  0.0270  0.7235
   99MOL   C17641532   2.165   6.006   1.774 -0.0263 -0.2763  0.0283
   99MOL   C17741533   2.170   6.136   1.857 -0.2878  0.3965  0.0124
   99MOL   C17841534   2.279   6.127   1.961  0.1798 -0.6738  0.8493
   99MOL   H17941535   1.801   5.591   1.900 -1.2023  0.3240  0.9553
   99MOL   H18041536   1.947   5.639   1.813 -0.9377  0.7775 -0.2007
   99MOL   H18141537   1.692   5.799   1.864  0.6684  0.7331  0.7134
   99MOL   H18241538   2.001   6.091   1.670 -0.7054 -0.4045  0.6189
   99MOL   H18341539   2.095   5.995   1.565  0.7326  0.0848  0.9817
   99MOL   H18441540   2.138   5.936   1.854 -0.1684 -0.3525 -0.0873
   99MOL   H18541541   2.266   5.971   1.750 -0.0169  0.0229 -0.3647
   99MOL   H18641542   2.073   6.152   1.904  0.1070  1.9078  0.3207
   99MOL   H18741543   2.212   6.217   1.798  2.9650 -1.5544 -0.4973
   99MOL   H18841544   2.271   6.034   2.018 -0.7523 -1.7165 -0.9157
   99MOL   H18941545   2.264   6.198   2.041 -0.2883  1.0296 -0.7289
   99MOL   H19041546   2.382   6.137   1.925 -0.3526 -0.8157 -0.7577
   99MOL   C19141547   1.722   5.730   1.661  0.2560 -1.1993 -0.1767
   99MOL   C19241548   1.634   5.607   1.651  0.3046  0.0194 -0.4977
   99MOL   C19341549   1.501   5.626   1.725 -0.5072 -0.4374 -1.3128
   99MOL   O19441550   1.443   5.735   1.718 -0.0363  0.0826 -0.0069
   99MOL   O19541551   1.453   5.518   1.782  0.5665  0.0611  0.1012
   99MOL   C19641552   1.334   5.512   1.862  0.4323 -0.0319  0.1837
   99MOL   C19741553   1.293   5.369   1.891 -1.0524  0.4676 -0.4432
   99MOL   C19841554   1.275   5.282   1.761  0.5739  0.1010  0.0540
   99MOL   C19941555   1.209   5.154   1.804  0.2509  0.6191  0.3319
   99MOL   H20041556   1.806   5.730   1.591  0.4502  2.7945 -0.0776
   99MOL   H20141557   1.664   5.810   1.614  1.5916  0.5209  1.0319
   99MOL   H20241558   1.672   5.523   1.711  0.6613  2.4530  2.8443
   99MOL   H20341559   1.249   5.556   1.811 -0.2453 -1.6050 -0.0768
   99MOL   H20441560   1.356   5.572   1.950  2.2917  3.4634 -2.5282
   99MOL   H20541561   1.366   5.323   1.958 -1.1872 -1.1725 -1.4022
   99MOL   H20641562   1.202   5.370   1.950  0.3177 -1.1863  1.7957
   99MOL   H20741563   1.373   5.263   1.718 -0.6398 -0.2303 -2.5978
   99MOL   H20841564   1.231   5.333   1.676 -1.1685  0.2131  0.9980
   99MOL   H20941565   1.224   5.083   1.723  1.8173 -0.3262  1.4371
   99MOL   H21041566   1.102   5.156   1.829 -0.1223  0.2693 -1.2101
   99MOL   H21141567   1.244   5.102   1.894  0.4901 -0.2694 -0.2671
   99MOL   C21241568   1.597   5.555   1.508  0.3286  0.4952 -0.0066
   99MOL   C21341569   1.723   5.537   1.411  0.5234 -0.0221 -0.3428
   99MOL   C21441570   1.820   5.430   1.470  0.3810  0.0479  0.0147
   99MOL   O21541571   1.938   5.453   1.468 -0.3939  0.1786 -1.0606
   99MOL   O21641572   1.761   5.332   1.539  0.1391 -0.4472  0.0239
   99MOL   C21741573   1.834   5.230   1.605  0.0042 -0.7315 -0.0417
   99MOL   C21841574   1.832   5.260   1.754 -0.1325 -0.1980 -0.2117
   99MOL   C21941575   1.688   5.260   1.813  0.1049  0.3845  0.4818
   99MOL   C22041576   1.692   5.272   1.970 -0.2007  0.4148 -0.1514
   99MOL   H22141577   1.527   5.618   1.453  1.5946 -1.4871 -4.0922
   99MOL   H22241578   1.552   5.458   1.531  1.4105  0.0377  0.1693
   99MOL   H22341579   1.783   5.629   1.407  2.4437 -1.2566 -0.3884
   99MOL   H22441580   1.937   5.229   1.571 -0.2364 -1.5225 -0.7660
   99MOL   H22541581   1.801   5.128   1.588 -0.0707 -0.5464 -1.0694
   99MOL   H22641582   1.877   5.170   1.799 -0.3069 -0.9439 -1.4956
   99MOL   H22741583   1.887   5.352   1.774 -1.3416  0.1861  1.4105
   99MOL   H22841584   1.621   5.177   1.789  1.0292  0.1439 -1.2939
   99MOL   H22941585   1.625   5.340   1.774 -0.8328  1.3417  3.7621
   99MOL   H23041586   1.743   5.358   2.013  0.1096 -1.4387  3.3126
   99MOL   H23141587   1.723   5.184   2.026 -0.2229  1.3850  1.4173
   99MOL   H23241588   1.587   5.284   1.997 -0.3511  0.3807 -0.7060
   99MOL   C23341589   1.675   5.504   1.267  0.1508 -0.4279  0.0753
   99MOL   C23441590   1.789   5.499   1.160 -0.5071 -0.4476  0.1534
   99MOL   C23541591   1.727   5.445   1.031 -0.3609  0.8268 -0.3904
   99MOL   O23641592   1.735   5.322   1.014  0.0227  0.1213 -0.0597
   99MOL   O23741593   1.659   5.544   0.968 -0.4781  0.2224  0.7194
   99MOL   C23841594   1.578   5.526   0.850 -0.2144 -0.3061  0.1483
   99MOL   C23941595   1.424   5.538   0.886 -0.5531 -0.3951 -0.4698
   99MOL   C24041596   1.370   5.421   0.973 -0.4306 -0.4769  0.5973
   99MOL   C24141597   1.219   5.437   0.995 -0.5887 -0.3804 -0.7614
   99MOL   H24241598   1.595   5.571   1.237 -1.7445 -2.5309  0.3219
   99MOL   H24341599   1.640   5.401   1.271  2.1290 -1.0954  1.0777
   99MOL   H24441600   1.858   5.424   1.198  0.2586 -0.0436 -0.4231
   99MOL   H24541601   1.594   5.427   0.809  0.2686  0.0253 -0.4635
   99MOL   H24641602   1.619   5.595   0.776  1.0138 -0.6421  0.5094
   99MOL   H24741603   1.430   5.636   0.933 -0.7365 -0.1056 -1.0462
   99MOL   H24841604   1.366   5.536   0.793  1.0847 -1.0106 -1.5100
   99MOL   H24941605   1.415   5.421   1.072  0.7747 -1.6877  0.0641
   99MOL   H25041606   1.388   5.328   0.920  0.9981 -0.0490  0.3088
   99MOL   H25141607   1.201   5.531   1.048 -0.7289 -0.5474 -0.5179
   99MOL   H25241608   1.172   5.364   1.060  1.4514 -2.1436 -1.2264
   99MOL   H25341609   1.154   5.436   0.907  0.4457 -0.5130 -1.5358
   99MOL   C25441610   1.858   5.638   1.137  0.1171  0.2510 -0.5426
   99MOL   C25541611   2.018   5.640   1.132 -0.6265  1.1976 -0.0196
   99MOL   C25641612   2.079   5.534   1.041 -0.5535 -0.5314 -0.1260
   99MOL   O25741613   2.155   5.442   1.087  0.6833  0.3471 -0.1619
   99MOL   O25841614   2.052   5.553   0.910 -0.2190  0.0964  0.3335
   99MOL   C25941615   2.134   5.479   0.819  0.0732  0.1381 -0.7360
   99MOL   C26041616   2.175   5.560   0.699 -0.0507  0.0572 -0.3102
   99MOL   C26141617   2.275   5.680   0.717  0.4798 -0.3685 -0.1866
   99MOL   C26241618   2.409   5.629   0.773  0.3684 -0.0936  0.4331
   99MOL   H26341619   1.830   5.699   1.223 -0.5965 -2.8993  1.5240
   99MOL   H26441620   1.829   5.688   1.045 -1.0005  0.8144  0.1060
   99MOL   H26541621   2.063   5.619   1.229  2.8221 -0.8853 -1.9648
   99MOL   H26641622   2.087   5.384   0.793 -2.4521  0.7449  1.5044
   99MOL   H26741623   2.226   5.448   0.870  0.4382 -0.8155 -1.9476
   99MOL   H26841624   2.211   5.483   0.631  1.3544  1.9860 -1.7819
   99MOL   H26941625   2.084   5.595   0.650 -0.1107 -1.1932 -1.1278
   99MOL   H27041626   2.230   5.759   0.778  2.6596  1.7245 -1.1873
   99MOL   H27141627   2.294   5.725   0.619  0.1929 -0.8861 -0.4801
   99MOL   H27241628   2.394   5.566   0.860  1.1984 -0.4252  0.3389
   99MOL   H27341629   2.475   5.713   0.797 -0.7366  0.4825  1.5089
   99MOL   H27441630   2.454   5.561   0.700  0.3393  1.9550 -1.5579
   99MOL   C27541631   2.068   5.776   1.080  0.4203  0.0308 -0.2105
   99MOL   C27641632   2.226   5.795   1.097 -0.7823 -0.0729 -0.3370
   99MOL   C27741633   2.255   5.920   1.019 -0.1499 -0.3391 -0.6316
   99MOL   O27841634   2.188   6.023   1.041  0.5829 -0.1154 -1.1298
   99MOL   O27941635   2.365   5.918   0.936 -0.4578 -0.7972  0.0393
   99MOL   C28041636   2.411   6.043   0.885  0.2382 -0.0976  0.2260
   99MOL   C28141637   2.537   6.036   0.797 -0.5308  0.0639  0.8631
   99MOL   C28241638   2.662   6.029   0.885  0.0301  0.0635 -0.3393
   99MOL   C28341639   2.800   6.021   0.812  0.8314  0.0039 -0.4732
   99MOL   H28441640   2.026   5.853   1.144 -0.4026  1.2183 -2.1254
   99MOL   H28541641   2.048   5.796   0.974  1.0054 -1.9242 -0.7123
   99MOL   H28641642   2.280   5.726   1.033 -0.8107 -2.1296  1.7764
   99MOL   H28741643   2.449   6.100   0.970 -2.3998 -0.7209  1.8621
   99MOL   H28841644   2.332   6.092   0.829  0.9967  1.5110  0.5167
   99MOL   H28941645   2.528   5.943   0.740  0.6607 -0.5854  1.7160
   99MOL   H29041646   2.546   6.125   0.735 -2.3399  0.4766  1.1508
   99MOL   H29141647   2.659   5.947   0.956  0.0609 -0.0555 -0.4745
   99MOL   H29241648   2.662   6.131   0.925 -1.1528 -0.3337  0.7118
   99MOL   H29341649   2.804   5.926   0.760 -0.9938  0.6445 -1.8656
   99MOL   H29441650   2.881   6.025   0.884  0.1076 -1.3861  0.4375
   99MOL   H29541651   2.826   6.105   0.747  1.4754 -0.4649 -0.8277
   99MOL   C29641652   2.266   5.802   1.248 -0.3340 -0.0137  0.0840
   99MOL   C29741653   2.422   5.781   1.276 -0.5740 -0.0435 -0.3527
   99MOL   C29841654   2.478   5.652   1.210 -0.0122  0.4114 -0.1081
   99MOL   O29941655   2.568   5.652   1.125 -0.2352 -0.7762  0.3110
   99MOL   O30041656   2.418   5.539   1.246  0.0966 -0.0330  0.7981
   99MOL   C30141657   2.475   5.411   1.219 -0.0654 -0.0433 -0.8157
   99MOL   C30241658   2.427   5.306   1.323 -0.1341 -1.1833  0.1701
   99MOL   C30341659   2.437   5.156   1.291 -0.4226  0.5798 -1.3510
   99MOL   C30441660   2.364   5.082   1.397  0.0869  0.4154 -0.6578
   99MOL   H30541661   2.214   5.731   1.312  0.8840 -0.0849  1.0212
   99MOL   H30641662   2.230   5.890   1.301  0.0660 -1.0275  2.0826
   99MOL   H30741663   2.442   5.751   1.379  2.5973 -0.3229 -1.0155
   99MOL   H30841664   2.580   5.417   1.190 -0.1711  1.1325 -1.0023
   99MOL   H30941665   2.411   5.387   1.134 -1.1713  2.3882 -0.7144
   99MOL   H31041666   2.479   5.325   1.417  2.3451  0.6261 -1.5199
   99MOL   H31141667   2.323   5.324   1.350 -0.5155 -1.6212 -0.9656
   99MOL   H31241668   2.543   5.132   1.289  0.0615  2.2780  1.3727
   99MOL   H31341669   2.408   5.125   1.191 -0.6793 -2.5652 -0.3560
   99MOL   H31441670   2.353   4.976   1.376  1.7207  0.6782 -2.9178
   99MOL   H31541671   2.264   5.119   1.419 -0.1015 -0.2052 -0.4613
   99MOL   H31641672   2.431   5.088   1.484  0.1313  1.9461 -0.7784
   99MOL   C31741673   2.503   5.907   1.244 -0.0291 -0.4837  0.9474
   99MOL   C31841674   2.637   5.911   1.329  0.0522  0.6541 -0.3129
   99MOL   C31941675   2.762   5.924   1.242 -0.2255  0.2332 -0.8190
   99MOL   O32041676   2.813   5.820   1.200 -0.0238 -0.1214  0.4426
   99MOL   O32141677   2.804   6.050   1.217 -0.2419  0.7383  0.0489
   99MOL   C32241678   2.941   6.071   1.167  0.2265 -0.2638  0.4076
   99MOL   C32341679   3.035   6.073   1.286  0.2298 -0.7967 -0.2237
   99MOL   C32441680   3.179   6.114   1.229  0.8672 -0.3081 -0.6625
   99MOL   C32541681   3.276   6.127   1.348 -0.3883 -0.5080 -0.1115
   99MOL   H32641682   2.448   5.999   1.259 -0.6991 -0.1741 -2.9697
   99MOL   H32741683   2.520   5.905   1.137  1.3048  1.2652  1.1024
   99MOL   H32841684   2.644   5.816   1.383  1.1298  1.4769  1.0266
   99MOL   H32941685   2.942   6.167   1.116 -0.1038 -1.1738 -1.3451
   99MOL   H33041686   2.962   5.992   1.095 -1.4435 -1.0143  0.7195
   99MOL   H33141687   2.994   6.149   1.352  1.1372  0.8371 -1.4756
   99MOL   H33241688   3.031   5.987   1.352  0.4166 -0.5115  0.1615
   99MOL   H33341689   3.167   6.209   1.177 -0.2387  0.2369  0.5644
   99MOL   H33441690   3.219   6.048   1.152  0.6381 -0.0792 -0.9801
   99MOL   H33541691   3.261   6.211   1.417  3.7236 -0.1352  0.4254
   99MOL   H33641692   3.374   6.159   1.313 -1.5839  0.0780 -3.0563
   99MOL   H33741693   3.300   6.035   1.402 -1.3882 -0.6406  0.1302
   99MOL   C33841694   2.631   6.026   1.439  0.2450  0.4522  0.7662
   99MOL   C33941695   2.512   6.031   1.534  0.4453  0.2561  0.6879
   99MOL   C34041696   2.516   5.908   1.631 -0.1977  0.2382 -0.3278
   99MOL   O34141697   2.449   5.807   1.610  0.1358 -0.3552 -0.7849
   99MOL   O34241698   2.591   5.925   1.735  0.5084 -0.3753 -0.1006
   99MOL   C34341699   2.603   5.821   1.832  0.8516  0.1312  0.6267
   99MOL   C34441700   2.538   5.858   1.969 -0.8031  0.4556  0.2366
   99MOL   C34541701   2.603   5.983   2.033 -0.3644  0.1719  0.2407
   99MOL   C34641702   2.561   6.038   2.168 -0.8191 -0.6010 -0.4843
   99MOL   H34741703   2.646   6.125   1.395 -0.3529  1.0732  1.9552
   99MOL   H34841704   2.718   6.019   1.504  1.3238  3.2177 -0.3075
   99MOL   H34941705   2.427   6.017   1.466 -0.2344  2.4687  1.0373
   99MOL   H35041706   2.712   5.816   1.836  0.8991  0.1669 -0.4233
   99MOL   H35141707   2.557   5.729   1.796 -1.1621  1.1375  0.5937
   99MOL   H35241708   2.430   5.871   1.966 -1.3300 -3.1322  2.0342
   99MOL   H35341709   2.549   5.781   2.044  0.1143  1.3170  0.9979
   99MOL   H35441710   2.588   6.064   1.961  3.9100  0.8387 -0.0473
   99MOL   H35541711   2.711   5.971   2.025 -0.6267 -2.3635  0.2926
   99MOL   H35641712   2.521   5.960   2.233 -1.5257  1.1116  1.1937
   99MOL   H35741713   2.476   6.103   2.150 -1.4300 -1.6240 -1.4045
   99MOL   H35841714   2.650   6.083   2.212 -0.6240 -1.2775 -0.1779
   99MOL   C35941715   2.483   6.160   1.616 -0.0511 -0.1865 -0.0103
   99MOL   C36041716   2.461   6.289   1.526 -0.0499  0.9814 -0.5205
   99MOL   C36141717   2.336   6.282   1.442  0.3667  0.0351  0.0431
   99MOL   O36241718   2.250   6.196   1.473 -0.5225 -0.8581  0.4258
   99MOL   O36341719   2.327   6.375   1.347 -0.0357 -0.0399  0.2939
   99MOL   C36441720   2.215   6.368   1.252  0.3031 -0.2274  0.0558
   99MOL   C36541721   2.287   6.378   1.112 -0.3804 -0.1455 -0.4983
   99MOL   C36641722   2.192   6.407   0.994  0.0370  0.2879 -0.4238
   99MOL   C36741723   2.268   6.442   0.863  0.1537  0.6257 -0.7075
   99MOL   H36841724   2.564   6.176   1.688  0.6875 -0.2223 -0.8176
   99MOL   H36941725   2.388   6.158   1.668  0.0018  1.2175  0.1711
   99MOL   H37041726   2.546   6.300   1.458  0.3629  0.7773 -0.0422
   99MOL   H37141727   2.142   6.447   1.270  0.8106 -0.1073  1.6702
   99MOL   H37241728   2.160   6.275   1.262  1.5412 -0.9545  0.1841
   99MOL   H37341729   2.358   6.460   1.101 -0.5680  0.2643  1.2432
   99MOL   H37441730   2.335   6.285   1.083 -0.4502 -1.1563  2.5068
   99MOL   H37541731   2.118   6.487   1.000  0.9997  1.2588 -1.3872
   99MOL   H37641732   2.131   6.317   0.985 -0.0257  0.3733 -0.8291
   99MOL   H37741733   2.213   6.470   0.774 -1.1760 -1.2210 -0.5023
   99MOL   H37841734   2.317   6.354   0.821 -0.2092 -0.0517  0.2483
   99MOL   H37941735   2.340   6.522   0.881  0.9632 -0.0626 -0.8469
   99MOL   C38041736   2.463   6.414   1.621 -0.0768  0.6080 -0.1574
   99MOL   C38141737   2.597   6.462   1.694 -0.0857 -0.1228  0.3489
   99MOL   C38241738   2.721   6.476   1.604 -0.8729  0.0534  0.0541
   99MOL   O38341739   2.835   6.451   1.640  0.4519  0.2609 -0.8961
   99MOL   O38441740   2.689   6.540   1.487 -0.1283  0.1402 -0.5348
   99MOL   C38541741   2.790   6.597   1.401 -0.0616 -0.6946  0.4230
   99MOL   C38641742   2.811   6.516   1.269  0.3709  0.4647 -0.9526
   99MOL   C38741743   2.676   6.498   1.195 -0.9926  0.2712 -0.4191
   99MOL   C38841744   2.684   6.409   1.075  0.7645  0.4216  0.0387
   99MOL   H38941745   2.383   6.403   1.694 -1.1363 -2.7655 -1.7723
   99MOL   H39041746   2.437   6.499   1.558 -3.1201 -0.2370 -0.1412
   99MOL   H39141747   2.614   6.389   1.773  0.5007 -1.4205 -0.9544
   99MOL   H39241748   2.881   6.601   1.460  1.6290  1.0736 -2.2057
   99MOL   H39341749   2.780   6.703   1.378 -0.5940 -0.8480 -0.0837
   99MOL   H39441750   2.882   6.559   1.199  1.9548 -0.8398 -0.1628
   99MOL   H39541751   2.836   6.414   1.296 -2.4444 -0.5621 -1.9428
   99MOL   H39641752   2.616   6.586   1.171 -0.6918  0.4411 -0.5548
   99MOL   H39741753   2.608   6.441   1.259  1.0326 -0.0994  1.4765
   99MOL   H39841754   2.696   6.304   1.102 -1.7240 -0.8061 -3.2199
   99MOL   H39941755   2.756   6.446   1.001 -0.3772  0.0922 -1.2639
   99MOL   H40041756   2.584   6.403   1.033 -1.1619  2.5248  4.1243
   99MOL   C40141757   2.573   6.589   1.777 -1.0597  0.6570 -0.1032
   99MOL   C40241758   2.686   6.625   1.876 -0.7002 -0.0310  0.3035
   99MOL   C40341759   2.677   6.538   1.999  0.6937 -0.5733  0.0125
   99MOL   O40441760   2.583   6.472   2.025  0.3031  0.1321  0.2101
   99MOL   O40541761   2.796   6.527   2.070 -0.1209  0.2732  0.7053
   99MOL   C40641762   2.809   6.419   2.155  0.7692 -0.3574  0.3621
   99MOL   C40741763   2.745   6.450   2.288  0.3800  0.2703  0.3412
   99MOL   C40841764   2.819   6.398   2.416 -0.1570  0.6853  0.1835
   99MOL   C40941765   2.949   6.470   2.455  0.6882 -0.2520 -0.5156
   99MOL   H41041766   2.479   6.586   1.832  0.6956  1.7643  3.0995
   99MOL   H41141767   2.576   6.677   1.713 -0.9183  1.9641  1.6727
   99MOL   H41241768   2.662   6.714   1.934 -0.8813  1.3379 -1.8379
   99MOL   H41341769   2.917   6.411   2.167  1.1911  1.2120 -2.0662
   99MOL   H41441770   2.789   6.320   2.114 -0.5307 -0.5091  1.3317
   99MOL   H41541771   2.717   6.555   2.304  1.6200  0.4867  1.1313
   99MOL   H41641772   2.644   6.410   2.297  0.3144  0.6542  1.4111
   99MOL   H41741773   2.847   6.296   2.389 -0.5646  0.7512 -0.5001
   99MOL   H41841774   2.749   6.398   2.499  1.9637  2.5928  2.0425
   99MOL   H41941775   2.924   6.571   2.487 -0.5052 -0.6115 -0.2965
   99MOL   H42041776   3.024   6.474   2.376 -0.6101  0.0412 -1.7404
   99MOL   H42141777   3.008   6.423   2.535  0.2662  0.8548  0.4662
   99MOL   H42241778   2.778   6.642   1.820 -0.7043 -1.2533 -0.0855
  100MOL     C141779   5.320   7.688   7.197 -0.1979  0.0838  0.2314
  100MOL     C241780   5.399   7.750   7.309  0.3215  0.1243 -0.4886
  100MOL     C341781   5.546   7.717   7.298  0.0971 -0.8710  0.3393
  100MOL     O441782   5.601   7.653   7.388 -0.6017  0.0521  0.5581
  100MOL     O541783   5.603   7.762   7.181 -0.7205  0.1707 -0.0161
  100MOL     C641784   5.740   7.744   7.164  0.4884 -0.3618  0.4368
  100MOL     C741785   5.818   0.024   7.145 -0.4983  0.4369 -0.4935
  100MOL     C841786   5.963   0.004   7.176  0.2003  0.0465  0.1045
  100MOL     C941787   6.056   0.132   7.195 -0.1469  0.3503  0.9015
  100MOL    H1041788   5.273   7.754   7.123 -0.0105 -1.8047 -1.5897
  100MOL    H1141789   5.366   7.619   7.127 -0.1883 -0.4270  0.7431
  100MOL    H1241790   5.375   7.686   7.394  0.4098 -1.2342 -1.4640
  100MOL    H1341791   5.764   7.683   7.077 -1.5964 -3.3660  1.8856
  100MOL    H1441792   5.780   7.684   7.246  0.0852  0.5732  1.3419
  100MOL    H1541793   5.801   0.069   7.047  3.0829  0.9507 -0.9245
  100MOL    H1641794   5.780   0.097   7.216 -2.2846  1.7933 -2.7651
  100MOL    H1741795   6.003   7.794   7.097 -0.1043  2.2506 -1.8474
  100MOL    H1841796   5.965   7.792   7.264 -1.8407  0.0034  0.1579
  100MOL    H1941797   6.021   0.203   7.269 -2.2089 -0.1444  0.4273
  100MOL    H2041798   6.077   0.184   7.101 -0.2234  1.0757  1.2876
  100MOL    H2141799   6.155   0.093   7.218  0.6122  0.9518 -1.2320
  100MOL    H2241800   5.235   7.637   7.242 -1.4295  2.5912  0.8853
  100MOL    C2341801   5.363   0.039   7.344 -0.0097  0.2151 -0.2033
  100MOL    C2441802   5.343   0.073   7.495 -0.0890 -0.1955 -0.6392
  100MOL    C2541803   5.475   0.062   7.574 -0.4594  0.0058  0.9714
  100MOL    O2641804   5.499   7.827   7.664 -0.2479  0.2908 -0.1323
  100MOL    O2741805   5.566   0.154   7.538  0.0184 -0.0824 -0.0758
  100MOL    C2841806   5.690   0.164   7.608 -1.0068 -0.0608 -0.2818
  100MOL    C2941807   5.793   0.064   7.554 -0.0433 -0.1201 -0.1964
  100MOL    C3041808   5.921   0.070   7.645 -0.1393  0.5252  0.0967
  100MOL    C3141809   6.050   0.033   7.566 -0.5370 -0.9591  0.0383
  100MOL    H3241810   5.277   0.068   7.284  0.0779 -1.0518 -0.9710
  100MOL    H3341811   5.442   0.101   7.303  0.5104 -0.2696  0.0540
  100MOL    H3441812   5.287   7.844   7.541 -0.5949  0.7986  0.5537
  100MOL    H3541813   5.664   0.160   7.714 -0.9060 -1.1644 -0.2921
  100MOL    H3641814   5.720   0.267   7.589  0.2486 -0.7996 -2.4908
  100MOL    H3741815   5.752   7.816   7.547 -0.3899 -0.0787  1.1855
  100MOL    H3841816   5.809   0.094   7.450 -1.0806 -0.3328 -0.4255
  100MOL    H3941817   5.908   0.004   7.731  1.5947 -1.3983 -1.0634
  100MOL    H4041818   5.944   0.168   7.687 -2.8807  0.5420  1.6752
  100MOL    H4141819   6.132   0.034   7.638  1.5517  0.0950 -2.2642
  100MOL    H4241820   6.076   0.111   7.494  0.2008  0.1229  1.4455
  100MOL    H4341821   6.061   7.790   7.516  2.3393 -1.3827  1.3998
  100MOL    C4441822   5.264   0.209   7.513 -0.0192 -0.2320  0.5538
  100MOL    C4541823   5.191   0.213   7.650  0.4999  0.8021 -0.3694
  100MOL    C4641824   5.124   0.349   7.668  0.1491  0.3926 -0.7841
  100MOL    O4741825   5.146   0.416   7.773 -0.1474 -0.0656  0.0784
  100MOL    O4841826   5.028   0.385   7.575  0.5503  0.0453 -0.3337
  100MOL    C4941827   4.946   0.506   7.603  0.4792 -0.1106 -0.5775
  100MOL    C5041828   4.973   0.618   7.505  0.3234  0.3429 -0.3723
  100MOL    C5141829   5.118   0.666   7.497 -0.8013  0.2524  0.1061
  100MOL    C5241830   5.125   0.783   7.400 -0.0175 -0.2911  0.2507
  100MOL    H5341831   5.195   0.212   7.429  0.8565  1.2152 -0.1176
  100MOL    H5441832   5.332   0.293   7.500 -0.7365  0.2878  0.1611
  100MOL    H5541833   5.262   0.204   7.732 -1.2629  0.4461  1.1441
  100MOL    H5641834   4.959   0.545   7.704  0.5579 -0.5758 -0.4079
  100MOL    H5741835   4.841   0.478   7.596  0.6557 -0.7119 -0.8529
  100MOL    H5841836   4.947   0.577   7.408  2.3509 -0.2679 -0.6820
  100MOL    H5941837   4.900   0.694   7.532  0.9605  0.0802  2.3225
  100MOL    H6041838   5.169   0.578   7.458  1.5924  1.4134  0.5744
  100MOL    H6141839   5.156   0.683   7.598 -0.2786 -0.5984  0.0576
  100MOL    H6241840   5.052   0.859   7.427  0.1153  0.6760 -1.9795
  100MOL    H6341841   5.114   0.751   7.296 -0.4107  2.0491 -0.4391
  100MOL    H6441842   5.232   0.803   7.388  0.2129 -1.3055  0.5519
  100MOL    C6541843   5.092   0.097   7.674 -0.6694 -0.0935  0.3267
  100MOL    C6641844   5.136   7.847   7.775 -0.4496 -0.5498  0.4300
  100MOL    C6741845   5.175   0.050   0.063 -0.0314  0.2058 -0.4065
  100MOL    O6841846   5.278   0.027   0.130 -0.0252 -0.2744  0.4348
  100MOL    O6941847   5.095   0.142   0.097 -0.2020 -0.7506  0.0605
  100MOL    C7041848   5.114   0.233   0.202 -0.2928  0.0022 -0.0519
  100MOL    C7141849   4.972   0.264   0.258 -0.1190  0.4249 -0.1413
  100MOL    C7241850   4.875   0.321   0.156  0.5898  0.4600 -0.3768
  100MOL    C7341851   4.732   0.347   0.213  0.0567 -0.4641  0.3151
  100MOL    H7441852   5.075   0.051   7.577 -0.8278  1.8971 -0.6309
  100MOL    H7541853   4.992   0.136   7.694 -1.0513 -1.9841  2.1911
  100MOL    H7641854   5.223   7.797   7.734 -1.4756  0.8160 -3.5975
  100MOL    H7741855   5.179   0.317   0.176 -0.3774 -0.2116 -0.9577
  100MOL    H7841856   5.165   0.170   0.275 -2.0430 -0.5689  0.7078
  100MOL    H7941857   4.928   0.173   0.298  0.9547 -1.0822 -2.2953
  100MOL    H8041858   4.978   0.334   0.342  1.6281  0.9578 -0.6816
  100MOL    H8141859   4.870   0.255   0.070 -3.2149  0.3545 -0.1301
  100MOL    H8241860   4.919   0.420   0.137  0.2275  0.6934 -0.0042
  100MOL    H8341861   4.674   0.256   0.195 -0.5868 -0.0616  0.3423
  100MOL    H8441862   4.683   0.432   0.165 -0.0126 -0.0599  1.0891
  100MOL    H8541863   4.726   0.351   0.322 -1.0907 -0.1565  0.2507
  100MOL    C8641864   5.019   7.748   7.793  0.0349 -0.2752 -0.3066
  100MOL    C8741865   4.968   7.672   7.660 -0.3182  0.0326  0.0432
  100MOL    C8841866   5.079   7.595   7.588 -0.4939 -0.6102  0.2870
  100MOL    O8941867   5.126   7.643   7.480  0.4222 -0.1421  0.7350
  100MOL    O9041868   5.138   7.493   7.655 -0.1503 -0.2901  0.3138
  100MOL    C9141869   5.261   7.437   7.600  0.1412 -0.0561 -0.1016
  100MOL    C9241870   5.244   7.330   7.487  0.8963 -0.1625 -0.5176
  100MOL    C9341871   5.373   7.288   7.422  0.0656  0.6814  0.5695
  100MOL    C9441872   5.340   7.174   7.331 -0.0294 -0.0892 -0.2846
  100MOL    H9541873   4.936   7.812   7.823 -1.2316 -1.0941 -1.9744
  100MOL    H9641874   5.038   7.672   0.015  3.5740  2.2239  1.4769
  100MOL    H9741875   4.950   7.756   7.593 -2.3016  0.8155  1.5205
  100MOL    H9841876   5.325   7.394   7.677 -0.8237  0.9446  1.2744
  100MOL    H9941877   5.325   7.522   7.576 -0.4006  0.4678  0.2920
  100MOL   H10041878   5.207   7.243   7.542  3.3538 -0.7592  0.2528
  100MOL   H10141879   5.166   7.355   7.415 -1.5180  1.8356  2.6181
  100MOL   H10241880   5.439   7.248   7.499 -0.2094 -2.3331 -0.7047
  100MOL   H10341881   5.418   7.375   7.375 -0.6572  1.5237  1.4160
  100MOL   H10441882   5.289   7.222   7.247  0.5619 -1.5763 -1.5080
  100MOL   H10541883   5.254   7.113   7.361 -0.5047  1.2206  1.0756
  100MOL   H10641884   5.422   7.105   7.308 -2.0632 -2.9928  0.8188
  100MOL   C10741885   4.842   7.591   7.677  0.5577  0.2917  0.1379
  100MOL   C10841886   4.709   7.658   7.719 -0.1450  0.0805  0.0016
  100MOL   C10941887   4.683   7.774   7.626 -0.2378  0.8284  0.8112
  100MOL   O11041888   4.609   7.764   7.527 -0.1019  0.5799 -0.2926
  100MOL   O11141889   4.747   0.031   7.651 -0.0826  0.1194 -0.2570
  100MOL   C11241890   4.732   0.141   7.567 -0.1206  0.0499 -0.2854
  100MOL   C11341891   4.671   0.261   7.637 -0.0033  0.3255  0.3126
  100MOL   C11441892   4.525   0.238   7.683 -0.3176 -0.0330  0.7141
  100MOL   C11541893   4.471   0.359   7.758  0.8171  0.0538  0.3554
  100MOL   H11641894   4.861   7.517   7.754 -1.7435 -0.6240 -0.1409
  100MOL   H11741895   4.822   7.528   7.590 -1.1238  0.7589  0.1649
  100MOL   H11841896   4.741   7.696   7.816 -0.0762 -0.1066  0.0525
  100MOL   H11941897   4.689   0.128   7.468 -2.3335  2.7413  0.2722
  100MOL   H12041898   4.838   0.159   7.549 -0.0805 -1.4855 -1.7456
  100MOL   H12141899   4.733   0.294   7.720 -0.5066 -1.0381  1.2555
  100MOL   H12241900   4.670   0.340   7.562 -1.2659 -0.1802 -0.2192
  100MOL   H12341901   4.523   0.147   7.742  2.3260 -1.0858 -0.7217
  100MOL   H12441902   4.469   0.211   7.593  0.1390 -1.0692  0.7283
  100MOL   H12541903   4.488   0.445   7.693 -0.9803  0.4526  0.4059
  100MOL   H12641904   4.527   0.386   7.848  1.8966 -1.2067  0.0815
  100MOL   H12741905   4.366   0.349   7.783  0.1904  3.3893 -0.7435
  100MOL   C12841906   4.601   7.547   7.739  0.0366 -0.5925 -0.4516
  100MOL   C12941907   4.525   7.558   0.026 -0.2818  0.7530  0.1846
  100MOL   C13041908   4.452   7.692   0.043 -0.7115 -0.0023 -0.3489
  100MOL   O13141909   4.503   7.784   0.107  0.4330 -0.0101 -0.5496
  100MOL   O13241910   4.330   7.695   7.834  0.0995  0.0749 -0.0246
  100MOL   C13341911   4.281   7.826   7.802 -0.1224  0.1952 -0.2538
  100MOL   C13441912   4.284   7.836   7.654  0.3588 -0.0555  0.5224
  100MOL   C13541913   4.211   0.107   7.600  0.8358 -0.2764  0.0859
  100MOL   C13641914   4.212   0.123   7.449 -0.0521  0.3277 -0.6380
  100MOL   H13741915   4.647   7.451   7.716  2.8631  0.8866 -1.2545
  100MOL   H13841916   4.519   7.557   7.667 -2.0476 -2.1425  1.6001
  100MOL   H13941917   4.605   7.565   0.100  0.0991 -0.6466 -0.0842
  100MOL   H14041918   4.338   0.059   7.837  0.0427  0.0307 -0.1181
  100MOL   H14141919   4.181   7.830   7.846 -0.1985  0.3197 -0.4367
  100MOL   H14241920   4.387   7.834   7.616  0.6702 -2.0345  1.4490
  100MOL   H14341921   4.232   7.752   7.608  0.8019 -0.1958  0.2708
  100MOL   H14441922   4.239   0.202   7.644 -1.5899  0.4527  0.1157
  100MOL   H14541923   4.109   0.088   7.631  0.4928  1.0811 -0.1864
  100MOL   H14641924   4.153   0.208   7.414  0.1024  1.3090  1.3994
  100MOL   H14741925   4.163   0.038   7.404 -2.7486  0.9270  1.0771
  100MOL   H14841926   4.312   0.143   7.409 -0.7321  1.8635 -1.6059
  100MOL   C14941927   4.443   7.429   0.056 -0.0059  0.0418  0.0286
  100MOL   C15041928   4.434   7.392   0.206  1.1229  0.4322  0.4401
  100MOL   C15141929   4.301   7.439   0.267  0.1185 -0.3071 -1.0840
  100MOL   O15241930   4.294   7.549   0.320 -0.3410  0.6562 -0.7354
  100MOL   O15341931   4.206   7.360   0.232 -0.1299 -0.3198  0.0565
  100MOL   C15441932   4.076   7.397   0.268 -0.4176  0.2762  0.3623
  100MOL   C15541933   3.983   7.275   0.275  0.2902  0.8572 -0.1368
  100MOL   C15641934   3.825   7.297   0.273  0.0963  0.7819 -0.1077
  100MOL   C15741935   3.768   7.370   0.389  0.3270  0.3101 -0.4637
  100MOL   H15841936   4.487   7.349   7.849 -0.0237 -0.9398  1.2913
  100MOL   H15941937   4.341   7.442   0.021 -0.2876 -1.1603  0.3781
  100MOL   H16041938   4.498   7.452   0.270 -1.5077  1.7522  1.9155
  100MOL   H16141939   4.046   7.472   0.195 -1.1088  0.4181  0.7899
  100MOL   H16241940   4.068   7.450   0.363  2.0754 -0.5189  1.0681
  100MOL   H16341941   4.010   7.206   0.194 -1.8358  1.0980 -1.0862
  100MOL   H16441942   4.015   7.215   0.360 -1.5618 -1.9855 -1.3535
  100MOL   H16541943   3.773   7.204   0.252  1.0717  0.3111 -0.4927
  100MOL   H16641944   3.805   7.355   0.183  2.1520  0.9731 -0.4649
  100MOL   H16741945   3.796   7.318   0.481  3.1860 -0.5023 -1.7198
  100MOL   H16841946   3.660   7.369   0.373  0.2460  0.6890  0.0597
  100MOL   H16941947   3.806   7.472   0.388 -2.0224  1.1961 -1.2085
  100MOL   C17041948   4.464   7.241   0.236 -0.1035 -0.1349  0.1323
  100MOL   C17141949   4.616   7.206   0.228  0.1313  0.2101  0.6608
  100MOL   C17241950   4.689   7.250   0.356  1.0960  0.2835 -0.0393
  100MOL   O17341951   4.742   7.361   0.366 -0.1409  0.6876 -0.1566
  100MOL   O17441952   4.682   7.156   0.453  0.0202 -0.7080 -0.0264
  100MOL   C17541953   4.759   7.183   0.572  0.4540 -0.0460 -0.0538
  100MOL   C17641954   4.674   7.117   0.686  0.8621 -0.9632 -0.5928
  100MOL   C17741955   4.697   6.966   0.700 -0.0398  0.4604  0.5739
  100MOL   C17841956   4.595   6.898   0.784  0.0535  0.4861 -0.3664
  100MOL   H17941957   4.399   7.178   0.175  0.8382  0.5279 -1.5853
  100MOL   H18041958   4.427   7.222   0.337 -1.3021 -1.4432 -0.5280
  100MOL   H18141959   4.663   7.270   0.154 -1.9904  2.9092  1.5555
  100MOL   H18241960   4.774   7.290   0.586  0.3279  0.1616 -1.4845
  100MOL   H18341961   4.864   7.151   0.567  1.2825  2.6292 -0.4192
  100MOL   H18441962   4.709   7.163   0.779 -0.4283 -0.1119 -0.5151
  100MOL   H18541963   4.569   7.144   0.673  1.0027  1.3130  2.3872
  100MOL   H18641964   4.801   6.957   0.734 -0.0317  1.0323  0.7098
  100MOL   H18741965   4.688   6.906   0.610  3.0899 -0.2069  0.6494
  100MOL   H18841966   4.496   6.912   0.741 -0.5661  2.2209  1.5426
  100MOL   H18941967   4.586   6.949   0.880 -0.1409  2.7614 -1.5650
  100MOL   H19041968   4.618   6.792   0.801 -0.9332  0.6206  2.0817
  100MOL   C19141969   4.647   7.068   0.178  0.0591 -0.6640  0.1392
  100MOL   C19241970   4.792   7.010   0.175 -0.2133 -0.2259  0.0345
  100MOL   C19341971   4.805   6.856   0.142 -0.2125  0.5749 -0.1541
  100MOL   O19441972   4.846   6.784   0.224 -0.6374 -0.4686  1.0002
  100MOL   O19541973   4.755   6.829   0.022  0.2142 -0.6397  0.0323
  100MOL   C19641974   4.742   6.697   7.838  0.4208  0.0901  0.1480
  100MOL   C19741975   4.634   6.678   7.738 -0.3527  0.3797  0.1266
  100MOL   C19841976   4.492   6.715   7.783 -0.2680 -0.0690  0.0465
  100MOL   C19941977   4.431   6.602   0.021 -0.6416 -0.3527  0.1594
  100MOL   H20041978   4.590   7.055   0.086 -0.8750  2.9979  0.1408
  100MOL   H20141979   4.593   7.003   0.247  0.3481 -0.1557  0.8456
  100MOL   H20241980   4.821   7.022   0.279  0.9934  0.4431 -0.3731
  100MOL   H20341981   4.704   6.645   0.073  0.1041  1.2923  0.7203
  100MOL   H20441982   4.838   6.652   7.812  1.9215  2.7066  1.0130
  100MOL   H20541983   4.649   6.747   7.655 -0.9935 -0.6916 -0.8935
  100MOL   H20641984   4.625   6.579   7.694 -1.4440 -0.0311  1.2574
  100MOL   H20741985   4.435   6.735   7.692 -0.7783 -0.0356  0.3741
  100MOL   H20841986   4.498   6.810   7.835 -0.2528 -0.2366  0.3540
  100MOL   H20941987   4.470   6.616   0.121 -1.2266 -2.0899  0.6492
  100MOL   H21041988   4.456   6.504   7.835  1.0386  0.3503 -0.6003
  100MOL   H21141989   4.323   6.614   0.030 -0.8467 -1.6268 -0.5676
  100MOL   C21241990   4.887   7.082   0.075 -0.4716  0.4699  0.1478
  100MOL   C21341991   5.039   7.043   0.110  0.1845 -0.3527  0.1306
  100MOL   C21441992   5.126   7.066   7.842 -0.1844 -0.4481  0.1649
  100MOL   O21541993   5.088   7.141   7.755 -0.4158 -0.5453 -0.3829
  100MOL   O21641994   5.252   7.018   0.005 -0.0188  0.0152 -0.3693
  100MOL   C21741995   5.347   7.044   7.752  0.5699 -0.7069 -0.7137
  100MOL   C21841996   5.458   7.117   7.821  0.0370  0.3213 -0.3055
  100MOL   C21941997   5.526   7.040   0.077  0.4749 -0.5552 -0.1376
  100MOL   C22041998   5.650   7.123   0.120  0.0563  0.0673 -0.5482
  100MOL   H22141999   4.875   7.190   0.087 -0.4066  0.5838 -0.7645
  100MOL   H22242000   4.858   7.048   7.828 -0.0659 -0.2074  0.2597
  100MOL   H22342001   5.041   6.937   0.135 -0.4879 -0.8452 -1.8352
  100MOL   H22442002   5.317   7.115   7.674  1.9197  2.5898  1.6612
  100MOL   H22542003   5.385   6.955   7.702 -1.4054 -1.7101 -0.4878
  100MOL   H22642004   5.527   7.150   7.743  0.8602 -0.3787  0.1090
  100MOL   H22742005   5.425   7.216   7.851  0.9130  0.5265 -0.0050
  100MOL   H22842006   5.574   6.953   0.032  0.0421 -0.6071 -0.5008
  100MOL   H22942007   5.459   7.016   0.159  0.1348  1.2197  0.1328
  100MOL   H23042008   5.681   7.078   0.214 -1.8829 -1.4664 -0.6034
  100MOL   H23142009   5.625   7.226   0.144 -1.8691  0.0575 -2.3015
  100MOL   H23242010   5.728   7.114   0.045  1.4904  0.7288  0.8550
  100MOL   C23342011   5.090   7.117   0.231 -0.1624  0.6783 -0.3419
  100MOL   C23442012   5.189   7.030   0.324  0.1085  0.7305  0.1303
  100MOL   C23542013   5.282   7.129   0.399 -0.0709  0.9453 -0.7853
  100MOL   O23642014   5.404   7.132   0.385 -0.5312  0.0179  0.0351
  100MOL   O23742015   5.214   7.198   0.489  0.2016 -0.1308 -0.5539
  100MOL   C23842016   5.283   7.289   0.578  0.1013  0.4507  0.0269
  100MOL   C23942017   5.178   7.382   0.643  0.6697  0.0789 -0.6343
  100MOL   C24042018   5.076   7.314   0.739  0.6576 -0.3022 -0.0361
  100MOL   C24142019   4.979   7.420   0.793 -0.1346 -0.9224 -0.3931
  100MOL   H24242020   5.014   7.142   0.304  0.4932  0.0463  0.5608
  100MOL   H24342021   5.143   7.207   0.200 -1.0068  0.9244 -1.0942
  100MOL   H24442022   5.249   6.972   0.254 -1.6084 -1.0420  0.0728
  100MOL   H24542023   5.368   7.334   0.526 -0.2762  1.4599  0.2809
  100MOL   H24642024   5.332   7.228   0.654  0.3789  1.7598  0.9096
  100MOL   H24742025   5.220   7.463   0.703 -0.7453  0.2863  0.0907
  100MOL   H24842026   5.123   7.432   0.563  0.0289  0.1239 -0.1666
  100MOL   H24942027   5.117   7.265   0.828  2.1100  1.5994  0.3808
  100MOL   H25042028   5.013   7.241   0.688  2.1030 -1.4718 -0.1811
  100MOL   H25142029   4.904   7.361   0.846 -0.0105  0.9465  1.9757
  100MOL   H25242030   4.927   7.465   0.708 -2.3080 -0.2259  1.2484
  100MOL   H25342031   5.019   7.500   0.856  1.1011 -0.4937 -1.6885
  100MOL   C25442032   5.114   6.936   0.420  0.0204 -0.6001 -0.0363
  100MOL   C25542033   5.183   6.832   0.510  0.0704  0.3142 -0.3913
  100MOL   C25642034   5.262   6.891   0.631  0.0857 -0.0449  0.0139
  100MOL   O25742035   5.380   6.868   0.647 -0.8593  0.1219 -0.7926
  100MOL   O25842036   5.191   6.958   0.716  0.1558 -0.4490  0.6824
  100MOL   C25942037   5.239   7.000   0.842 -0.1438 -0.0306 -0.5267
  100MOL   C26042038   5.125   6.996   0.951 -0.9623 -0.2960  0.2170
  100MOL   C26142039   5.183   7.040   1.075 -0.4421  0.2369 -0.3691
  100MOL   C26242040   5.111   7.000   1.209  0.0542  0.7895  0.1763
  100MOL   H26342041   5.044   6.885   0.353 -0.0471 -0.9473  0.2979
  100MOL   H26442042   5.049   6.999   0.481  1.0720  0.3884  0.0791
  100MOL   H26542043   5.260   6.771   0.462  0.1498  1.1844 -1.3905
  100MOL   H26642044   5.312   7.080   0.834  1.0315 -0.9608  0.5754
  100MOL   H26742045   5.304   6.921   0.879 -0.6008 -0.9628 -1.6763
  100MOL   H26842046   5.039   7.057   0.923  0.8527  0.9816 -2.7661
  100MOL   H26942047   5.098   6.891   0.958  0.3026 -0.5504  1.4224
  100MOL   H27042048   5.188   7.149   1.075 -0.8098  0.2579 -1.2387
  100MOL   H27142049   5.281   6.994   1.085 -1.0212 -0.9353  0.0460
  100MOL   H27242050   5.002   7.003   1.196  0.2300  2.6127 -1.2483
  100MOL   H27342051   5.147   7.068   1.286  1.4213 -0.9409  1.0755
  100MOL   H27442052   5.144   6.900   1.236  0.1050  0.7216 -0.1336
  100MOL   C27542053   5.087   6.733   0.577 -0.5846  0.0911 -0.5365
  100MOL   C27642054   5.153   6.638   0.687 -0.0912  0.3878  0.8380
  100MOL   C27742055   5.042   6.564   0.768  0.2729 -0.6651  0.2639
  100MOL   O27842056   5.006   6.453   0.743 -0.7021 -0.5160  0.1401
  100MOL   O27942057   5.009   6.630   0.885 -0.0339 -0.4281 -0.3100
  100MOL   C28042058   4.925   6.568   0.978 -0.0585  0.1579 -0.0330
  100MOL   C28142059   4.819   6.665   1.042  0.8429 -0.0273  0.5036
  100MOL   C28242060   4.865   6.803   1.067 -0.0223  0.3920  0.3973
  100MOL   C28342061   4.758   6.877   1.140 -0.4913  0.1368  0.1449
  100MOL   H28442062   5.042   6.661   0.509  1.5413 -0.1874 -1.6949
  100MOL   H28542063   5.008   6.792   0.624 -0.1913 -0.7597  1.2588
  100MOL   H28642064   5.209   6.690   0.765  1.5633 -2.0376  1.3291
  100MOL   H28742065   4.993   6.527   1.053 -0.5951 -2.5989 -0.9824
  100MOL   H28842066   4.878   6.481   0.933  0.2744 -0.4842  0.8430
  100MOL   H28942067   4.735   6.671   0.972  1.4691  1.4073 -0.1412
  100MOL   H29042068   4.766   6.620   1.126  3.4333 -1.1328  1.5963
  100MOL   H29142069   4.887   6.858   0.975  1.8083  0.1465  0.6615
  100MOL   H29242070   4.956   6.802   1.128 -0.2588  0.3016  0.7486
  100MOL   H29342071   4.662   6.859   1.093 -1.1087 -1.3324  1.9161
  100MOL   H29442072   4.776   6.984   1.152  1.3591  0.1283 -2.0649
  100MOL   H29542073   4.739   6.840   1.241 -1.0107  1.5712  0.5825
  100MOL   C29642074   5.247   6.543   0.608 -0.2445  0.7089 -0.2721
  100MOL   C29742075   5.342   6.471   0.712  0.2361  0.0014 -0.2250
  100MOL   C29842076   5.411   6.345   0.657  0.0441 -0.3902  0.3615
  100MOL   O29942077   5.384   6.239   0.703 -0.4145  0.2441 -0.2792
  100MOL   O30042078   5.496   6.364   0.552  1.0785  0.5173 -0.1802
  100MOL   C30142079   5.579   6.261   0.497 -0.0561  0.1458 -0.9521
  100MOL   C30242080   5.600   6.273   0.343  0.2275 -0.7432 -0.0221
  100MOL   C30342081   5.466   6.270   0.275  0.0250  0.1970  0.1365
  100MOL   C30442082   5.484   6.268   0.122  0.0987  0.2383  0.7554
  100MOL   H30542083   5.310   6.598   0.538 -0.5867  0.3286 -0.8828
  100MOL   H30642084   5.178   6.474   0.559 -0.0281  1.4123 -1.5791
  100MOL   H30742085   5.286   6.424   0.792  0.4929  0.1157  0.0222
  100MOL   H30842086   5.537   6.163   0.520  0.1797 -0.2258 -2.0719
  100MOL   H30942087   5.674   6.258   0.550 -0.3858  1.7048 -0.2505
  100MOL   H31042088   5.654   6.365   0.321 -0.3078 -0.4951 -0.3247
  100MOL   H31142089   5.652   6.180   0.319 -0.2534 -1.2210  0.7817
  100MOL   H31242090   5.413   6.357   0.314 -0.5422  1.2232 -2.8054
  100MOL   H31342091   5.410   6.183   0.310  1.7473 -0.4513  1.3643
  100MOL   H31442092   5.531   6.176   0.088  0.0324  0.0382  1.1974
  100MOL   H31542093   5.536   6.357   0.085  0.7060 -1.0914 -1.6657
  100MOL   H31642094   5.390   6.276   0.067 -0.1547 -0.0991  1.1353
  100MOL   C31742095   5.451   6.567   0.769  0.1560  1.0106 -0.3807
  100MOL   C31842096   5.517   6.515   0.898  0.2518  0.3851  0.0176
  100MOL   C31942097   5.673   6.522   0.903 -0.1786  0.6546 -0.5146
  100MOL   O32042098   5.736   6.564   0.801  0.0900  0.5201  0.0805
  100MOL   O32142099   5.721   6.487   1.014 -0.4145 -0.3538  0.2299
  100MOL   C32242100   5.849   6.518   1.055 -0.0768 -0.0394 -0.3293
  100MOL   C32342101   5.885   6.667   1.072 -0.0758  1.2767  0.3323
  100MOL   C32442102   5.821   6.728   1.193  0.5646  0.3658 -0.8258
  100MOL   C32542103   5.878   6.863   1.235 -0.2447 -0.3144  0.2083
  100MOL   H32642104   5.409   6.666   0.787 -1.3997  0.0446  1.5034
  100MOL   H32742105   5.521   6.594   0.690 -1.3112  0.2939 -1.9666
  100MOL   H32842106   5.496   6.408   0.902  1.1669  0.1321 -1.6515
  100MOL   H32942107   5.921   6.477   0.984 -0.6077 -1.5945  0.0063
  100MOL   H33042108   5.864   6.467   1.150  0.6058  0.1668 -0.3215
  100MOL   H33142109   5.992   6.679   1.087  0.0635 -0.6616  1.0346
  100MOL   H33242110   5.867   6.723   0.980  0.6292  0.2837 -0.4174
  100MOL   H33342111   5.814   6.661   1.279 -1.4854  0.2478 -1.0453
  100MOL   H33442112   5.715   6.735   1.169 -0.2834 -1.5248  2.0958
  100MOL   H33542113   5.855   6.941   1.163  0.8928  1.0684  1.2971
  100MOL   H33642114   5.987   6.854   1.229 -0.1810  1.8294 -3.0865
  100MOL   H33742115   5.835   6.887   1.333 -0.3431 -0.8627  0.2980
  100MOL   C33842116   5.464   6.575   1.030 -0.7190 -0.2000  0.1349
  100MOL   C33942117   5.314   6.538   1.066 -0.8131 -0.4207 -0.3660
  100MOL   C34042118   5.290   6.383   1.085 -0.5158 -0.3371 -0.3175
  100MOL   O34142119   5.370   6.310   1.135  0.2961 -0.1298  0.1143
  100MOL   O34242120   5.174   6.345   1.034  0.2459  0.1695  0.0874
  100MOL   C34342121   5.142   6.206   1.034  0.0296 -0.5924  0.3538
  100MOL   C34442122   4.991   6.195   1.002  0.0440  0.4148 -0.0420
  100MOL   C34542123   4.898   6.224   1.122 -0.5087  0.6771  0.9673
  100MOL   C34642124   4.751   6.252   1.096 -0.2845  0.0670  0.1841
  100MOL   H34742125   5.468   6.684   1.030  0.2287 -0.1854  2.6047
  100MOL   H34842126   5.516   6.546   1.122 -0.9204 -2.4483 -0.4393
  100MOL   H34942127   5.255   6.556   0.976 -1.5158 -3.2165 -0.5016
  100MOL   H35042128   5.165   6.157   1.129 -2.8453  1.4301  2.2056
  100MOL   H35142129   5.192   6.152   0.954 -0.5986 -0.3531 -0.1996
  100MOL   H35242130   4.969   6.269   0.926 -1.1016 -2.4725 -2.6403
  100MOL   H35342131   4.963   6.111   0.939 -0.0410  1.3953 -1.3334
  100MOL   H35442132   4.947   6.305   1.175  2.1767 -2.3363  3.2832
  100MOL   H35542133   4.896   6.148   1.201  2.0268 -1.7974 -1.2307
  100MOL   H35642134   4.725   6.297   1.000  0.9427 -1.0904 -0.7117
  100MOL   H35742135   4.712   6.321   1.170 -0.2934  1.7995 -1.4066
  100MOL   H35842136   4.683   6.167   1.108  1.6964 -1.9552 -2.1684
  100MOL   C35942137   5.250   6.614   1.183 -0.2299  0.1799 -0.4924
  100MOL   C36042138   5.280   6.567   1.330 -0.0585 -0.1152  0.6255
  100MOL   C36142139   5.425   6.562   1.368 -0.4714 -0.0265  0.2200
  100MOL   O36242140   5.504   6.652   1.355 -0.4094  0.1190  0.0834
  100MOL   O36342141   5.461   6.443   1.419 -0.0732  0.5022  0.4921
  100MOL   C36442142   5.592   6.412   1.459 -0.3328 -0.2316 -0.6882
  100MOL   C36542143   5.664   6.341   1.343 -0.6517  0.2301 -0.3243
  100MOL   C36642144   5.811   6.332   1.368 -0.4114  0.2228  0.7286
  100MOL   C36742145   5.886   6.236   1.274  0.0525  0.0137 -0.5335
  100MOL   H36842146   5.146   6.591   1.162 -0.2707 -1.9023  1.8062
  100MOL   H36942147   5.273   6.720   1.178 -0.4461  0.4016  2.7378
  100MOL   H37042148   5.247   6.465   1.348  0.6974 -0.2706  1.1252
  100MOL   H37142149   5.580   6.337   1.538 -0.9594  0.2923 -0.2761
  100MOL   H37242150   5.653   6.498   1.485  0.8858 -1.2303 -0.2380
  100MOL   H37342151   5.620   6.247   1.311 -1.5052 -0.1888  1.9983
  100MOL   H37442152   5.637   6.408   1.261  1.3630  0.0245 -1.1780
  100MOL   H37542153   5.836   6.303   1.470  0.3267  0.4360  0.6153
  100MOL   H37642154   5.854   6.431   1.359  1.3965 -0.5602  0.4280
  100MOL   H37742155   5.992   6.257   1.290  0.0954  0.1868 -1.0215
  100MOL   H37842156   5.863   6.258   1.170 -1.1001  0.5200 -0.1754
  100MOL   H37942157   5.860   6.132   1.292  0.8890 -0.0539  0.3178
  100MOL   C38042158   5.220   6.668   1.435 -0.0781 -0.3249 -0.4343
  100MOL   C38142159   5.070   6.684   1.455 -0.2412 -0.7049  0.9477
  100MOL   C38242160   4.994   6.554   1.415 -0.2692  0.1757 -0.6113
  100MOL   O38342161   4.932   6.538   1.310  0.5142  0.4255  0.0158
  100MOL   O38442162   4.999   6.461   1.510  0.4234 -0.0872 -0.4337
  100MOL   C38542163   4.949   6.330   1.488 -0.0562  0.4891  0.1783
  100MOL   C38642164   5.053   6.230   1.432 -0.1425 -0.7768 -0.5067
  100MOL   C38742165   5.171   6.204   1.531 -0.1546  0.1464 -0.1276
  100MOL   C38842166   5.256   6.080   1.493  0.5107  0.0443 -0.1107
  100MOL   H38942167   5.264   6.768   1.443  0.8248 -0.9359  3.4318
  100MOL   H39042168   5.255   6.616   1.524  1.0130  1.8777  0.4744
  100MOL   H39142169   5.038   6.753   1.378 -2.0226 -2.0091  0.4810
  100MOL   H39242170   4.854   6.325   1.434 -0.6607  0.7595  1.2004
  100MOL   H39342171   4.931   6.290   1.588  0.0223  0.8206  0.3294
  100MOL   H39442172   4.994   6.143   1.404 -0.7009 -0.3910 -0.5153
  100MOL   H39542173   5.090   6.267   1.336  2.5501 -2.6104 -0.2660
  100MOL   H39642174   5.124   6.183   1.627 -0.8027  1.0646 -0.2389
  100MOL   H39742175   5.234   6.293   1.540 -1.1732  0.6432  2.4560
  100MOL   H39842176   5.348   6.077   1.550  0.7243 -0.6794 -0.4874
  100MOL   H39942177   5.295   6.098   1.393  0.2140 -0.1610 -0.2618
  100MOL   H40042178   5.214   5.980   1.497  0.0837  0.2845  1.7367
  100MOL   C40142179   5.024   6.753   1.584  0.2996  0.7740  0.4129
  100MOL   C40242180   4.896   6.842   1.582 -0.6122 -0.4030  0.0250
  100MOL   C40342181   4.922   6.987   1.535  0.5718 -0.1569  0.3503
  100MOL   O40442182   4.873   7.020   1.429 -0.6801 -0.0573 -0.5439
  100MOL   O40542183   4.993   7.052   1.611  0.1605 -0.0137 -0.0668
  100MOL   C40642184   5.046   7.180   1.573  0.2620  0.5803 -0.7901
  100MOL   C40742185   5.124   7.237   1.681  0.5888  0.8531  0.1777
  100MOL   C40842186   5.238   7.145   1.731 -0.3717  0.1148 -0.1112
  100MOL   C40942187   5.319   7.208   1.841 -0.2893 -0.7789  0.1723
  100MOL   H41042188   5.104   6.813   1.628  3.0227  0.1763 -3.4739
  100MOL   H41142189   5.014   6.672   1.656  1.9154 -0.5379 -0.8168
  100MOL   H41242190   4.841   6.857   1.675  2.2043  1.5939  1.4394
  100MOL   H41342191   4.974   7.251   1.535 -2.7713 -1.5583  0.7885
  100MOL   H41442192   5.116   7.159   1.491 -1.4913 -0.7853 -1.9756
  100MOL   H41542193   5.166   7.329   1.642  0.7045  0.9719  0.5769
  100MOL   H41642194   5.059   7.278   1.759  0.1871  1.9551 -0.7351
  100MOL   H41742195   5.316   7.114   1.662 -0.4591 -1.2214  0.3778
  100MOL   H41842196   5.196   7.058   1.782  2.1657 -2.0517 -1.6004
  100MOL   H41942197   5.418   7.165   1.855  0.4597  1.6378  2.6970
  100MOL   H42042198   5.261   7.198   1.933 -1.3562  0.2775 -0.3708
  100MOL   H42142199   5.337   7.314   1.827 -0.2932 -0.7650  0.2677
  100MOL   H42242200   4.815   6.799   1.523 -1.4189  1.1095  0.0099
  101MOL     C142201   7.546   0.086   1.121 -0.1155  0.3600  0.2052
  101MOL     C242202   7.526   0.216   1.040  0.3532 -0.5036  0.3070
  101MOL     C342203   7.383   0.245   0.998  0.2997  0.7566  0.2604
  101MOL     O442204   7.280   0.184   1.042  0.4546 -0.4998  0.0380
  101MOL     O542205   7.373   0.348   0.909  0.0630  0.9086 -0.0508
  101MOL     C642206   7.251   0.362   0.835  0.6906  0.4669 -0.3034
  101MOL     C742207   7.254   0.260   0.722  0.9962  0.1249  0.2255
  101MOL     C842208   7.130   0.268   0.636  0.0869  1.0852 -0.4210
  101MOL     C942209   7.122   0.140   0.546 -0.3031 -0.0820  0.3478
  101MOL    H1042210   7.509   0.100   1.223  1.4273  0.7506  0.7210
  101MOL    H1142211   7.494   0.002   1.074  0.4711 -0.2095  0.5760
  101MOL    H1242212   7.566   0.193   0.940 -2.0608 -1.0772 -0.5472
  101MOL    H1342213   7.237   0.464   0.798  1.4244  0.3843 -0.8094
  101MOL    H1442214   7.161   0.339   0.894  1.6108 -0.6717  0.6873
  101MOL    H1542215   7.346   0.264   0.663  1.1063  2.6143  0.4789
  101MOL    H1642216   7.257   0.157   0.757  2.4228  0.0506 -0.0926
  101MOL    H1742217   7.136   0.358   0.574  1.6378  0.8665 -0.5943
  101MOL    H1842218   7.038   0.272   0.695 -1.3009 -1.9304 -2.2349
  101MOL    H1942219   7.084   0.055   0.603  1.0118 -0.8366  0.1134
  101MOL    H2042220   7.220   0.114   0.506 -0.4063 -0.4982  0.3699
  101MOL    H2142221   7.055   0.150   0.461 -0.9790 -0.9204  0.7823
  101MOL    H2242222   7.651   0.059   1.125  0.1596  0.5729 -3.7483
  101MOL    C2342223   7.601   0.329   1.116 -0.1709  0.0720 -0.1347
  101MOL    C2442224   7.519   0.398   1.233 -0.5409  0.3915 -0.2071
  101MOL    C2542225   7.547   0.330   1.369 -0.5824 -0.3355  0.8059
  101MOL    O2642226   7.648   0.355   1.434 -0.7697 -0.3042 -0.4833
  101MOL    O2742227   7.447   0.246   1.406 -0.1828 -0.1087 -0.2520
  101MOL    C2842228   7.462   0.175   1.526  0.0270 -0.4397  0.4882
  101MOL    C2942229   7.536   0.038   1.515  0.1819  0.0685  0.2893
  101MOL    C3042230   7.671   0.048   1.452 -0.7007  0.7303  0.0212
  101MOL    C3142231   7.741   7.765   1.441 -0.1342 -0.1908 -0.5752
  101MOL    H3242232   7.632   0.398   1.037 -0.8073 -1.8436 -2.1053
  101MOL    H3342233   7.699   0.303   1.154  0.0253 -0.6746 -1.1370
  101MOL    H3442234   7.413   0.382   1.221 -0.9130 -0.0500  3.1659
  101MOL    H3542235   7.369   0.169   1.582 -2.0102  0.1042 -2.7097
  101MOL    H3642236   7.529   0.234   1.589  0.2294 -0.9422  0.7417
  101MOL    H3742237   7.538   7.849   1.616  1.3681 -2.4768 -0.7494
  101MOL    H3842238   7.469   7.828   1.456  0.6336  0.9330 -1.1856
  101MOL    H3942239   7.742   0.114   1.502 -1.1323  0.3008  1.2223
  101MOL    H4042240   7.662   0.095   1.354 -1.9914  0.5134  0.0249
  101MOL    H4142241   7.782   7.744   1.540 -2.6549  1.0025  0.7577
  101MOL    H4242242   7.814   7.774   1.359  0.0944 -2.0246 -0.6049
  101MOL    H4342243   7.675   7.682   1.415  1.0350 -1.3139 -0.0444
  101MOL    C4442244   7.532   0.553   1.244 -0.7558 -0.3153 -0.4643
  101MOL    C4542245   7.418   0.624   1.326  0.0924  0.2847  0.5759
  101MOL    C4642246   7.464   0.698   1.452  0.2202 -0.5935 -0.3586
  101MOL    O4742247   7.534   0.799   1.448 -0.0719 -0.2451 -0.1908
  101MOL    O4842248   7.406   0.650   1.557 -0.2247  0.5944  0.4260
  101MOL    C4942249   7.460   0.695   1.682 -0.1961  0.4144  0.3463
  101MOL    C5042250   7.454   0.594   1.789  0.2125  0.1972  0.3003
  101MOL    C5142251   7.307   0.562   1.825 -0.5939 -0.3313 -0.2804
  101MOL    C5242252   7.289   0.441   1.913 -0.3372  0.0088 -0.4296
  101MOL    H5342253   7.546   0.597   1.145  2.4757  3.1516  1.3928
  101MOL    H5442254   7.627   0.570   1.295 -1.1287  2.9769 -0.7417
  101MOL    H5542255   7.347   0.553   1.368 -1.4420  0.4735 -1.6443
  101MOL    H5642256   7.406   0.786   1.709 -0.4968  0.8049 -1.4913
  101MOL    H5742257   7.563   0.730   1.689 -0.5330  1.6590 -0.5729
  101MOL    H5842258   7.494   0.496   1.764 -0.0597  0.5311 -1.5045
  101MOL    H5942259   7.499   0.638   1.879 -1.6190  0.5773  1.0516
  101MOL    H6042260   7.254   0.541   1.732  3.0537  1.0950 -2.8199
  101MOL    H6142261   7.256   0.650   1.862 -1.6292 -0.9560 -0.1968
  101MOL    H6242262   7.191   0.451   1.960  0.0474 -1.2537  0.6632
  101MOL    H6342263   7.357   0.439   1.998 -0.3136  2.3662 -0.3530
  101MOL    H6442264   7.290   0.343   1.865 -0.9724 -0.0723 -0.2803
  101MOL    C6542265   7.338   0.719   1.237 -1.0858 -0.6935 -0.2039
  101MOL    C6642266   7.255   0.648   1.129 -0.2501  0.2225  0.2328
  101MOL    C6742267   7.146   0.554   1.182  0.4602 -0.0400  0.4572
  101MOL    O6842268   7.129   0.446   1.127 -0.0594 -0.7357  0.0204
  101MOL    O6942269   7.059   0.604   1.270  0.4357 -0.0889  0.1847
  101MOL    C7042270   6.965   0.515   1.325  0.0034 -0.7958  1.4634
  101MOL    C7142271   6.958   0.548   1.468 -0.2017  0.2203 -0.7329
  101MOL    C7242272   6.855   0.462   1.541  0.6189 -0.5900  0.0251
  101MOL    C7342273   6.865   0.472   1.694 -0.4209  0.2487 -0.3513
  101MOL    H7442274   7.415   0.783   1.195  0.1219 -0.8094  1.7754
  101MOL    H7542275   7.280   0.788   1.298 -1.1069 -0.1932 -0.7845
  101MOL    H7642276   7.323   0.593   1.064  1.0729  2.0407  0.0535
  101MOL    H7742277   6.991   0.410   1.311 -1.1524 -0.8410 -0.5557
  101MOL    H7842278   6.865   0.526   1.282  0.4471 -0.7511  0.4471
  101MOL    H7942279   7.060   0.537   1.506 -0.3180 -1.0065 -0.7463
  101MOL    H8042280   6.934   0.652   1.490  0.3162 -0.0117  1.0641
  101MOL    H8142281   6.855   0.355   1.518 -1.1342 -0.2342 -1.7744
  101MOL    H8242282   6.755   0.500   1.518  0.6750 -0.5319 -0.1237
  101MOL    H8342283   6.920   0.563   1.719  0.0688 -0.2508  0.4120
  101MOL    H8442284   6.914   0.386   1.740 -0.3289 -0.2626 -1.3945
  101MOL    H8542285   6.772   0.482   1.749 -0.5236  1.2274 -0.6900
  101MOL    C8642286   7.182   0.749   1.028 -0.2173  0.0145  0.0082
  101MOL    C8742287   7.267   0.852   0.963  0.1738  0.2366  0.2542
  101MOL    C8842288   7.384   0.788   0.883 -0.3771  0.1134 -0.4661
  101MOL    O8942289   7.495   0.796   0.930 -0.1553  0.0655 -1.0817
  101MOL    O9042290   7.343   0.728   0.770 -0.1319 -0.3331  0.4368
  101MOL    C9142291   7.441   0.672   0.687  0.0551 -0.2023  0.1910
  101MOL    C9242292   7.480   0.771   0.576 -0.0632 -0.3233  0.1310
  101MOL    C9342293   7.359   0.815   0.495 -0.7561  0.6459  0.4938
  101MOL    C9442294   7.406   0.915   0.390 -0.5070 -0.4436 -0.4087
  101MOL    H9542295   7.109   0.810   1.082  0.2174 -1.7028  2.6728
  101MOL    H9642296   7.131   0.690   0.952  0.9509  1.1434 -1.6984
  101MOL    H9742297   7.300   0.912   1.048  1.5387 -3.0959  2.1794
  101MOL    H9842298   7.395   0.581   0.649  1.0430 -0.5828 -0.1204
  101MOL    H9942299   7.525   0.646   0.751  0.4657  2.5686  0.8667
  101MOL   H10042300   7.524   0.865   0.611 -0.1540  0.6244 -2.2055
  101MOL   H10142301   7.556   0.723   0.513  1.2564  0.3896  1.1477
  101MOL   H10242302   7.287   0.857   0.565 -0.5879 -1.1563  1.8052
  101MOL   H10342303   7.319   0.725   0.448 -0.1212  0.3910  0.4255
  101MOL   H10442304   7.465   0.865   0.313 -0.8490 -1.1169 -0.2315
  101MOL   H10542305   7.461   0.995   0.441 -2.7777 -0.1572  1.6834
  101MOL   H10642306   7.321   0.952   0.333  0.9621  1.2724 -1.5545
  101MOL   C10742307   7.180   0.949   0.876  0.5366  0.7562  0.1809
  101MOL   C10842308   7.214   1.099   0.875  0.2286  1.3759  0.6183
  101MOL   C10942309   7.350   1.121   0.822 -0.2221 -0.0313 -0.4989
  101MOL   O11042310   7.392   1.090   0.706 -0.0666  0.5407 -0.3373
  101MOL   O11142311   7.421   1.190   0.915 -0.1070 -0.3022  0.7942
  101MOL   C11242312   7.559   1.186   0.891  0.6079  0.3231 -0.3930
  101MOL   C11342313   7.634   1.256   1.002  0.5837  0.4750 -0.2401
  101MOL   C11442314   7.639   1.169   1.126  0.5134 -0.3912  0.3262
  101MOL   C11542315   7.704   1.236   1.243  0.2422 -0.3785 -0.3608
  101MOL   H11642316   7.073   0.945   0.896  0.6004  0.2303  0.4250
  101MOL   H11742317   7.180   0.909   0.775 -1.2116  1.0226  0.0733
  101MOL   H11842318   7.204   1.127   0.980 -0.1610 -1.8679  1.4853
  101MOL   H11942319   7.584   1.241   0.801  3.3295  0.5080  0.4326
  101MOL   H12042320   7.596   1.083   0.886  3.1547  1.2452 -1.7725
  101MOL   H12142321   7.734   1.257   0.958  0.9953 -2.6769  0.4683
  101MOL   H12242322   7.586   1.353   1.009 -2.0683 -0.4819 -3.5992
  101MOL   H12342323   7.687   1.072   1.108 -0.4820 -1.0368  1.0733
  101MOL   H12442324   7.536   1.146   1.152  0.0034 -2.1463 -2.8845
  101MOL   H12542325   7.674   1.163   1.318 -1.9843  0.2224 -0.6209
  101MOL   H12642326   7.657   1.329   1.274  1.9678  0.3155  0.2052
  101MOL   H12742327   7.812   1.245   1.234  0.5228 -0.9926  1.9576
  101MOL   C12842328   7.112   1.174   0.785  0.1190  0.2610  0.1726
  101MOL   C12942329   6.976   1.211   0.861  0.5548 -0.1070 -0.3293
  101MOL   C13042330   6.992   1.289   0.995  0.1797 -0.0968  0.6607
  101MOL   O13142331   6.939   1.255   1.098  0.0650  0.9182  0.1976
  101MOL   O13242332   7.073   1.395   0.979 -0.2552  0.0068  0.5939
  101MOL   C13342333   7.126   1.462   1.090  0.2193 -0.2810 -0.2598
  101MOL   C13442334   7.272   1.412   1.111  0.1778 -0.4438 -0.2436
  101MOL   C13542335   7.344   1.481   1.223  0.0593  0.1636  0.0445
  101MOL   C13642336   7.293   1.448   1.370 -0.9977  0.9258 -0.3033
  101MOL   H13742337   7.100   1.120   0.692 -0.7892  0.7697 -0.0061
  101MOL   H13842338   7.137   1.276   0.756  1.3446 -0.6168 -1.9671
  101MOL   H13942339   6.921   1.118   0.878 -0.7118  0.6075 -0.5004
  101MOL   H14042340   7.084   1.441   1.189 -0.3032 -0.7785 -0.5841
  101MOL   H14142341   7.126   1.569   1.068  1.8620 -0.1353  0.3730
  101MOL   H14242342   7.264   1.311   1.152 -2.4565 -0.2197 -0.1464
  101MOL   H14342343   7.318   1.396   1.014  2.4313 -2.8787  1.1508
  101MOL   H14442344   7.353   1.587   1.203 -2.1319  0.5073  0.7453
  101MOL   H14542345   7.449   1.450   1.222 -0.0958 -0.4917  1.7631
  101MOL   H14642346   7.362   1.465   1.452  0.2623 -1.0314 -0.9390
  101MOL   H14742347   7.277   1.340   1.369 -0.9913  0.9200  0.0984
  101MOL   H14842348   7.195   1.487   1.398 -2.1716 -1.0106 -1.6516
  101MOL   C14942349   6.882   1.296   0.766 -0.2437 -0.0167 -0.0886
  101MOL   C15042350   6.722   1.286   0.781 -0.9129  0.3494 -0.3829
  101MOL   C15142351   6.686   1.137   0.788  0.4917  0.0402 -0.3013
  101MOL   O15242352   6.664   1.082   0.899 -0.7773  0.1460 -0.0926
  101MOL   O15342353   6.669   1.079   0.668  0.0230  0.6069  0.2966
  101MOL   C15442354   6.618   0.946   0.665 -0.5338  0.1395 -0.0824
  101MOL   C15542355   6.502   0.947   0.568 -0.6333 -0.4617  0.1614
  101MOL   C15642356   6.382   1.030   0.599  0.5508  0.7280  0.4805
  101MOL   C15742357   6.253   1.009   0.506  0.2588  0.2513  0.0114
  101MOL   H15842358   6.903   1.246   0.671  0.1550  1.5582 -0.8456
  101MOL   H15942359   6.916   1.400   0.758  0.5555 -0.1259  1.6795
  101MOL   H16042360   6.671   1.313   0.689  0.6749 -3.0219 -2.3218
  101MOL   H16142361   6.596   0.897   0.759  0.0359 -0.5157 -0.2809
  101MOL   H16242362   6.699   0.888   0.619 -0.1450 -0.6012  1.5253
  101MOL   H16342363   6.540   0.973   0.470 -0.5098 -1.4623 -0.0685
  101MOL   H16442364   6.471   0.842   0.567  0.6503 -0.8484  0.0761
  101MOL   H16542365   6.414   1.133   0.581  1.0187  0.3549 -0.8855
  101MOL   H16642366   6.360   1.028   0.706 -0.4261  0.3407  0.2709
  101MOL   H16742367   6.204   0.918   0.541  1.7705 -0.3052  0.7395
  101MOL   H16842368   6.296   0.983   0.409 -2.0216  1.0837 -1.2560
  101MOL   H16942369   6.179   1.089   0.501  1.1414  1.1640  1.3164
  101MOL   C17042370   6.667   1.369   0.900  0.6977 -0.4948 -0.1170
  101MOL   C17142371   6.521   1.425   0.892 -0.3579  0.3125 -0.0676
  101MOL   C17242372   6.509   1.526   0.780 -0.4213  0.3753  0.9716
  101MOL   O17342373   6.473   1.486   0.664  0.0452 -0.4203  0.5369
  101MOL   O17442374   6.551   1.646   0.809 -0.3672 -0.4822  0.0085
  101MOL   C17542375   6.584   1.744   0.715  0.2583 -0.4304  0.7945
  101MOL   C17642376   6.729   1.795   0.757 -0.2722 -1.4414 -0.8871
  101MOL   C17742377   6.842   1.691   0.747  0.1404 -0.0614 -0.4430
  101MOL   C17842378   6.977   1.757   0.731 -0.2601 -0.0198  0.2286
  101MOL   H17942379   6.730   1.456   0.918  2.2845 -0.7789 -3.8793
  101MOL   H18042380   6.665   1.319   0.997 -2.5352 -1.2451 -0.5080
  101MOL   H18142381   6.511   1.483   0.983 -3.1733 -0.0421 -0.1093
  101MOL   H18242382   6.520   1.832   0.713 -0.1087 -0.7100 -1.6949
  101MOL   H18342383   6.586   1.703   0.614 -2.2062 -0.8496  0.8898
  101MOL   H18442384   6.754   1.870   0.682 -2.1587  0.8537  0.7072
  101MOL   H18542385   6.729   1.850   0.852  0.5171 -2.0377 -0.5310
  101MOL   H18642386   6.828   1.628   0.660 -0.5719 -2.2898  1.2444
  101MOL   H18742387   6.834   1.626   0.834  0.3815  2.1851  1.3232
  101MOL   H18842388   7.015   1.794   0.826 -1.3938 -1.0578  1.1086
  101MOL   H18942389   6.986   1.842   0.663  0.3719 -0.2566  0.0118
  101MOL   H19042390   7.054   1.684   0.707 -1.1423 -1.1931  0.9463
  101MOL   C19142391   6.414   1.311   0.885  0.5806  0.3920  0.4455
  101MOL   C19242392   6.273   1.349   0.945  0.8365 -0.2762 -0.2160
  101MOL   C19342393   6.167   1.245   0.896  0.1194  0.2352  0.4712
  101MOL   O19442394   6.156   1.135   0.953 -0.2716  0.8376  0.5581
  101MOL   O19542395   6.095   1.289   0.799  0.0408 -0.4391 -0.6247
  101MOL   C19642396   5.999   1.201   0.739  0.1377  0.0292 -0.1241
  101MOL   C19742397   5.925   1.276   0.627 -0.5639  0.0172 -0.3356
  101MOL   C19842398   5.835   1.392   0.677 -0.3033  0.0568 -1.4168
  101MOL   C19942399   5.741   1.456   0.567  0.0649 -0.3289 -0.4002
  101MOL   H20042400   6.458   1.228   0.939 -1.0157 -0.7521  0.0376
  101MOL   H20142401   6.393   1.270   0.786  0.3648  0.1560  0.5894
  101MOL   H20242402   6.255   1.449   0.903 -0.3113  0.4125  1.8553
  101MOL   H20342403   5.919   1.169   0.805  0.0441 -2.4810 -1.4059
  101MOL   H20442404   6.051   1.116   0.696 -2.7086 -1.3736 -0.9034
  101MOL   H20542405   5.994   1.309   0.549 -0.6337 -0.3225 -0.5392
  101MOL   H20642406   5.853   1.205   0.586  1.4349 -1.3108 -1.6505
  101MOL   H20742407   5.891   1.479   0.712  0.2749 -1.4494  1.5988
  101MOL   H20842408   5.776   1.350   0.758  0.0495 -1.4745 -1.9483
  101MOL   H20942409   5.789   1.450   0.469  1.8251 -0.5584  0.4587
  101MOL   H21042410   5.719   1.561   0.588 -1.5743 -0.5064 -1.1507
  101MOL   H21142411   5.652   1.396   0.548 -0.2233  0.1476 -0.5746
  101MOL   C21242412   6.287   1.360   1.097  0.4354 -0.0969 -0.2276
  101MOL   C21342413   6.162   1.418   1.176  0.3840 -0.0417  0.5114
  101MOL   C21442414   6.086   1.531   1.109  0.9231  0.2357  0.5284
  101MOL   O21542415   6.003   1.501   1.020 -0.1248  0.1308 -0.0120
  101MOL   O21642416   6.120   1.657   1.141  0.4919 -0.1567 -0.4345
  101MOL   C21742417   6.040   1.763   1.098 -0.0170 -0.1996  0.7839
  101MOL   C21842418   6.124   1.893   1.103 -0.3713 -0.2181  0.5349
  101MOL   C21942419   6.254   1.908   1.019  0.5239  0.5401 -0.0457
  101MOL   C22042420   6.327   2.037   1.063  0.0101 -0.3295 -0.1523
  101MOL   H22142421   6.374   1.425   1.109  0.0138  0.4253  0.0083
  101MOL   H22242422   6.333   1.275   1.148  0.1707  0.4884  1.0023
  101MOL   H22342423   6.201   1.466   1.265 -0.2497 -0.8040  1.2152
  101MOL   H22442424   5.960   1.769   1.171  1.2572  1.0403  2.1108
  101MOL   H22542425   6.000   1.746   0.998  0.8520 -0.4109  0.4669
  101MOL   H22642426   6.067   1.983   1.077  2.3365  1.2486 -0.5235
  101MOL   H22742427   6.140   1.910   1.209 -1.6256  0.0914  0.6873
  101MOL   H22842428   6.228   1.925   0.915 -1.4771  0.8704  0.5006
  101MOL   H22942429   6.310   1.814   1.024  1.4582  0.8231 -3.6466
  101MOL   H23042430   6.414   2.055   0.999  0.5321  2.1735  1.1996
  101MOL   H23142431   6.361   2.039   1.166 -0.8376  0.9244  0.1177
  101MOL   H23242432   6.259   2.122   1.060 -0.9745 -1.0223  1.7752
  101MOL   C23342433   6.076   1.304   1.236  0.0737 -0.7146  0.4550
  101MOL   C23442434   5.951   1.356   1.320 -0.3132  0.6127 -0.4240
  101MOL   C23542435   5.840   1.248   1.329  0.3429 -0.3970 -0.2384
  101MOL   O23642436   5.727   1.269   1.290 -0.0148 -0.0660  0.2304
  101MOL   O23742437   5.892   1.130   1.374 -0.1750 -0.5403 -0.8250
  101MOL   C23842438   5.814   1.012   1.369  0.4693  0.4775  0.8201
  101MOL   C23942439   5.862   0.942   1.242  0.6352 -0.2764 -0.5014
  101MOL   C24042440   5.800   1.008   1.117  0.1047 -0.0104  0.2589
  101MOL   C24142441   5.815   0.924   0.993  0.7440 -0.1954  0.0313
  101MOL   H24242442   6.130   1.237   1.303  3.3283  1.8741  0.5350
  101MOL   H24342443   6.039   1.241   1.155 -1.7609  1.5305 -0.5073
  101MOL   H24442444   5.896   1.439   1.274 -0.0202  1.0191 -0.0504
  101MOL   H24542445   5.707   1.033   1.363  0.8693  2.0966 -1.6664
  101MOL   H24642446   5.828   0.941   1.450  0.6150  0.0434  0.4162
  101MOL   H24742447   5.968   0.945   1.219  1.0831  0.2329  1.5406
  101MOL   H24842448   5.836   0.836   1.240 -1.6239  0.2522 -1.7251
  101MOL   H24942449   5.838   1.109   1.098 -2.4490  0.7531 -1.0140
  101MOL   H25042450   5.694   1.032   1.128 -0.2613  0.1843 -3.2134
  101MOL   H25142451   5.919   0.897   0.976  1.1314  2.3355 -1.8645
  101MOL   H25242452   5.784   0.984   0.907  1.7039 -2.1901 -1.7537
  101MOL   H25342453   5.759   0.830   0.992 -0.3188  0.3634  2.7804
  101MOL   C25442454   5.994   1.397   1.467  0.3314 -0.2272  0.0204
  101MOL   C25542455   5.909   1.498   1.540  0.0958  0.1994 -0.0751
  101MOL   C25642456   5.956   1.512   1.684  0.1081 -0.7688 -0.0281
  101MOL   O25742457   5.880   1.492   1.775 -0.0266  0.4017 -0.3962
  101MOL   O25842458   6.087   1.547   1.697  0.0081 -0.3003 -0.2802
  101MOL   C25942459   6.145   1.558   1.832  0.3256 -0.2368 -0.8342
  101MOL   C26042460   6.187   1.702   1.854  0.1071 -0.2119 -1.1357
  101MOL   C26142461   6.228   1.732   1.999  0.6048 -0.1004 -0.7399
  101MOL   C26242462   6.260   1.883   2.008  0.1878 -0.1041  0.0438
  101MOL   H26342463   6.095   1.436   1.462 -0.2271  1.1918 -0.5769
  101MOL   H26442464   6.006   1.313   1.535  2.3844 -0.3586 -0.4820
  101MOL   H26542465   5.819   1.437   1.554 -1.8434  2.5827 -1.5849
  101MOL   H26642466   6.231   1.490   1.837  0.3900 -0.0775  0.4146
  101MOL   H26742467   6.069   1.525   1.903 -1.2245  0.7258 -2.0150
  101MOL   H26842468   6.275   1.729   1.795  0.8060  0.8480  0.3773
  101MOL   H26942469   6.094   1.751   1.823 -0.7372 -1.0760 -0.0008
  101MOL   H27042470   6.305   1.664   2.035 -0.9973 -1.1852  0.7574
  101MOL   H27142471   6.140   1.703   2.056  1.6330 -1.8345 -0.0122
  101MOL   H27242472   6.181   1.942   1.960  2.7001  2.5878 -0.9510
  101MOL   H27342473   6.346   1.915   1.949 -0.9273 -2.5019 -3.0698
  101MOL   H27442474   6.272   1.932   2.104  0.1765  3.4073 -1.6378
  101MOL   C27542475   5.874   1.630   1.468  0.3343  0.0084 -0.0687
  101MOL   C27642476   5.722   1.645   1.434  0.1844 -0.1069  0.1384
  101MOL   C27742477   5.629   1.633   1.556  1.0005  0.7981  0.0895
  101MOL   O27842478   5.511   1.592   1.550  0.0976  0.3506  0.4108
  101MOL   O27942479   5.686   1.677   1.672 -0.2978 -0.2779  0.2060
  101MOL   C28042480   5.624   1.690   1.802  0.1327  0.1227  0.8662
  101MOL   C28142481   5.521   1.809   1.809  0.0365  0.1920  0.1708
  101MOL   C28242482   5.460   1.828   1.956  0.0747  0.0817  0.0938
  101MOL   C28342483   5.357   1.948   1.950 -0.0055 -0.3237  0.0043
  101MOL   H28442484   5.945   1.630   1.385 -0.1655  2.9539 -0.5308
  101MOL   H28542485   5.909   1.714   1.527 -1.0948 -0.6891  1.8081
  101MOL   H28642486   5.713   1.556   1.372  1.9599 -1.1385  1.3214
  101MOL   H28742487   5.702   1.687   1.879  0.2092 -1.3444  0.7488
  101MOL   H28842488   5.579   1.597   1.838  0.7524 -0.1530  0.9395
  101MOL   H28942489   5.563   1.903   1.771 -1.8523  0.3202 -1.6728
  101MOL   H29042490   5.440   1.784   1.740 -0.4546 -1.8184  1.4500
  101MOL   H29142491   5.535   1.857   2.030  1.2781  0.1520 -1.1426
  101MOL   H29242492   5.409   1.737   1.986  2.3689 -1.2756 -0.0778
  101MOL   H29342493   5.339   1.990   2.048 -0.5367 -0.0438 -0.2139
  101MOL   H29442494   5.272   1.900   1.903  0.0947 -1.2982  0.8092
  101MOL   H29542495   5.393   2.031   1.889  1.4700 -2.1257 -1.6769
  101MOL   C29642496   5.683   1.763   1.341 -0.3954  0.0984  0.0904
  101MOL   C29742497   5.677   1.908   1.395 -0.2118 -0.1899 -0.3765
  101MOL   C29842498   5.818   1.960   1.437  0.1347 -0.3467  0.6290
  101MOL   O29942499   5.892   2.005   1.354  0.2833 -0.3885 -0.0823
  101MOL   O30042500   5.852   1.932   1.565 -0.4155 -0.2658  0.2332
  101MOL   C30142501   5.966   1.984   1.623  0.2991 -0.6088 -0.1843
  101MOL   C30242502   5.936   2.022   1.767 -0.4372 -0.3416 -0.3886
  101MOL   C30342503   5.801   2.106   1.799  1.0602  0.0055  0.3693
  101MOL   C30442504   5.780   2.113   1.950  0.5809  0.1901  0.2101
  101MOL   H30542505   5.588   1.735   1.296 -0.3187  0.1791 -0.1227
  101MOL   H30642506   5.750   1.771   1.256  1.1197 -0.0446  1.2519
  101MOL   H30742507   5.615   1.915   1.484  1.9985  3.5540  0.9808
  101MOL   H30842508   5.993   2.070   1.562 -1.0274  1.0706  1.5146
  101MOL   H30942509   6.043   1.909   1.606  0.6529 -0.2551 -0.1768
  101MOL   H31042510   5.943   1.931   1.826 -0.9836 -0.0384  0.1447
  101MOL   H31142511   6.013   2.085   1.811 -1.0543  1.9368 -2.4647
  101MOL   H31242512   5.716   2.067   1.742  1.2099  1.1321 -0.6410
  101MOL   H31342513   5.826   2.205   1.763  1.6907  0.0030  0.7909
  101MOL   H31442514   5.693   2.177   1.967 -0.0974 -0.4236 -0.8752
  101MOL   H31542515   5.855   2.169   2.006  1.5961  0.0130 -0.9455
  101MOL   H31642516   5.750   2.015   1.989 -1.5257  1.0883  0.9305
  101MOL   C31742517   5.613   2.000   1.283 -0.2952  0.8734  0.8615
  101MOL   C31842518   5.551   2.124   1.332 -0.2062  0.8172 -0.4587
  101MOL   C31942519   5.646   2.244   1.366 -0.3896  0.0413  0.2692
  101MOL   O32042520   5.624   2.286   1.481 -0.1684  0.5274  0.2555
  101MOL   O32142521   5.733   2.278   1.274 -0.1427  0.0922  0.0339
  101MOL   C32242522   5.835   2.364   1.313 -0.4759  0.7980  0.2399
  101MOL   C32342523   5.950   2.363   1.210 -0.0089 -0.7942 -0.5065
  101MOL   C32442524   6.082   2.387   1.281  0.2318  0.6274 -0.6823
  101MOL   C32542525   6.145   2.261   1.354  0.3626 -0.0003  0.0459
  101MOL   H32642526   5.543   1.940   1.224 -0.3630  1.3392  0.4679
  101MOL   H32742527   5.697   2.037   1.223 -1.3731  2.2301  0.1613
  101MOL   H32842528   5.509   2.096   1.428  0.6036 -0.0197 -0.3466
  101MOL   H32942529   5.884   2.343   1.407 -0.1436  1.5396  0.2359
  101MOL   H33042530   5.795   2.465   1.325 -2.9312 -0.3692  2.2283
  101MOL   H33142531   5.963   2.267   1.160  1.7989 -1.1567  0.6275
  101MOL   H33242532   5.927   2.444   1.140  1.9838 -0.2237 -0.5415
  101MOL   H33342533   6.083   2.470   1.351 -1.3665  0.2416 -0.1824
  101MOL   H33442534   6.151   2.438   1.214  1.4013 -0.1399 -0.0814
  101MOL   H33542535   6.088   2.220   1.438  0.1008 -1.1015 -0.6615
  101MOL   H33642536   6.237   2.290   1.406 -0.8885  3.2239  0.5696
  101MOL   H33742537   6.177   2.186   1.282  1.9282  2.3381 -1.7607
  101MOL   C33842538   5.434   2.168   1.236 -0.3435  0.0317  0.1283
  101MOL   C33942539   5.323   2.267   1.287  0.6771  0.5910 -0.3238
  101MOL   C34042540   5.257   2.216   1.415 -0.9735  0.4189  0.4041
  101MOL   O34142541   5.239   2.287   1.512  0.0168  0.3224 -0.1891
  101MOL   O34242542   5.219   2.083   1.411 -0.3056  0.3017  0.0733
  101MOL   C34342543   5.199   2.007   1.535  0.6871  0.5029 -0.1766
  101MOL   C34442544   5.207   1.857   1.500 -0.9668  0.1452  0.3194
  101MOL   C34542545   5.089   1.800   1.413 -0.3183  0.4734 -0.0853
  101MOL   C34642546   5.109   1.815   1.263 -0.4674 -0.3639 -0.0231
  101MOL   H34742547   5.379   2.079   1.205 -3.0393  1.9927 -0.9281
  101MOL   H34842548   5.483   2.192   1.141 -1.9637  1.8160 -0.2879
  101MOL   H34942549   5.236   2.244   1.224  0.3609  1.9086 -0.3670
  101MOL   H35042550   5.111   2.034   1.594 -0.4764  2.5565 -2.7004
  101MOL   H35142551   5.288   2.034   1.590 -0.7498  2.4303  1.2702
  101MOL   H35242552   5.301   1.838   1.448 -1.5855 -0.0323 -0.7537
  101MOL   H35342553   5.207   1.799   1.592 -0.8372 -0.5754 -0.1300
  101MOL   H35442554   4.998   1.853   1.438 -0.2832  1.8462 -2.6671
  101MOL   H35542555   5.079   1.693   1.431  1.3074  0.6717  2.3130
  101MOL   H35642556   5.021   1.776   1.211 -0.1561 -1.0037 -0.0660
  101MOL   H35742557   5.208   1.774   1.244 -0.9795 -2.5426  1.7950
  101MOL   H35842558   5.113   1.922   1.240 -0.7562 -0.3635 -0.0732
  101MOL   C35942559   5.361   2.417   1.298  0.1663  0.1972 -0.1937
  101MOL   C36042560   5.426   2.464   1.168  0.6628 -0.3375 -0.0224
  101MOL   C36142561   5.321   2.451   1.055  0.0443  0.3176 -0.0426
  101MOL   O36242562   5.204   2.490   1.065 -0.2787 -0.2905 -0.0880
  101MOL   O36342563   5.382   2.408   0.938  0.4702 -0.1128 -0.6990
  101MOL   C36442564   5.304   2.412   0.815 -0.2231  1.2594 -1.2065
  101MOL   C36542565   5.349   2.526   0.730  0.2561  0.4790 -0.3916
  101MOL   C36642566   5.275   2.522   0.597 -0.7166  0.0422 -0.4301
  101MOL   C36742567   5.298   2.656   0.511  0.3945  0.4987  0.3569
  101MOL   H36842568   5.429   2.423   1.383 -1.5886  0.1306  1.2463
  101MOL   H36942569   5.284   2.487   1.328  0.3866  1.4747 -2.4751
  101MOL   H37042570   5.512   2.401   1.145  0.1328 -1.4020  0.8488
  101MOL   H37142571   5.199   2.417   0.845  0.3962  1.4018  0.9777
  101MOL   H37242572   5.316   2.314   0.768 -1.5784  0.2497  0.5010
  101MOL   H37342573   5.309   2.612   0.784 -0.5193 -0.2684  0.2526
  101MOL   H37442574   5.456   2.527   0.715 -0.0084 -0.0973 -2.3995
  101MOL   H37542575   5.169   2.520   0.621 -0.8885 -1.3341 -1.2586
  101MOL   H37642576   5.297   2.439   0.530  2.3274 -0.6464  1.3405
  101MOL   H37742577   5.240   2.664   0.419  0.6382  0.8713  0.2370
  101MOL   H37842578   5.402   2.656   0.480  1.3596 -0.5914  3.4309
  101MOL   H37942579   5.287   2.744   0.574 -0.3997  0.7374 -0.1097
  101MOL   C38042580   5.479   2.611   1.185 -0.3254 -0.4083  0.3071
  101MOL   C38142581   5.558   2.657   1.057 -0.4527 -0.5019  0.2473
  101MOL   C38242582   5.530   2.807   1.019 -0.0731  0.4912 -0.2691
  101MOL   O38342583   5.527   2.889   1.109 -0.1328  0.0708 -0.0208
  101MOL   O38442584   5.515   2.839   0.885 -0.5793  0.1303 -0.4098
  101MOL   C38542585   5.520   2.966   0.837 -0.1001 -0.7704  0.8056
  101MOL   C38642586   5.397   3.007   0.761  1.0706  0.3983 -0.0319
  101MOL   C38742587   5.422   3.147   0.696  0.0573 -0.1746  0.2131
  101MOL   C38842588   5.537   3.157   0.595  0.0392 -0.3601 -0.4244
  101MOL   H38942589   5.544   2.602   1.272 -0.3610  2.7739  0.7318
  101MOL   H39042590   5.398   2.682   1.199 -0.8564 -0.5201 -1.9324
  101MOL   H39142591   5.523   2.609   0.965  0.8900 -0.3367 -0.3691
  101MOL   H39242592   5.599   2.978   0.763 -1.7649 -2.3510 -1.3154
  101MOL   H39342593   5.547   3.028   0.922 -1.1013 -1.5519  1.7038
  101MOL   H39442594   5.395   2.930   0.683  1.1481  2.4984 -2.1837
  101MOL   H39542595   5.303   2.997   0.814  0.8326 -0.1270 -0.5452
  101MOL   H39642596   5.431   3.230   0.766 -0.5132  0.1744 -0.1209
  101MOL   H39742597   5.327   3.169   0.648 -0.5084 -0.4172  1.2091
  101MOL   H39842598   5.631   3.165   0.649  0.5495 -1.1554 -1.1723
  101MOL   H39942599   5.529   3.255   0.547  0.9420 -0.2088 -0.2628
  101MOL   H40042600   5.554   3.072   0.529  0.2726  0.4487 -1.4164
  101MOL   C40142601   5.710   2.612   1.073 -0.2334  0.0953 -0.1640
  101MOL   C40242602   5.804   2.664   0.960 -0.0145 -0.8048  0.6594
  101MOL   C40342603   5.922   2.766   0.990  0.7711  0.9398 -0.1406
  101MOL   O40442604   5.967   2.776   1.104 -0.0775 -0.2005  0.4755
  101MOL   O40542605   5.959   2.822   0.879 -0.3279 -0.0478  0.3677
  101MOL   C40642606   6.043   2.944   0.904  0.1943  0.4297  0.0018
  101MOL   C40742607   6.039   3.017   0.769 -0.0097  0.1055  0.0710
  101MOL   C40842608   6.119   3.149   0.751 -0.1743 -0.4559 -0.2332
  101MOL   C40942609   6.095   3.211   0.617  0.0783 -0.2710 -0.2007
  101MOL   H41042610   5.720   2.504   1.077 -0.7231 -0.0035 -1.4783
  101MOL   H41142611   5.748   2.645   1.170 -0.8686 -3.3569  1.3122
  101MOL   H41242612   5.752   2.705   0.873  2.2637  0.0752 -0.3496
  101MOL   H41342613   6.135   2.921   0.957  0.5953  1.6495 -0.1667
  101MOL   H41442614   5.983   3.011   0.965  0.8952  0.2113  0.9427
  101MOL   H41542615   6.076   2.947   0.694 -0.0227  0.0048  0.1590
  101MOL   H41642616   5.931   3.032   0.759 -0.2104 -1.1133  0.3741
  101MOL   H41742617   6.224   3.121   0.757 -0.1890 -0.2769  0.9247
  101MOL   H41842618   6.100   3.224   0.827 -2.8676 -0.2328 -1.0380
  101MOL   H41942619   6.176   3.284   0.611 -0.1683  0.0739  0.6151
  101MOL   H42042620   5.993   3.246   0.602  0.4397  0.3370 -1.2701
  101MOL   H42142621   6.118   3.146   0.533 -0.4402  2.7056 -2.7350
  101MOL   H42242622   5.861   2.580   0.921  2.4277  0.6787  0.8663
  102MOL     C142623   2.920   3.361   3.785  0.3506 -0.7076 -0.0860
  102MOL     C242624   2.780   3.398   3.827 -0.0236  0.2434  0.1309
  102MOL     C342625   2.742   3.523   3.756  0.2533 -0.4790 -0.5936
  102MOL     O442626   2.687   3.614   3.822  0.5643 -0.1034  0.4102
  102MOL     O542627   2.757   3.523   3.620  0.3870  0.4884 -0.2090
  102MOL     C642628   2.721   3.643   3.550  0.8509  0.3635  0.4815
  102MOL     C742629   2.830   3.682   3.444  0.3397  0.1144  0.2775
  102MOL     C842630   2.837   3.590   3.319  0.2218 -0.5447  0.2720
  102MOL     C942631   2.703   3.594   3.238 -0.4530  0.0015 -0.2565
  102MOL    H1042632   2.963   3.283   3.848  1.0417  0.5096  0.9603
  102MOL    H1142633   2.929   3.325   3.682  0.6290  0.4465 -0.4723
  102MOL    H1242634   2.791   3.430   3.930  0.2353 -1.7839  0.7555
  102MOL    H1342635   2.722   3.729   3.617  1.0584 -0.0116  0.9649
  102MOL    H1442636   2.622   3.636   3.504  0.7157 -2.9812  1.1455
  102MOL    H1542637   2.816   3.785   3.411 -3.5740  0.5559  2.9879
  102MOL    H1642638   2.926   3.690   3.495  0.3652 -0.4042  0.3083
  102MOL    H1742639   2.861   3.489   3.354 -1.7150 -1.1618 -0.1289
  102MOL    H1842640   2.915   3.626   3.251 -0.0808 -0.7145 -0.1655
  102MOL    H1942641   2.685   3.697   3.210  0.4325  0.1988 -0.1093
  102MOL    H2042642   2.612   3.559   3.286 -0.5586  0.7163  0.0576
  102MOL    H2142643   2.712   3.527   3.152 -0.0191 -2.7874  1.8870
  102MOL    H2242644   2.984   3.448   3.800 -0.3610 -0.0554 -0.7764
  102MOL    C2342645   2.682   3.281   3.820 -0.5089 -0.4295  0.2101
  102MOL    C2442646   2.569   3.277   3.925 -0.1103 -0.2217 -0.2890
  102MOL    C2542647   2.618   3.258   4.073 -0.3157 -0.0456  0.6940
  102MOL    O2642648   2.675   3.155   4.111  0.0749  0.2106 -0.0434
  102MOL    O2742649   2.601   3.373   4.152  0.1499  0.1412  0.3855
  102MOL    C2842650   2.658   3.393   4.280 -0.2421 -0.6013  0.3557
  102MOL    C2942651   2.791   3.471   4.263  0.3423  0.6276 -0.2651
  102MOL    C3042652   2.776   3.597   4.176 -0.6553 -1.8791 -0.7182
  102MOL    C3142653   2.919   3.677   4.170 -0.2442 -0.5949  0.0922
  102MOL    H3242654   2.737   3.193   3.856  0.1685  0.5898  1.7292
  102MOL    H3342655   2.653   3.253   3.719  0.1146 -0.1385 -0.0544
  102MOL    H3442656   2.506   3.190   3.904  1.3335 -1.0446 -1.2452
  102MOL    H3542657   2.655   3.298   4.335  3.1235 -0.4035  1.0417
  102MOL    H3642658   2.588   3.442   4.347 -0.1704 -1.7840  1.3265
  102MOL    H3742659   2.845   3.481   4.357 -2.5544 -0.9545  1.6212
  102MOL    H3842660   2.850   3.401   4.203 -1.0550 -1.1942  0.4338
  102MOL    H3942661   2.700   3.660   4.223  0.6690 -1.2263  0.5871
  102MOL    H4042662   2.746   3.564   4.077  2.3218 -0.3286 -2.2039
  102MOL    H4142663   2.960   3.670   4.271  1.7339 -0.7076 -0.6940
  102MOL    H4242664   2.904   3.781   4.139 -0.8315 -0.9369 -0.8033
  102MOL    H4342665   2.984   3.613   4.110 -2.2413 -3.2122  0.6462
  102MOL    C4442666   2.465   3.399   3.920  0.2403  0.1999 -0.1283
  102MOL    C4542667   2.387   3.434   3.791 -0.0624  0.4586 -0.1479
  102MOL    C4642668   2.308   3.305   3.762 -0.2826 -0.3364 -0.7508
  102MOL    O4742669   2.369   3.215   3.708  0.2915 -0.5766  0.2652
  102MOL    O4842670   2.180   3.313   3.797 -0.1320  0.4522  0.1660
  102MOL    C4942671   2.109   3.203   3.761 -0.1051 -0.4763 -0.0987
  102MOL    C5042672   1.975   3.189   3.825  0.2467  0.1604  0.2012
  102MOL    C5142673   1.886   3.071   3.765 -0.2690 -0.6166  0.7160
  102MOL    C5242674   1.843   3.081   3.618 -0.0837 -0.0117  0.3043
  102MOL    H5342675   2.516   3.492   3.947  0.9253 -0.0217 -0.6508
  102MOL    H5442676   2.389   3.388   3.997 -0.5108 -0.4301 -0.9540
  102MOL    H5542677   2.465   3.445   3.715 -0.0250  0.4072 -0.1177
  102MOL    H5642678   2.169   3.112   3.765  2.4218  1.2493  2.0406
  102MOL    H5742679   2.091   3.210   3.654 -0.6677  1.0526  0.0798
  102MOL    H5842680   1.996   3.155   3.926 -1.6051  1.3385  1.0014
  102MOL    H5942681   1.920   3.283   3.825 -0.4177 -0.2123 -0.5669
  102MOL    H6042682   1.790   3.074   3.815 -1.4192 -2.9056 -1.2546
  102MOL    H6142683   1.938   2.977   3.786 -0.8966 -1.3795 -1.0722
  102MOL    H6242684   1.763   3.011   3.593 -0.7308  0.6417  0.5338
  102MOL    H6342685   1.925   3.059   3.550 -0.3442 -1.3985  0.4105
  102MOL    H6442686   1.816   3.182   3.589  3.1187  0.9239  0.3945
  102MOL    C6542687   2.312   3.568   3.799  0.5479 -0.0854 -0.0687
  102MOL    C6642688   2.307   3.657   3.670  0.0423  0.2242 -0.7130
  102MOL    C6742689   2.248   3.580   3.551  0.2881 -0.0982  0.3893
  102MOL    O6842690   2.316   3.524   3.469  0.4347  0.4698 -0.0172
  102MOL    O6942691   2.115   3.589   3.530  0.3726  0.4479 -0.1734
  102MOL    C7042692   2.038   3.507   3.441  0.7431  0.6555 -0.2649
  102MOL    C7142693   1.940   3.601   3.374  1.2765 -0.2417 -0.4906
  102MOL    C7242694   1.833   3.532   3.286  0.5450 -0.3486 -0.2147
  102MOL    C7342695   1.742   3.620   3.210  0.7285 -0.4409  0.2729
  102MOL    H7442696   2.368   3.618   3.879  0.0470  1.5636 -0.7326
  102MOL    H7542697   2.215   3.543   3.843  0.1305  2.2937  0.4159
  102MOL    H7642698   2.410   3.679   3.640 -0.0870 -0.7326 -1.9076
  102MOL    H7742699   2.002   3.434   3.514  1.6570  0.6858  0.2337
  102MOL    H7842700   2.086   3.458   3.357 -0.5117  1.1459 -1.2731
  102MOL    H7942701   1.886   3.651   3.455  0.2569 -1.3683 -0.4504
  102MOL    H8042702   2.002   3.663   3.310  1.0974 -0.5768 -0.9916
  102MOL    H8142703   1.777   3.466   3.353  3.1368 -1.2896  1.1134
  102MOL    H8242704   1.866   3.455   3.217  0.3329 -1.0851  0.5011
  102MOL    H8342705   1.685   3.559   3.141  1.8678 -0.5885 -0.5430
  102MOL    H8442706   1.800   3.684   3.143 -0.3314 -1.4909 -1.6898
  102MOL    H8542707   1.687   3.682   3.281  1.3405 -0.9467  1.1920
  102MOL    C8642708   2.234   3.791   3.687 -0.5627 -0.2528 -0.2021
  102MOL    C8742709   2.291   3.879   3.802 -0.5276  0.3400  0.8111
  102MOL    C8842710   2.439   3.908   3.786  0.1182  0.3468  0.3105
  102MOL    O8942711   2.475   3.955   3.676 -0.6404  0.9988  0.7211
  102MOL    O9042712   2.509   3.887   3.895 -0.1849 -0.3588  0.0015
  102MOL    C9142713   2.648   3.917   3.896 -0.2313  0.4303 -0.0355
  102MOL    C9242714   2.688   4.056   3.938  0.3184  0.3887  0.1205
  102MOL    C9342715   2.649   4.160   3.833  0.2409 -0.6279  0.0843
  102MOL    C9442716   2.706   4.298   3.859  0.8284  0.3385 -0.2746
  102MOL    H9542717   2.128   3.773   3.706 -0.4038 -1.3547 -0.3553
  102MOL    H9642718   2.229   3.852   3.597  1.1618 -1.4201 -1.1276
  102MOL    H9742719   2.291   3.810   3.887 -2.3351 -0.8745 -0.1184
  102MOL    H9842720   2.699   3.891   3.803 -0.5133 -2.5866  0.6009
  102MOL    H9942721   2.696   3.852   3.969  4.1063  0.1652 -2.9135
  102MOL   H10042722   2.648   4.079   4.037  0.4886  0.4158  0.1835
  102MOL   H10142723   2.797   4.051   3.940  0.3091  0.3685  0.8902
  102MOL   H10242724   2.541   4.162   3.816  0.0827 -1.2053  0.9690
  102MOL   H10342725   2.670   4.115   3.736  0.7103 -0.8865  0.2995
  102MOL   H10442726   2.697   4.351   3.764  1.3667  0.6884 -0.1318
  102MOL   H10542727   2.812   4.278   3.874  0.0057 -2.6579  2.0962
  102MOL   H10642728   2.665   4.353   3.944  0.0404  0.2842 -0.6181
  102MOL   C10742729   2.204   3.990   3.856 -0.4774 -0.6903  0.7217
  102MOL   C10842730   2.180   4.107   3.764  0.2624 -0.0287 -0.2718
  102MOL   C10942731   2.079   4.075   3.652 -0.3668  0.0275  0.3001
  102MOL   O11042732   2.113   4.082   3.536 -0.8166  0.2111 -0.0971
  102MOL   O11142733   1.952   4.046   3.690 -0.4051  1.0379 -0.0875
  102MOL   C11242734   1.855   4.049   3.584 -0.5165 -0.2179 -0.0611
  102MOL   C11342735   1.716   4.022   3.645 -0.2126  0.0197  0.0080
  102MOL   C11442736   1.610   4.008   3.531  0.1272  0.0709  0.4531
  102MOL   C11542737   1.633   3.871   3.466 -0.0593  0.0212 -0.4345
  102MOL   H11642738   2.254   4.032   3.943  2.5581 -0.4742 -1.0495
  102MOL   H11742739   2.107   3.959   3.894 -0.9387 -2.3944 -1.7013
  102MOL   H11842740   2.273   4.119   3.708 -1.1823 -1.4386 -3.1071
  102MOL   H11942741   1.882   3.974   3.510  0.3459  0.9195 -0.9280
  102MOL   H12042742   1.857   4.148   3.537  0.2514  0.0516  0.5291
  102MOL   H12142743   1.721   3.929   3.702  1.9183  0.2570  0.2591
  102MOL   H12242744   1.692   4.090   3.726 -0.5017  1.4513 -1.2740
  102MOL   H12342745   1.633   4.080   3.453  0.1466 -1.6720 -1.1822
  102MOL   H12442746   1.507   4.020   3.566  0.7815  2.1289  1.7578
  102MOL   H12542747   1.735   3.851   3.432 -0.3936  0.3805 -1.6605
  102MOL   H12642748   1.562   3.859   3.384 -1.4867 -1.3074  0.9748
  102MOL   H12742749   1.616   3.786   3.532 -1.4899  0.3457 -0.3717
  102MOL   C12842750   2.139   4.226   3.849 -0.2785  0.6139 -0.1166
  102MOL   C12942751   2.257   4.318   3.897 -0.7885  0.3254  0.0338
  102MOL   C13042752   2.324   4.387   3.778 -0.3139 -0.2164 -0.2101
  102MOL   O13142753   2.440   4.430   3.789 -0.2319 -0.4080 -0.0482
  102MOL   O13242754   2.241   4.403   3.669 -0.0195 -0.3133  0.3522
  102MOL   C13342755   2.287   4.457   3.541 -0.1829  0.0386 -0.4677
  102MOL   C13442756   2.178   4.554   3.490 -0.6670  0.7945 -0.3859
  102MOL   C13542757   2.043   4.480   3.462 -0.6458 -0.0076  0.1891
  102MOL   C13642758   1.959   4.562   3.362 -0.2752  0.2519 -0.4834
  102MOL   H13742759   2.078   4.197   3.934 -0.3958 -1.1397 -0.7836
  102MOL   H13842760   2.064   4.283   3.794 -0.7121  1.1426  0.9912
  102MOL   H13942761   2.325   4.245   3.939 -1.6726  0.2501  1.3492
  102MOL   H14042762   2.323   4.373   3.482  3.5671  1.4146 -0.2594
  102MOL   H14142763   2.376   4.517   3.556 -0.6506  0.6348 -0.0663
  102MOL   H14242764   2.162   4.627   3.569 -0.9446 -0.9852  1.2364
  102MOL   H14342765   2.223   4.610   3.408  1.1876  1.9004  1.3105
  102MOL   H14442766   1.990   4.458   3.554 -3.1577  0.6070 -1.0543
  102MOL   H14542767   2.066   4.381   3.423 -1.9929 -0.6092  0.8957
  102MOL   H14642768   1.863   4.514   3.346 -0.1827 -1.4649  3.5894
  102MOL   H14742769   2.012   4.592   3.272  1.1511  0.2572  0.3505
  102MOL   H14842770   1.930   4.659   3.403  1.3897  0.5827 -0.0554
  102MOL   C14942771   2.223   4.417   4.008 -0.3934  0.2569 -0.2123
  102MOL   C15042772   2.273   4.386   4.153  1.0798  0.3848 -0.1222
  102MOL   C15142773   2.423   4.388   4.160  0.0012  0.3023  0.1623
  102MOL   O15242774   2.499   4.291   4.161  0.0318  0.2060  0.1933
  102MOL   O15342775   2.470   4.516   4.160  0.3599 -0.1532  0.2149
  102MOL   C15442776   2.613   4.550   4.180  0.1478  0.2201  0.2687
  102MOL   C15542777   2.646   4.577   4.328  0.6003  0.4368 -0.1738
  102MOL   C15642778   2.569   4.697   4.392 -0.4400 -0.5850 -0.2443
  102MOL   C15742779   2.567   4.822   4.303 -0.6897  0.5964 -0.5383
  102MOL   H15842780   2.118   4.443   3.998 -0.1276  1.6310  0.4129
  102MOL   H15942781   2.268   4.514   3.985  0.2153 -0.3004 -1.4115
  102MOL   H16042782   2.240   4.283   4.168  0.6164  0.4645 -0.5913
  102MOL   H16142783   2.638   4.628   4.107  0.1246  1.5808  1.6876
  102MOL   H16242784   2.659   4.458   4.145  2.3588  0.9378  1.2411
  102MOL   H16342785   2.618   4.483   4.377 -2.3000  0.3650 -1.8487
  102MOL   H16442786   2.753   4.581   4.349  0.5053  1.2230  0.1933
  102MOL   H16542787   2.615   4.719   4.488 -0.4489 -1.0224 -0.1361
  102MOL   H16642788   2.464   4.671   4.401 -0.7865  0.7284 -0.4967
  102MOL   H16742789   2.524   4.803   4.204  0.9828  0.2908 -1.2223
  102MOL   H16842790   2.670   4.840   4.274 -0.7799  0.9860 -0.6169
  102MOL   H16942791   2.525   4.913   4.347  0.2934  0.6356  0.3144
  102MOL   C17042792   2.209   4.489   4.248 -0.2742  0.0069 -0.4974
  102MOL   C17142793   2.109   4.427   4.349 -0.3010 -0.4422  0.0898
  102MOL   C17242794   2.173   4.316   4.438 -1.3900 -0.0658  0.1552
  102MOL   O17342795   2.116   4.206   4.453 -0.3279  0.1435  0.3699
  102MOL   O17442796   2.278   4.351   4.502 -0.4717  0.2806  0.7603
  102MOL   C17542797   2.339   4.265   4.604 -0.8221 -0.4076  0.0930
  102MOL   C17642798   2.453   4.341   4.667 -0.1162  0.5134 -0.2562
  102MOL   C17742799   2.403   4.452   4.750  0.0699  0.1315 -0.7858
  102MOL   C17842800   2.524   4.536   4.807  0.1724 -0.7351  0.5078
  102MOL   H17942801   2.159   4.566   4.190 -1.2977  1.5353  2.3213
  102MOL   H18042802   2.283   4.540   4.309  1.4718 -0.3025 -2.2827
  102MOL   H18142803   2.034   4.376   4.289  0.2102  0.3117 -1.2022
  102MOL   H18242804   2.385   4.177   4.559  0.1210 -0.5263  1.2705
  102MOL   H18342805   2.265   4.232   4.676 -0.5176  0.8379  0.9942
  102MOL   H18442806   2.521   4.271   4.716 -0.9477  0.3804  0.7121
  102MOL   H18542807   2.514   4.392   4.592  2.0616  0.5145  1.4786
  102MOL   H18642808   2.352   4.415   4.839  0.3509  0.8333 -0.3214
  102MOL   H18742809   2.330   4.518   4.704  0.5242  2.4131  1.6174
  102MOL   H18842810   2.611   4.485   4.847  0.2960 -3.4811 -2.9696
  102MOL   H18942811   2.488   4.617   4.871 -1.4551 -2.0944  1.3558
  102MOL   H19042812   2.550   4.595   4.719  2.3289 -2.5484 -0.0997
  102MOL   C19142813   2.023   4.532   4.419 -0.2836  0.0556  0.1118
  102MOL   C19242814   1.883   4.489   4.472 -0.5715 -0.5564 -0.3312
  102MOL   C19342815   1.890   4.447   4.621 -0.2265 -0.0095 -0.1133
  102MOL   O19442816   1.988   4.472   4.695 -0.5284  0.0042 -0.3879
  102MOL   O19542817   1.783   4.375   4.660  0.1061  0.1354 -0.2314
  102MOL   C19642818   1.770   4.347   4.796  0.4658 -0.4469  0.2034
  102MOL   C19742819   1.706   4.447   4.889  0.1034 -0.1502 -0.4804
  102MOL   C19842820   1.706   4.421   5.039 -0.4803 -0.1376  0.1860
  102MOL   C19942821   1.617   4.301   5.083  0.1664  0.1083  0.2243
  102MOL   H20042822   2.011   4.615   4.350 -0.1675 -0.5591 -0.6447
  102MOL   H20142823   2.083   4.575   4.499  0.1105 -0.8561  0.3147
  102MOL   H20242824   1.845   4.401   4.420 -2.9207 -0.9665  2.0232
  102MOL   H20342825   1.873   4.331   4.828  0.7396 -1.9772 -1.3314
  102MOL   H20442826   1.715   4.253   4.795 -2.7786  1.3647  2.3353
  102MOL   H20542827   1.757   4.542   4.873 -0.5148  0.3238  0.3402
  102MOL   H20642828   1.606   4.470   4.853  0.1198  0.7777  0.0638
  102MOL   H20742829   1.669   4.506   5.096  0.1957  0.2434  0.0742
  102MOL   H20842830   1.812   4.405   5.063 -0.5688 -0.3954  0.4082
  102MOL   H20942831   1.616   4.217   5.013  1.3651  0.2081  0.0694
  102MOL   H21042832   1.514   4.328   5.102  0.1547 -0.9780  1.8544
  102MOL   H21142833   1.653   4.265   5.180  0.9230 -0.6651 -0.3280
  102MOL   C21242834   1.771   4.592   4.453 -0.3575 -0.1267 -0.6272
  102MOL   C21342835   1.720   4.622   4.305  0.0170  0.2429  0.0558
  102MOL   C21442836   1.609   4.524   4.259 -0.1114  0.7620  0.1549
  102MOL   O21542837   1.607   4.461   4.155  0.2788 -0.0544  0.1012
  102MOL   O21642838   1.512   4.522   4.355  0.5865 -0.4748  0.7022
  102MOL   C21742839   1.394   4.442   4.338  0.3138 -0.5424  0.1221
  102MOL   C21842840   1.314   4.467   4.467  0.4133 -0.2082  0.1432
  102MOL   C21942841   1.179   4.394   4.476  0.2055  0.3677 -1.0685
  102MOL   C22042842   1.097   4.418   4.598  0.3773 -0.4635  0.0441
  102MOL   H22142843   1.809   4.686   4.493 -2.9360  0.8221 -0.3252
  102MOL   H22242844   1.688   4.569   4.520  0.0091  0.9958  0.2290
  102MOL   H22342845   1.802   4.607   4.234 -1.9065  0.1219 -2.1971
  102MOL   H22442846   1.413   4.335   4.334 -0.8174 -0.7643  0.6045
  102MOL   H22542847   1.336   4.479   4.253  2.5294  1.9556 -0.3852
  102MOL   H22642848   1.370   4.436   4.556 -0.5517  0.8970  1.1442
  102MOL   H22742849   1.294   4.573   4.481  2.6877  0.5583 -1.9930
  102MOL   H22842850   1.190   4.285   4.472  1.6159  0.3737  1.5802
  102MOL   H22942851   1.122   4.435   4.392 -1.6717  0.7284  0.3412
  102MOL   H23042852   1.044   4.514   4.602  0.9812 -0.1083 -0.4307
  102MOL   H23142853   1.146   4.398   4.693  1.9817 -2.5693 -1.1815
  102MOL   H23242854   1.006   4.357   4.598  0.9790 -1.3691  1.0108
  102MOL   C23342855   1.651   4.761   4.283  0.2590 -0.0396  0.3209
  102MOL   C23442856   1.756   4.877   4.260 -0.0566 -0.3491 -0.2295
  102MOL   C23542857   1.838   4.861   4.129  0.0917  0.4552 -0.0597
  102MOL   O23642858   1.954   4.820   4.126 -0.1750  0.5410 -0.1765
  102MOL   O23742859   1.758   4.863   4.020  0.0616  0.0916  0.6755
  102MOL   C23842860   1.813   4.869   3.887  0.3786 -0.2046 -0.0078
  102MOL   C23942861   1.851   4.727   3.828 -0.0233 -0.0514 -0.4273
  102MOL   C24042862   1.743   4.619   3.855 -0.2171  0.3496 -0.4608
  102MOL   C24142863   1.792   4.474   3.846  0.3319 -0.3533  0.6572
  102MOL   H24242864   1.589   4.790   4.368 -1.9105 -1.2549 -0.8177
  102MOL   H24342865   1.583   4.751   4.199  0.4211 -1.0883  0.3131
  102MOL   H24442866   1.833   4.870   4.337  0.9002 -0.3356 -1.1744
  102MOL   H24542867   1.896   4.940   3.883 -1.2338  1.8906  2.3142
  102MOL   H24642868   1.740   4.904   3.814 -1.2935 -1.5393  1.0039
  102MOL   H24742869   1.876   4.737   3.722  2.9671  1.7122  0.3763
  102MOL   H24842870   1.944   4.702   3.878 -0.9686  1.5992  2.2564
  102MOL   H24942871   1.656   4.639   3.792  0.3710  0.7430 -1.1457
  102MOL   H25042872   1.713   4.631   3.959 -0.3477 -0.1869 -0.4327
  102MOL   H25142873   1.713   4.404   3.873 -0.8149  0.4793 -0.3975
  102MOL   H25242874   1.879   4.439   3.899  0.6976 -0.1631  0.1879
  102MOL   H25342875   1.819   4.456   3.741  0.2509  1.0285  0.3875
  102MOL   C25442876   1.688   5.017   4.260  0.3295  0.5333 -0.4290
  102MOL   C25542877   1.623   5.057   4.394  0.0439  1.1535  0.3494
  102MOL   C25642878   1.726   5.097   4.502  0.1897  0.2049  0.8118
  102MOL   O25742879   1.736   5.215   4.538  0.1203  0.0950  0.2144
  102MOL   O25842880   1.797   4.988   4.541 -0.7087 -0.1460  0.9362
  102MOL   C25942881   1.893   5.007   4.640  0.1467  0.2513 -0.0393
  102MOL   C26042882   1.984   4.884   4.658  0.1789 -0.3979 -0.0025
  102MOL   C26142883   2.086   4.903   4.773  0.4370  0.3349  0.4495
  102MOL   C26242884   2.168   4.782   4.806 -0.1118 -0.1512 -0.0240
  102MOL   H26342885   1.604   5.007   4.191 -2.3172  0.6630  2.6949
  102MOL   H26442886   1.744   5.104   4.224 -0.9345  0.3586 -2.9356
  102MOL   H26542887   1.564   4.976   4.435  0.0791  1.5801  1.2465
  102MOL   H26642888   1.851   5.039   4.735  1.5065 -1.3431  1.1260
  102MOL   H26742889   1.956   5.092   4.615  0.0883  0.3527  0.1653
  102MOL   H26842890   1.909   4.808   4.683 -1.5851  0.5861 -2.0719
  102MOL   H26942891   2.042   4.859   4.569  1.6988  2.9153 -0.0172
  102MOL   H27042892   2.033   4.949   4.857 -0.6654  1.0283 -0.6108
  102MOL   H27142893   2.160   4.971   4.732 -0.7149  2.0562  1.1845
  102MOL   H27242894   2.229   4.802   4.894  1.9813  0.8726 -1.6686
  102MOL   H27342895   2.237   4.764   4.723 -0.9161 -1.3949 -0.4438
  102MOL   H27442896   2.109   4.693   4.829 -1.6294  0.4458 -1.5256
  102MOL   C27542897   1.523   5.173   4.378 -0.6932 -0.0667  0.4632
  102MOL   C27642898   1.385   5.144   4.306  0.2017  0.8218  0.6937
  102MOL   C27742899   1.309   5.026   4.365 -0.5048  0.0002  0.8458
  102MOL   O27842900   1.302   4.919   4.302  0.0155  0.2168  0.3155
  102MOL   O27942901   1.267   5.044   4.496  0.0383  0.1990 -0.3187
  102MOL   C28042902   1.205   4.933   4.562 -0.1608  0.2204 -0.1994
  102MOL   C28142903   1.307   4.826   4.591  0.2210  0.7114 -0.6031
  102MOL   C28242904   1.426   4.873   4.683 -0.3011 -0.1056  0.3560
  102MOL   C28342905   1.532   4.764   4.702  0.0655  0.0586  0.1506
  102MOL   H28442906   1.581   5.251   4.327 -0.4352  0.5143  1.6367
  102MOL   H28542907   1.490   5.222   4.470 -0.8028  0.8278 -0.0432
  102MOL   H28642908   1.397   5.116   4.201 -0.5412 -0.4078  0.9335
  102MOL   H28742909   1.120   4.894   4.506  1.0766 -1.4564 -0.9509
  102MOL   H28842910   1.170   4.962   4.661 -0.8074  1.3244 -0.7357
  102MOL   H28942911   1.253   4.745   4.640 -2.7230  1.7899 -1.9631
  102MOL   H29042912   1.346   4.788   4.497  3.8898  0.7400  0.8142
  102MOL   H29142913   1.375   4.902   4.775  0.5975  0.1147  0.7954
  102MOL   H29242914   1.471   4.964   4.644 -0.0618 -1.5039 -2.7287
  102MOL   H29342915   1.579   4.751   4.605  0.4734  0.1719  0.3315
  102MOL   H29442916   1.497   4.665   4.731  1.8257  0.0365  2.4153
  102MOL   H29542917   1.614   4.800   4.765  1.4051 -4.0253  0.9056
  102MOL   C29642918   1.300   5.283   4.309  0.1669  0.1221  0.1954
  102MOL   C29742919   1.165   5.279   4.234 -1.0203  0.5134  0.0376
  102MOL   C29842920   1.079   5.404   4.259 -0.0952  0.1199 -0.3029
  102MOL   O29942921   0.975   5.394   4.329 -0.5021  0.4925  0.0308
  102MOL   O30042922   1.126   5.521   4.217  0.1237  0.0423 -0.2023
  102MOL   C30142923   1.050   5.639   4.236  0.2390  0.0290 -0.1687
  102MOL   C30242924   1.136   5.760   4.194  0.2088  0.8762 -0.7458
  102MOL   C30342925   1.165   5.750   4.043 -0.2187  0.9846 -0.1256
  102MOL   C30442926   1.266   5.863   4.003 -0.1318  0.4661 -0.3233
  102MOL   H30542927   1.353   5.363   4.257 -3.8226  1.3972 -2.0961
  102MOL   H30642928   1.293   5.315   4.412  0.7422 -1.0283  0.5959
  102MOL   H30742929   1.105   5.197   4.274  0.8989  0.5550  3.1455
  102MOL   H30842930   1.048   5.648   4.345  2.3434 -0.7406 -0.0363
  102MOL   H30942931   0.952   5.642   4.189  0.6357 -0.5114 -1.0473
  102MOL   H31042932   1.084   5.855   4.203  1.0766  1.2200  0.7424
  102MOL   H31142933   1.226   5.761   4.256 -0.3938 -1.2263  0.2135
  102MOL   H31242934   1.076   5.741   3.982 -0.7354 -0.1940  0.7894
  102MOL   H31342935   1.216   5.654   4.033 -1.7004 -0.0205  1.6942
  102MOL   H31442936   1.299   5.857   3.899 -1.4910  1.2801 -0.8093
  102MOL   H31542937   1.349   5.862   4.074  2.0268 -0.0720 -2.7636
  102MOL   H31642938   1.205   5.953   4.009 -0.0637  0.7272 -2.8129
  102MOL   C31742939   1.183   5.259   4.072 -0.2474  0.8138  0.2454
  102MOL   C31842940   1.069   5.182   3.991  0.4029  0.3105  0.2231
  102MOL   C31942941   0.937   5.257   3.983 -0.2877  0.3708  0.3625
  102MOL   O32042942   0.902   5.318   3.883  0.0463 -1.0208  0.0567
  102MOL   O32142943   0.860   5.234   4.091 -0.4173 -0.3354  0.1749
  102MOL   C32242944   0.727   5.281   4.110 -0.6989 -0.0286 -0.9301
  102MOL   C32342945   0.619   5.189   4.065 -0.0303  0.7817 -0.2717
  102MOL   C32442946   0.626   5.060   4.143  0.8462  0.8284  0.3284
  102MOL   C32542947   0.528   4.950   4.107  0.6530 -0.3028 -0.2296
  102MOL   H32642948   1.268   5.192   4.059 -1.4715 -0.9121  0.8126
  102MOL   H32742949   1.197   5.354   4.021  0.1356  0.9992  0.6940
  102MOL   H32842950   1.052   5.093   4.051 -2.6339  0.7584  0.0786
  102MOL   H32942951   0.715   5.372   4.051  0.4029 -0.3143 -1.6043
  102MOL   H33042952   0.716   5.308   4.215  5.5240  0.7623 -0.3072
  102MOL   H33142953   0.520   5.230   4.082 -0.0632  0.6710 -0.1968
  102MOL   H33242954   0.624   5.177   3.957 -0.9901 -0.2776 -0.2017
  102MOL   H33342955   0.629   5.076   4.251  1.3524 -1.5678  0.6873
  102MOL   H33442956   0.721   5.007   4.135  0.0159 -0.5957 -0.3458
  102MOL   H33542957   0.535   4.911   4.006 -0.4113 -0.6510 -0.1686
  102MOL   H33642958   0.431   4.997   4.116  0.2677 -1.1017 -0.2144
  102MOL   H33742959   0.525   4.876   4.187  0.8238 -0.2952 -0.2164
  102MOL   C33842960   1.120   5.147   3.844  0.4673 -0.2052 -0.1833
  102MOL   C33942961   1.114   4.998   3.823 -0.2923 -0.1921 -0.0785
  102MOL   C34042962   0.972   4.938   3.819 -1.1227 -0.7909 -0.0061
  102MOL   O34142963   0.955   4.825   3.854 -0.1864  0.0771 -0.0142
  102MOL   O34242964   0.889   5.012   3.752  0.0509 -0.3103 -0.1296
  102MOL   C34342965   0.752   4.972   3.749  0.9365  0.1341  0.3482
  102MOL   C34442966   0.680   5.088   3.685  0.1722  0.4051  0.0137
  102MOL   C34542967   0.525   5.070   3.678  0.4735 -0.5040  0.7476
  102MOL   C34642968   0.455   5.180   3.596  0.2044 -0.2940 -0.4197
  102MOL   H34742969   1.225   5.177   3.843  0.9242 -1.7131  0.6705
  102MOL   H34842970   1.059   5.197   3.768 -0.9797 -2.0021 -0.2539
  102MOL   H34942971   1.163   4.952   3.909  2.2420 -1.0451 -1.9191
  102MOL   H35042972   0.705   4.961   3.847 -0.5715  3.5966  0.1076
  102MOL   H35142973   0.730   4.883   3.690  0.5702  0.5124 -0.0914
  102MOL   H35242974   0.704   5.182   3.733 -2.4773  0.4442  1.3338
  102MOL   H35342975   0.718   5.094   3.583  1.0561  2.8331  0.4582
  102MOL   H35442976   0.486   5.075   3.780  0.3149 -1.1276  0.7215
  102MOL   H35542977   0.490   4.975   3.637  1.3954 -0.8901  0.8415
  102MOL   H35642978   0.491   5.280   3.621  1.6843 -0.6348 -1.1908
  102MOL   H35742979   0.346   5.185   3.608 -0.0964 -1.1916 -2.6691
  102MOL   H35842980   0.472   5.178   3.489  0.2432 -0.0500 -0.4177
  102MOL   C35942981   1.184   4.969   3.693  0.0719  0.7540  0.6301
  102MOL   C36042982   1.338   4.982   3.693  0.1474 -0.0837 -0.1521
  102MOL   C36142983   1.412   4.903   3.806  0.5603 -0.0112  0.8409
  102MOL   O36242984   1.494   4.956   3.877  0.2498  0.6357  0.3672
  102MOL   O36342985   1.382   4.767   3.808 -0.2367  0.3143  0.7560
  102MOL   C36442986   1.427   4.690   3.907 -0.0287 -0.3236  0.3310
  102MOL   C36542987   1.315   4.661   4.013 -0.1425  0.6431  0.2716
  102MOL   C36642988   1.207   4.563   3.974 -0.1218 -0.6808 -0.2237
  102MOL   C36742989   1.105   4.537   4.081  0.1262 -0.5110 -0.2654
  102MOL   H36842990   1.125   5.006   3.609  2.3216  0.8698 -0.9543
  102MOL   H36942991   1.176   4.860   3.688 -0.5380  0.7848  0.9689
  102MOL   H37042992   1.365   5.087   3.704  0.4820 -0.4013  2.1926
  102MOL   H37142993   1.510   4.743   3.953 -0.2006  2.5621 -2.4985
  102MOL   H37242994   1.477   4.597   3.879  0.6331 -0.0211  0.4875
  102MOL   H37342995   1.367   4.611   4.095 -1.0543 -1.0725 -0.1758
  102MOL   H37442996   1.273   4.755   4.050 -1.2694 -0.2324  1.2209
  102MOL   H37542997   1.256   4.468   3.952  0.1032 -0.9232  1.3223
  102MOL   H37642998   1.168   4.608   3.882  1.5654 -1.5497 -1.3869
  102MOL   H37742999   1.034   4.462   4.047 -1.6704  1.1298 -0.1916
  102MOL   H37843000   1.040   4.624   4.091  0.7988 -0.2750  2.5215
  102MOL   H37943001   1.144   4.517   4.181 -1.0364 -0.3380  0.2321
  102MOL   C38043002   1.393   4.935   3.554 -0.0393 -1.0353 -0.1579
  102MOL   C38143003   1.537   4.965   3.519  0.6736 -0.0578 -0.5236
  102MOL   C38243004   1.589   4.870   3.404  0.1751  1.2586 -0.7745
  102MOL   O38343005   1.691   4.803   3.418 -0.4334  0.4124  0.3102
  102MOL   O38443006   1.494   4.875   3.304 -0.7082 -0.2394  0.2473
  102MOL   C38543007   1.525   4.792   3.194 -0.5311 -0.8702  0.7320
  102MOL   C38643008   1.443   4.666   3.189  0.0558  0.2644 -0.6439
  102MOL   C38743009   1.295   4.714   3.177 -0.2343 -0.1759 -0.0776
  102MOL   C38843010   1.214   4.591   3.136  0.3129  0.0154  0.2585
  102MOL   H38943011   1.327   4.983   3.481 -0.4796  0.3869  1.1376
  102MOL   H39043012   1.375   4.829   3.536  3.1457 -2.3591  3.7229
  102MOL   H39143013   1.600   4.946   3.606  3.0570 -0.9326 -2.3756
  102MOL   H39243014   1.631   4.768   3.186 -0.0113  1.3681  0.7578
  102MOL   H39343015   1.497   4.854   3.108  1.9025  0.4924  0.8777
  102MOL   H39443016   1.480   4.599   3.112 -1.3309 -2.1854  0.7611
  102MOL   H39543017   1.453   4.625   3.289  1.6582 -0.5196 -1.1191
  102MOL   H39643018   1.278   4.790   3.101 -0.5361 -0.1825 -0.0184
  102MOL   H39743019   1.253   4.749   3.271 -1.0278 -1.5122  0.0841
  102MOL   H39843020   1.236   4.560   3.034  0.3327 -0.5876  0.4415
  102MOL   H39943021   1.106   4.602   3.141  0.3868  0.2978  1.5227
  102MOL   H40043022   1.228   4.504   3.201 -0.6567  0.3168  0.8848
  102MOL   C40143023   1.544   5.115   3.482 -1.1088 -0.0496 -0.1163
  102MOL   C40243024   1.688   5.180   3.503 -0.2949  0.6737  0.2671
  102MOL   C40343025   1.706   5.327   3.456  0.5139 -0.0712 -0.6316
  102MOL   O40443026   1.608   5.393   3.423  0.2733 -0.2650  0.0863
  102MOL   O40543027   1.831   5.367   3.457 -0.1031 -0.4651 -0.2815
  102MOL   C40643028   1.861   5.503   3.419  0.1623 -0.4919 -1.0630
  102MOL   C40743029   1.876   5.532   3.273 -0.2571  1.2114 -0.3134
  102MOL   C40843030   1.746   5.522   3.181 -0.1639  0.2201  0.1417
  102MOL   C40943031   1.768   5.572   3.039 -0.1798 -0.4357 -0.1298
  102MOL   H41043032   1.494   5.165   3.564  0.2987  2.8440 -0.9386
  102MOL   H41143033   1.490   5.158   3.397  1.0655  1.8824 -0.5776
  102MOL   H41243034   1.768   5.127   3.451 -0.4829  0.4382  0.2199
  102MOL   H41343035   1.952   5.524   3.476 -1.1406  0.3827  0.7400
  102MOL   H41443036   1.792   5.576   3.462  1.7800 -0.9695  2.5369
  102MOL   H41543037   1.919   5.632   3.273  0.1714  1.0324 -0.9245
  102MOL   H41643038   1.950   5.471   3.221 -3.3683 -1.3599 -1.9062
  102MOL   H41743039   1.662   5.574   3.226 -1.1522  0.6201 -2.1193
  102MOL   H41843040   1.705   5.422   3.178  0.8525 -0.2156  0.4303
  102MOL   H41943041   1.677   5.584   2.979  0.3959  0.3902 -0.8496
  102MOL   H42043042   1.843   5.512   2.989 -1.3084 -0.4582 -1.8707
  102MOL   H42143043   1.816   5.670   3.031  0.6303 -0.8515 -0.3966
  102MOL   H42243044   1.710   5.174   3.610 -3.5524  1.3248  1.0148
  103MOL     C143045   7.847   6.534   7.588 -0.6539  0.3927 -0.3883
  103MOL     C243046   0.132   6.585   7.637  0.0830  0.5129  0.1760
  103MOL     C343047   0.235   6.474   7.624 -0.6926  0.0791 -0.0243
  103MOL     O443048   0.296   6.453   7.525  0.4258  0.1215  0.1960
  103MOL     O543049   0.246   6.405   7.737  0.2246 -0.3599 -0.5277
  103MOL     C643050   0.336   6.303   7.738 -0.3559 -0.0925 -0.5201
  103MOL     C743051   0.312   6.223   0.017  0.2922 -1.2101  0.0696
  103MOL     C843052   0.328   6.314   0.141 -0.0210 -0.0838  0.0142
  103MOL     C943053   0.304   6.222   0.270 -0.4723 -0.4845 -0.4877
  103MOL    H1043054   7.821   6.438   7.632 -1.6447  0.3970 -0.9667
  103MOL    H1143055   7.776   6.607   7.627 -0.2799  0.5925 -0.0627
  103MOL    H1243056   0.130   6.615   7.742 -0.5286  1.1305 -0.0041
  103MOL    H1343057   0.437   6.344   7.738 -0.0170 -0.9253 -1.4485
  103MOL    H1443058   0.325   6.228   7.661  1.4708 -0.3213 -0.5865
  103MOL    H1543059   0.214   6.177   0.031 -0.1436 -0.3740 -0.2309
  103MOL    H1643060   0.384   6.141   0.026 -0.1401 -1.4231  1.6382
  103MOL    H1743061   0.255   6.395   0.151  0.7707  0.6608 -0.1429
  103MOL    H1843062   0.423   6.368   0.136 -0.4100  0.5487 -0.7224
  103MOL    H1943063   0.388   6.156   0.289  1.0270  1.0276 -1.7064
  103MOL    H2043064   0.211   6.165   0.259 -0.2270 -1.1776  1.0074
  103MOL    H2143065   0.298   6.284   0.359 -1.5162  2.5969 -2.6057
  103MOL    H2243066   0.003   6.530   7.480 -0.1673 -1.9423 -0.2812
  103MOL    C2343067   0.164   6.714   7.555  0.6084  0.9093 -0.0158
  103MOL    C2443068   0.310   6.768   7.567 -0.0325  0.1773  0.0847
  103MOL    C2543069   0.346   6.857   7.454 -0.1985  0.1026  0.5013
  103MOL    O2643070   0.454   6.859   7.392  0.5537 -0.1900  0.3672
  103MOL    O2743071   0.253   6.940   7.431  0.1527 -0.9831  0.4550
  103MOL    C2843072   0.265   7.032   7.325 -0.0905 -0.7018 -0.1048
  103MOL    C2943073   0.171   7.148   7.353 -0.1620 -0.3168 -0.1269
  103MOL    C3043074   0.194   7.231   7.489  0.2363  0.0211 -0.1226
  103MOL    C3143075   0.091   7.349   7.509 -0.0653  0.4060 -0.4727
  103MOL    H3243076   0.092   6.789   7.587 -1.7630 -1.5735  0.7673
  103MOL    H3343077   0.158   6.700   7.447 -0.6995  2.2228 -0.1292
  103MOL    H3443078   0.376   6.684   7.548  1.5998  1.5180 -0.3266
  103MOL    H3543079   0.247   6.970   7.238 -0.4865  1.4410 -1.5858
  103MOL    H3643080   0.366   7.072   7.329 -0.7283  0.7522  2.7729
  103MOL    H3743081   0.181   7.212   7.265 -2.2433  0.5287  0.2146
  103MOL    H3843082   0.069   7.113   7.368 -0.4071  1.3725  2.6240
  103MOL    H3943083   0.287   7.288   7.480 -0.3712  0.5028 -4.0983
  103MOL    H4043084   0.187   7.162   7.573 -1.1634  1.4421  0.9540
  103MOL    H4143085   0.099   7.388   7.611  2.9791 -0.9846 -0.1430
  103MOL    H4243086   7.837   7.328   7.498  0.2626 -1.8436  0.4333
  103MOL    H4343087   0.114   7.431   7.441 -0.5344  1.9460  1.1529
  103MOL    C4443088   0.338   6.846   7.704  0.3711 -0.7378 -0.5530
  103MOL    C4543089   0.371   6.759   7.831  0.7669  0.8611  0.1952
  103MOL    C4643090   0.507   6.693   7.832  0.2888 -0.4037  0.1698
  103MOL    O4743091   0.515   6.570   7.851 -0.6660  0.0213  0.5788
  103MOL    O4843092   0.613   6.774   7.816  0.7433 -0.2752 -0.1749
  103MOL    C4943093   0.748   6.724   7.828 -0.5607 -0.2408 -0.1245
  103MOL    C5043094   0.839   6.846   7.846 -0.0720  0.4138  0.5152
  103MOL    C5143095   0.982   6.805   7.853 -0.0954  0.7326 -0.3466
  103MOL    C5243096   1.084   6.921   0.008 -0.3389  1.6813 -0.4473
  103MOL    H5343097   0.241   6.891   7.725  0.9099  0.7049 -1.1452
  103MOL    H5443098   0.420   6.916   7.692 -0.1883  0.0773  0.3061
  103MOL    H5543099   0.304   6.673   7.828  2.2453 -0.2876 -1.9797
  103MOL    H5643100   0.765   6.665   7.738 -1.7728  0.3967 -0.7792
  103MOL    H5743101   0.763   6.657   0.059  2.4037 -1.8551 -1.8269
  103MOL    H5843102   0.832   6.901   7.752 -1.6176 -0.2945  0.1991
  103MOL    H5943103   0.807   6.908   0.077 -2.8029  2.5075 -1.9524
  103MOL    H6043104   1.005   6.747   7.763  0.2812 -0.8895  0.7575
  103MOL    H6143105   0.988   6.729   0.078 -0.7638  0.4316 -0.5908
  103MOL    H6243106   1.187   6.896   7.840 -0.5551  1.6498 -1.5009
  103MOL    H6343107   1.078   6.953   0.112  2.9198 -0.6333  0.5110
  103MOL    H6443108   1.067   6.998   7.786  1.8541  0.6903 -1.9946
  103MOL    C6543109   0.334   6.822   0.115  0.8025 -0.5286 -0.0688
  103MOL    C6643110   0.320   6.724   0.234 -0.1322  0.2657 -0.2168
  103MOL    C6743111   0.452   6.690   0.302 -0.3111 -0.1366 -0.5786
  103MOL    O6843112   0.542   6.773   0.322 -0.6635 -0.4223  0.5434
  103MOL    O6943113   0.454   6.559   0.343 -0.4576  0.3644  0.3589
  103MOL    C7043114   0.568   6.507   0.411  0.1406 -0.1454  0.1090
  103MOL    C7143115   0.558   6.485   0.559 -0.1845  0.1680 -0.4291
  103MOL    C7243116   0.696   6.442   0.612  0.6911 -0.1599  0.6743
  103MOL    C7343117   0.685   6.374   0.746  0.4166 -0.0061  0.0613
  103MOL    H7443118   0.238   6.872   0.106  2.7368  3.5619  1.0481
  103MOL    H7543119   0.398   6.904   0.147 -1.3550  0.0007  3.2267
  103MOL    H7643120   0.266   6.633   0.203 -0.2993  0.3916 -0.2983
  103MOL    H7743121   0.657   6.565   0.389  0.7413 -1.4578 -1.0383
  103MOL    H7843122   0.578   6.410   0.362  1.1490 -0.5989  1.2020
  103MOL    H7943123   0.509   6.574   0.599 -0.6332  0.1379 -0.9161
  103MOL    H8043124   0.493   6.398   0.565  0.2730 -0.0756  1.3273
  103MOL    H8143125   0.749   6.536   0.626  0.6540 -0.0054 -0.1766
  103MOL    H8243126   0.742   6.378   0.537 -1.7259  0.0481 -1.0622
  103MOL    H8343127   0.766   6.302   0.761 -0.0513 -0.5830 -0.1498
  103MOL    H8443128   0.608   6.297   0.744 -1.0805  1.4936 -1.2305
  103MOL    H8543129   0.678   6.439   0.833  0.3413  0.6593 -0.4450
  103MOL    C8643130   0.218   6.790   0.334  0.5716 -0.2668  0.1860
  103MOL    C8743131   0.183   6.710   0.466 -0.0178  0.3454 -0.0036
  103MOL    C8843132   0.109   6.800   0.562  0.2920  0.4233  0.3946
  103MOL    O8943133   0.068   6.912   0.531  0.0713 -0.5760 -0.4648
  103MOL    O9043134   0.104   6.763   0.692  0.0664  0.0807  0.2728
  103MOL    C9143135   0.030   6.836   0.781  0.5247  0.1455  0.5157
  103MOL    C9243136   7.776   6.730   0.831 -0.0316 -0.5412  0.2068
  103MOL    C9343137   7.698   6.761   0.957  0.1424  0.2888 -0.4296
  103MOL    C9443138   7.576   6.677   0.959 -0.0192 -0.3056  0.3308
  103MOL    H9543139   0.128   6.817   0.279  0.4051  1.6786  1.3495
  103MOL    H9643140   0.261   6.884   0.369  0.5757 -0.7825  1.6078
  103MOL    H9743141   0.277   6.694   0.520 -0.1978  2.3443  0.9729
  103MOL    H9843142   7.825   6.914   0.731  1.1721 -0.5607 -1.4133
  103MOL    H9943143   0.102   6.864   0.857  1.2305  0.3904 -0.2389
  103MOL   H10043144   7.703   6.703   0.755 -0.4603 -0.6150  0.6444
  103MOL   H10143145   7.831   6.636   0.841  2.3771  0.4420 -2.6939
  103MOL   H10243146   7.677   6.868   0.967 -1.4652 -0.1644  1.2939
  103MOL   H10343147   7.760   6.747   1.046  0.3859  1.4587 -0.3954
  103MOL   H10443148   7.518   6.679   0.866  1.4984 -1.5781 -0.6717
  103MOL   H10543149   7.513   6.713   1.040  0.0795 -0.7156  0.5911
  103MOL   H10643150   7.597   6.571   0.976  3.8144  0.2504 -0.6316
  103MOL   C10743151   0.107   6.579   0.439 -0.7458 -0.3119 -0.0203
  103MOL   C10843152   0.082   6.480   0.556 -0.1792 -1.0464 -0.3186
  103MOL   C10943153   7.849   6.361   0.497  0.6190 -0.5099 -0.7011
  103MOL   O11043154   7.723   6.371   0.482  0.2756  0.3516 -0.1595
  103MOL   O11143155   0.055   6.243   0.479 -0.0660 -0.2348 -0.2158
  103MOL   C11243156   7.840   6.129   0.424 -0.0110  0.6887 -0.0914
  103MOL   C11343157   0.074   6.006   0.442 -0.6667 -0.3846  1.3142
  103MOL   C11443158   0.050   5.943   0.579  0.2627 -0.7032  0.7205
  103MOL   C11543159   0.143   5.829   0.599  0.2591 -0.2142  0.7532
  103MOL   H11643160   0.160   6.523   0.362 -3.5072 -2.1940 -0.6262
  103MOL   H11743161   0.020   6.616   0.385 -1.6043 -0.4866  1.2293
  103MOL   H11843162   0.016   6.533   0.626 -0.0428  1.8475 -2.2694
  103MOL   H11943163   7.839   6.161   0.319 -0.9072  1.3554  0.1136
  103MOL   H12043164   7.742   6.118   0.470 -0.5921  1.4030 -1.1258
  103MOL   H12143165   0.031   5.933   0.373  1.7407 -0.2430 -0.4315
  103MOL   H12243166   0.178   6.003   0.408 -0.4027 -0.0009  2.0894
  103MOL   H12343167   7.801   5.906   0.595  0.5516 -3.0998 -2.6982
  103MOL   H12443168   0.079   6.011   0.660  0.9488 -0.5365  0.3323
  103MOL   H12543169   0.249   5.856   0.594 -0.1974  1.5730  0.3685
  103MOL   H12643170   0.145   5.749   0.525  3.2390  1.0021 -0.5760
  103MOL   H12743171   0.112   5.780   0.691 -0.5243 -0.3992  0.3897
  103MOL   C12843172   0.211   6.427   0.635  0.2635  0.1751  0.7497
  103MOL   C12943173   0.197   6.410   0.788 -0.8169  0.6965  0.4071
  103MOL   C13043174   0.113   6.286   0.830  0.0121 -0.4154 -0.6179
  103MOL   O13143175   0.163   6.180   0.848  0.4885  0.0730  0.0029
  103MOL   O13243176   7.832   6.316   0.841  0.2089 -0.0738  0.1714
  103MOL   C13343177   7.742   6.204   0.853  0.2897  0.0656 -0.1929
  103MOL   C13443178   7.601   6.255   0.866 -0.6260  0.1849 -0.7716
  103MOL   C13543179   7.521   6.260   0.735  0.1067  0.1119  0.2923
  103MOL   C13643180   7.370   6.299   0.750  0.3238 -0.2889 -0.1280
  103MOL   H13743181   0.292   6.494   0.608 -0.0348 -0.2480 -1.3031
  103MOL   H13843182   0.236   6.332   0.588 -1.9260  0.7669 -1.8016
  103MOL   H13943183   0.139   6.498   0.817 -2.5734 -0.6899  1.2004
  103MOL   H14043184   7.767   6.146   0.942 -1.8356  0.4917  0.7240
  103MOL   H14143185   7.757   6.133   0.772  0.3596 -0.4886  0.3020
  103MOL   H14243186   7.549   6.180   0.926 -1.2827  0.5001 -0.9412
  103MOL   H14343187   7.599   6.351   0.916 -0.3594 -1.6956  3.0583
  103MOL   H14443188   7.529   6.167   0.680 -0.3011 -0.3429  0.9916
  103MOL   H14543189   7.563   6.341   0.675  2.0661 -1.2660 -0.2417
  103MOL   H14643190   7.316   6.224   0.808  1.1948 -1.9722 -1.4684
  103MOL   H14743191   7.321   6.312   0.653  0.1249 -0.5327 -0.0591
  103MOL   H14843192   7.362   6.398   0.797  2.9412 -0.0720 -0.0572
  103MOL   C14943193   0.333   6.416   0.861 -0.0991  0.4673  0.0351
  103MOL   C15043194   0.361   6.437   1.015 -0.0116  0.1746 -0.4772
  103MOL   C15143195   0.252   6.519   1.081  0.7445 -0.3200 -0.4866
  103MOL   O15243196   0.258   6.645   1.094 -0.2070 -0.5854  0.2277
  103MOL   O15343197   0.150   6.441   1.114  0.4452 -0.6004  0.2203
  103MOL   C15443198   0.030   6.486   1.182  0.1823  0.1692  0.3035
  103MOL   C15543199   7.775   6.377   1.181 -0.2725  0.5854 -0.3982
  103MOL   C15643200   7.816   6.244   1.245  0.4178  0.1572 -0.7252
  103MOL   C15743201   7.699   6.146   1.254  0.3594  0.0339 -1.0258
  103MOL   H15843202   0.382   6.497   0.806  2.0224 -1.0892 -0.4424
  103MOL   H15943203   0.392   6.332   0.825  0.9279  1.1484  0.0951
  103MOL   H16043204   0.443   6.509   1.016  2.2709 -2.3482 -1.1241
  103MOL   H16143205   7.841   6.581   1.152 -1.4554 -0.1109  1.6339
  103MOL   H16243206   0.052   6.499   1.289 -3.1227 -1.2177  1.2113
  103MOL   H16343207   7.693   6.412   1.243 -2.0808 -1.0553 -1.7958
  103MOL   H16443208   7.742   6.372   1.077  1.1980  2.7425 -0.9958
  103MOL   H16543209   0.010   6.259   1.342 -0.7210  0.6701 -0.2409
  103MOL   H16643210   0.041   6.205   1.181 -0.0333 -1.4619 -0.3221
  103MOL   H16743211   7.705   6.049   1.303  1.5585  1.1923  1.1913
  103MOL   H16843212   7.654   6.126   1.156 -1.6522  1.0546 -0.3476
  103MOL   H16943213   7.624   6.199   1.314  0.4045 -2.6727  1.5483
  103MOL   C17043214   0.405   6.309   1.092 -0.1039  0.0361 -0.6410
  103MOL   C17143215   0.485   6.326   1.217  0.2910  0.1472 -0.1329
  103MOL   C17243216   0.402   6.331   1.344  0.0216  0.4102 -0.4262
  103MOL   O17343217   0.410   6.425   1.409  0.2673 -0.0878 -0.7056
  103MOL   O17443218   0.333   6.215   1.374 -0.2025  0.1686  0.3604
  103MOL   C17543219   0.275   6.191   1.503  1.3708  0.6205 -0.6199
  103MOL   C17643220   0.205   6.057   1.492 -0.1072 -0.3263 -0.4317
  103MOL   C17743221   0.297   5.935   1.470 -0.0665 -0.7099  0.4731
  103MOL   C17843222   0.231   5.801   1.512  0.1787 -0.0576 -0.1165
  103MOL   H17943223   0.451   6.251   1.013  1.1188  0.7955 -0.5019
  103MOL   H18043224   0.314   6.253   1.116  0.2769 -0.7265 -0.9742
  103MOL   H18143225   0.539   6.420   1.208  0.9504 -0.3345 -1.3496
  103MOL   H18243226   0.195   6.262   1.521 -0.6257 -1.7356  0.0941
  103MOL   H18343227   0.346   6.196   1.586  0.8079 -2.0189  0.0696
  103MOL   H18443228   0.144   6.043   1.581 -1.6191  1.4910 -1.1494
  103MOL   H18543229   0.137   6.057   1.406 -0.4544 -0.2799 -0.1609
  103MOL   H18643230   0.385   5.948   1.533  0.5124  0.9892 -0.6363
  103MOL   H18743231   0.345   5.931   1.373  2.2882 -1.3417  1.6299
  103MOL   H18843232   0.237   5.727   1.433  0.1474  0.0145 -0.1861
  103MOL   H18943233   0.132   5.820   1.554 -0.1286 -1.2145 -0.3017
  103MOL   H19043234   0.304   5.763   1.584 -1.0009 -0.0069  1.1243
  103MOL   C19143235   0.600   6.210   1.234 -0.2049 -0.0992  0.0171
  103MOL   C19243236   0.729   6.211   1.141  0.4564 -0.2651 -0.3722
  103MOL   C19343237   0.814   6.342   1.162 -0.8483  0.7356  0.5581
  103MOL   O19443238   0.848   6.410   1.065 -0.7642  0.0551 -0.1819
  103MOL   O19543239   0.853   6.356   1.295 -0.5284  0.1991 -0.0501
  103MOL   C19643240   0.925   6.476   1.332 -0.4374 -0.2362 -0.0597
  103MOL   C19743241   1.046   6.437   1.416 -0.0874 -0.0549  0.8020
  103MOL   C19843242   1.129   6.546   1.494  0.1347  0.3533  0.2771
  103MOL   C19943243   1.234   6.486   1.594 -0.9514 -0.1397  0.0891
  103MOL   H20043244   0.544   6.117   1.233  1.6883 -1.2755  1.0158
  103MOL   H20143245   0.624   6.219   1.340 -0.0209 -3.9154  0.3543
  103MOL   H20243246   0.682   6.224   1.044 -2.8261 -0.7719  1.0781
  103MOL   H20343247   0.863   6.555   1.375 -1.3037 -1.0620  0.2375
  103MOL   H20443248   0.966   6.531   1.248 -1.7609 -0.3257 -0.7809
  103MOL   H20543249   0.995   6.381   1.495 -2.0003  0.4666 -0.0552
  103MOL   H20643250   1.112   6.369   1.362  1.8989  1.8294  0.8084
  103MOL   H20743251   1.056   6.601   1.554  0.7378 -2.3852  3.6486
  103MOL   H20843252   1.166   6.609   1.413 -1.2111 -0.9997 -1.4457
  103MOL   H20943253   1.322   6.442   1.547 -0.9259 -0.7125  0.6797
  103MOL   H21043254   1.179   6.413   1.653 -0.2584  0.9401  2.1300
  103MOL   H21143255   1.278   6.568   1.651  1.4616  0.3385 -2.3508
  103MOL   C21243256   0.816   6.085   1.133  0.7749  0.3046  0.1275
  103MOL   C21343257   0.738   5.955   1.106 -0.5759  0.3108  0.3382
  103MOL   C21443258   0.650   5.959   0.979 -0.8899  0.0525 -0.2662
  103MOL   O21543259   0.680   6.016   0.872 -0.5396 -0.0439 -0.8670
  103MOL   O21643260   0.543   5.886   1.001  0.0277 -0.1347 -0.4913
  103MOL   C21743261   0.446   5.889   0.906  0.3984 -0.4600 -0.8818
  103MOL   C21843262   0.322   5.826   0.971  0.2080 -0.2589  0.3824
  103MOL   C21943263   0.264   5.932   1.069  0.0313 -0.1837 -0.2338
  103MOL   C22043264   0.122   5.907   1.113  0.0827 -0.4852 -0.2108
  103MOL   H22143265   0.861   6.074   1.232  1.1886  3.3602  0.3081
  103MOL   H22243266   0.904   6.095   1.069  0.0778  1.1321 -0.7219
  103MOL   H22343267   0.665   5.941   1.186 -0.5715  0.4563  0.3683
  103MOL   H22443268   0.465   5.819   0.824  0.2947 -2.2815  0.6032
  103MOL   H22543269   0.427   5.990   0.870  1.8671 -0.7212 -2.4811
  103MOL   H22643270   0.251   5.810   0.890  1.2042  0.4205 -0.6407
  103MOL   H22743271   0.338   5.740   1.035  0.1372 -0.3672  0.2533
  103MOL   H22843272   0.260   6.031   1.026 -1.7724  0.3677  1.1440
  103MOL   H22943273   0.341   5.924   1.147 -0.7731 -1.7331  0.4339
  103MOL   H23043274   0.105   5.958   1.208 -0.5266 -1.3357  0.1432
  103MOL   H23143275   0.081   5.806   1.127 -1.2280 -0.3190 -2.6366
  103MOL   H23243276   0.058   5.957   1.040 -1.5461  0.2192  1.6378
  103MOL   C23343277   0.830   5.824   1.108 -0.6230  0.3145  0.4888
  103MOL   C23443278   0.892   5.797   1.240  0.1048 -0.4657 -0.4411
  103MOL   C23543279   0.791   5.753   1.341 -0.0392 -0.2810 -0.1025
  103MOL   O23643280   0.748   5.828   1.422 -0.5601 -0.6432  0.1396
  103MOL   O23743281   0.758   5.626   1.324 -0.3159  0.0027  0.5259
  103MOL   C23843282   0.674   5.548   1.416  0.2856 -0.1049 -0.1026
  103MOL   C23943283   0.525   5.587   1.383 -0.5815  0.7206 -0.4458
  103MOL   C24043284   0.469   5.503   1.257 -0.6411 -0.4547  0.2878
  103MOL   C24143285   0.327   5.538   1.231 -0.3761  0.7680  1.3311
  103MOL   H24243286   0.905   5.843   1.031 -3.2234  1.7108 -1.7767
  103MOL   H24343287   0.779   5.733   1.076  1.4914 -0.3574 -1.0939
  103MOL   H24443288   0.933   5.887   1.287  0.1231 -1.0259  0.6287
  103MOL   H24543289   0.713   5.576   1.514  1.0067  0.1342 -0.4536
  103MOL   H24643290   0.696   5.445   1.390  0.0684 -0.7257  2.1537
  103MOL   H24743291   0.477   5.572   1.479 -1.6207  1.4975 -0.8426
  103MOL   H24843292   0.513   5.695   1.379  0.6414  0.8519 -1.1662
  103MOL   H24943293   0.492   5.397   1.267  0.8336 -0.2922 -1.1172
  103MOL   H25043294   0.512   5.545   1.166  0.3219 -1.8121  0.0951
  103MOL   H25143295   0.260   5.484   1.298 -0.8509 -2.9975 -2.0064
  103MOL   H25243296   0.296   5.503   1.133  0.3494  0.1302  1.3308
  103MOL   H25343297   0.312   5.646   1.238  0.9761  1.1634 -1.4995
  103MOL   C25443298   1.013   5.698   1.224  0.1910 -0.7154 -0.9427
  103MOL   C25543299   1.106   5.682   1.350 -0.0680  0.4568 -0.8139
  103MOL   C25643300   1.082   5.554   1.428  0.1609  0.1817  0.3701
  103MOL   O25743301   1.037   5.563   1.542 -0.3561 -0.6710  0.0417
  103MOL   O25843302   1.105   5.442   1.355 -0.6823 -0.2984 -0.2944
  103MOL   C25943303   1.092   5.311   1.414  0.9256 -0.9014 -0.8628
  103MOL   C26043304   1.173   5.221   1.324  0.3282 -0.5906 -0.9665
  103MOL   C26143305   1.320   5.252   1.306  0.4730  0.7201 -0.8338
  103MOL   C26243306   1.411   5.230   1.430  0.0873  0.0948  0.8389
  103MOL   H26343307   1.068   5.729   1.135  0.9692  1.5728  0.2932
  103MOL   H26443308   0.975   5.604   1.185 -2.6711 -0.8001  1.8841
  103MOL   H26543309   1.070   5.754   1.424 -0.2587 -0.2585 -0.2076
  103MOL   H26643310   0.988   5.277   1.416  0.8771 -0.8560 -2.3426
  103MOL   H26743311   1.134   5.310   1.515 -0.0637  3.6631 -0.3072
  103MOL   H26843312   1.169   5.119   1.364 -0.4950 -0.3546 -0.4208
  103MOL   H26943313   1.116   5.238   1.232  1.4367  0.9102 -1.3900
  103MOL   H27043314   1.332   5.352   1.264  0.2471  0.9556 -0.3391
  103MOL   H27143315   1.348   5.194   1.217  1.4528  1.3250 -0.9260
  103MOL   H27243316   1.407   5.126   1.463 -0.1359 -0.2244 -0.1845
  103MOL   H27343317   1.386   5.292   1.516  0.4279  1.8054 -0.2785
  103MOL   H27443318   1.515   5.254   1.405 -0.2382 -2.3289 -3.3333
  103MOL   C27543319   1.253   5.707   1.314  0.1989  0.4096  0.3033
  103MOL   C27643320   1.292   5.850   1.253  0.0186  0.0055  0.1144
  103MOL   C27743321   1.289   5.960   1.354 -0.0392 -0.1098  0.9456
  103MOL   O27843322   1.390   6.022   1.391  0.2735 -0.2789  0.2066
  103MOL   O27943323   1.165   5.969   1.417  0.3484  0.1830  0.6530
  103MOL   C28043324   1.136   6.060   1.528  0.5671 -0.6643 -0.7941
  103MOL   C28143325   1.118   5.977   1.653  0.1076 -1.3534 -0.2132
  103MOL   C28243326   1.077   6.061   1.771  0.3486 -0.8593 -0.1392
  103MOL   C28343327   1.072   5.981   1.906  0.4031  0.0019 -0.2411
  103MOL   H28443328   1.280   5.639   1.234 -0.3255 -0.6679  1.0365
  103MOL   H28543329   1.316   5.706   1.403  0.8956  1.4158 -0.1714
  103MOL   H28643330   1.213   5.878   1.183  1.6954  1.8475 -1.0919
  103MOL   H28743331   1.044   6.116   1.508  1.6884  1.3109 -0.5573
  103MOL   H28843332   1.223   6.120   1.554  0.9866 -0.5401 -2.3828
  103MOL   H28943333   1.054   5.891   1.632 -1.2514 -0.6410  0.9212
  103MOL   H29043334   1.214   5.925   1.659  0.9015 -0.3694 -3.2690
  103MOL   H29143335   0.983   6.105   1.738 -0.1969 -3.2446 -1.9275
  103MOL   H29243336   1.143   6.146   1.793  0.1928 -1.1179  1.3964
  103MOL   H29343337   1.022   5.885   1.892  2.6374 -0.9629 -1.8547
  103MOL   H29443338   1.020   6.038   1.983  1.5554  1.7266 -0.6984
  103MOL   H29543339   1.172   5.958   1.941  0.6709  0.1527 -0.8944
  103MOL   C29643340   1.417   5.847   1.169  0.4335 -0.0244 -0.6156
  103MOL   C29743341   1.421   5.953   1.057 -0.9495 -0.1098  0.0851
  103MOL   C29843342   1.567   5.987   1.019 -0.0461  0.2655 -0.1182
  103MOL   O29943343   1.614   5.948   0.916  0.0628 -0.1454  0.2504
  103MOL   O30043344   1.623   6.055   1.120  0.2510  0.5190 -0.0241
  103MOL   C30143345   1.761   6.077   1.125 -1.3874 -0.3760 -0.1350
  103MOL   C30243346   1.818   6.084   1.275 -0.0334  0.6970 -0.2554
  103MOL   C30343347   1.790   6.227   1.331  0.0818 -0.6400  0.4481
  103MOL   C30443348   1.858   6.260   1.464  0.2598  0.2718  0.2309
  103MOL   H30543349   1.440   5.746   1.132 -0.8174 -0.3297 -0.5785
  103MOL   H30643350   1.499   5.860   1.239 -0.6092  0.7461  0.4737
  103MOL   H30743351   1.381   6.047   1.097  1.5903  0.6089  1.0138
  103MOL   H30843352   1.774   6.163   1.060 -1.5598 -1.1837 -1.2644
  103MOL   H30943353   1.814   5.999   1.069  2.1466 -0.4151  3.0581
  103MOL   H31043354   1.784   5.997   1.331  0.6466 -0.1935 -1.2003
  103MOL   H31143355   1.926   6.068   1.270  0.1329  2.3736 -3.1602
  103MOL   H31243356   1.682   6.230   1.346  0.1166 -1.0777  0.7969
  103MOL   H31343357   1.807   6.307   1.259 -3.4967 -0.3879 -0.2188
  103MOL   H31443358   1.804   6.341   1.512 -0.1780  0.7149 -0.9938
  103MOL   H31543359   1.956   6.298   1.435 -1.4252  3.2596 -1.8244
  103MOL   H31643360   1.875   6.185   1.541 -0.7926  0.4562  0.6521
  103MOL   C31743361   1.336   5.914   0.927  0.2123  0.0212 -0.3242
  103MOL   C31843362   1.257   6.026   0.859  0.0846 -0.1655 -0.5559
  103MOL   C31943363   1.175   5.967   0.746  0.2728  0.2886  0.2968
  103MOL   O32043364   1.154   5.845   0.740 -0.0349  0.1324  0.7792
  103MOL   O32143365   1.142   6.057   0.653 -0.7448  0.2253 -0.3944
  103MOL   C32243366   1.055   6.021   0.544 -0.5291 -0.6333 -0.5211
  103MOL   C32343367   0.904   6.018   0.595 -0.9474 -0.1717  0.1323
  103MOL   C32443368   0.808   5.966   0.489  0.7909 -0.2266 -0.1427
  103MOL   C32543369   0.657   5.944   0.540  0.9285 -0.2364  0.0897
  103MOL   H32643370   1.257   5.845   0.958  0.2946  0.8671  1.8826
  103MOL   H32743371   1.389   5.860   0.849 -1.9883 -2.0357 -0.4632
  103MOL   H32843372   1.329   6.090   0.807  0.9488  1.4193  2.3987
  103MOL   H32943373   1.070   5.920   0.507 -3.0206 -1.2051 -0.0805
  103MOL   H33043374   1.074   6.092   0.463  0.7877 -0.1973  0.1499
  103MOL   H33143375   0.895   5.959   0.686  3.4858 -2.5405 -0.7876
  103MOL   H33243376   0.875   6.119   0.624 -1.3538 -0.7982  1.9407
  103MOL   H33343377   0.846   5.873   0.447 -0.2965 -1.0192  0.5932
  103MOL   H33443378   0.819   6.027   0.399 -1.1197  1.3414  0.6536
  103MOL   H33543379   0.586   5.915   0.462 -1.5761  1.0641  1.8418
  103MOL   H33643380   0.633   6.039   0.587  0.1561 -0.1163 -0.5453
  103MOL   H33743381   0.654   5.863   0.613 -1.0007  0.6045  0.9729
  103MOL   C33843382   1.172   6.119   0.953  0.0389 -0.6649  0.0038
  103MOL   C33943383   1.200   6.271   0.954 -0.3261 -0.3357  0.4465
  103MOL   C34043384   1.329   6.298   1.018  0.1523  0.6901 -0.6699
  103MOL   O34143385   1.428   6.308   0.951 -0.5283  0.1033  0.3314
  103MOL   O34243386   1.319   6.304   1.154 -0.2666  0.1648 -0.2894
  103MOL   C34343387   1.435   6.333   1.230 -0.5515 -0.3606  0.5885
  103MOL   C34443388   1.458   6.483   1.256  0.2785  0.2921  0.7591
  103MOL   C34543389   1.579   6.502   1.358  0.6959  0.4762  0.5751
  103MOL   C34643390   1.578   6.641   1.421  0.2536  0.0109 -0.2483
  103MOL   H34743391   1.169   6.076   1.053 -1.1342  0.7608  0.6050
  103MOL   H34843392   1.069   6.123   0.918  0.0121 -0.5738  0.0938
  103MOL   H34943393   1.122   6.327   1.006  2.1369  2.7442  0.9955
  103MOL   H35043394   1.517   6.297   1.168 -2.6936 -0.4911 -2.2354
  103MOL   H35143395   1.439   6.278   1.324  2.7433 -0.5484  0.3963
  103MOL   H35243396   1.466   6.536   1.161  2.4978  0.4503  1.0234
  103MOL   H35343397   1.373   6.523   1.312  1.6366  3.2623  0.8165
  103MOL   H35443398   1.676   6.479   1.313 -0.5366  0.1118 -1.9213
  103MOL   H35543399   1.564   6.431   1.440  3.2749 -1.7444 -0.7913
  103MOL   H35643400   1.625   6.705   1.346 -1.0725  2.4514  0.9587
  103MOL   H35743401   1.632   6.655   1.514  1.7387 -1.2553 -0.8896
  103MOL   H35843402   1.478   6.682   1.435  0.3630  0.2318 -0.1271
  103MOL   C35943403   1.187   6.338   0.811 -0.0869 -0.3464 -0.1574
  103MOL   C36043404   1.197   6.488   0.794  0.4819 -0.4301 -0.2386
  103MOL   C36143405   1.205   6.524   0.641  0.0753  0.0064 -0.9253
  103MOL   O36243406   1.299   6.589   0.599 -0.0402  0.7966 -0.0298
  103MOL   O36343407   1.105   6.473   0.571  0.5264 -0.0857  0.2699
  103MOL   C36443408   1.090   6.493   0.433  1.0443  0.0341  0.3177
  103MOL   C36543409   0.988   6.600   0.398 -0.4139  0.5319 -0.1711
  103MOL   C36643410   1.022   6.737   0.451 -0.0767  0.2555 -0.2141
  103MOL   C36743411   0.935   6.857   0.403  0.2729  0.3864  0.1200
  103MOL   H36843412   1.093   6.297   0.775 -0.2582  1.2758 -1.6764
  103MOL   H36943413   1.263   6.295   0.745 -0.8580  1.4259 -2.2738
  103MOL   H37043414   1.293   6.520   0.836  0.7945 -0.2880 -1.0516
  103MOL   H37143415   1.066   6.398   0.387  1.1102  1.6148 -3.1356
  103MOL   H37243416   1.187   6.513   0.388 -0.6371  0.3767 -3.3123
  103MOL   H37343417   0.989   6.615   0.290 -0.9983  0.4651 -0.1849
  103MOL   H37443418   0.887   6.573   0.425 -0.2664  0.4319  0.2842
  103MOL   H37543419   1.128   6.756   0.433  0.0180  0.4706  0.5301
  103MOL   H37643420   1.006   6.725   0.558  1.3689 -0.0626 -0.0175
  103MOL   H37743421   0.831   6.836   0.430  0.6177  0.4723  1.5234
  103MOL   H37843422   0.925   6.866   0.294 -1.8684 -1.5931  0.0966
  103MOL   H37943423   0.967   6.947   0.455  0.3156  1.0646 -1.0416
  103MOL   C38043424   1.074   6.558   0.863  0.6774  0.3257  0.1762
  103MOL   C38143425   1.070   6.716   0.846  0.6894 -0.2890  0.2752
  103MOL   C38243426   0.932   6.777   0.869  0.7446 -0.1012 -0.1261
  103MOL   O38343427   0.894   6.874   0.803  0.2091  0.4949  0.3358
  103MOL   O38443428   0.867   6.714   0.977  0.5152 -0.0314 -0.3732
  103MOL   C38543429   0.736   6.773   1.016 -0.2882  0.1887  0.7271
  103MOL   C38643430   0.709   6.750   1.165 -0.2229  0.5338  1.1251
  103MOL   C38743431   0.568   6.790   1.211 -0.0950 -0.2129 -0.1050
  103MOL   C38843432   0.559   6.780   1.371  0.4977 -0.5885  0.0867
  103MOL   H38943433   1.063   6.534   0.969  0.6540  2.1730  0.6254
  103MOL   H39043434   0.984   6.515   0.821  0.6431 -0.1095  0.6947
  103MOL   H39143435   1.088   6.742   0.742  0.3496 -3.2269 -0.5716
  103MOL   H39243436   0.650   6.721   0.974 -0.5920  0.9097  0.4596
  103MOL   H39343437   0.724   6.876   0.982  0.4023 -0.1773 -0.6801
  103MOL   H39443438   0.725   6.647   1.196  0.6131  0.3639  0.1847
  103MOL   H39543439   0.776   6.808   1.228 -0.1731  0.2715  1.3145
  103MOL   H39643440   0.502   6.718   1.163  2.0019 -1.3731 -1.3476
  103MOL   H39743441   0.538   6.891   1.181 -1.0793 -0.4292  0.1384
  103MOL   H39843442   0.638   6.834   1.422  0.5542 -1.4900  0.9662
  103MOL   H39943443   0.569   6.676   1.404  1.2886 -0.4669  0.2357
  103MOL   H40043444   0.466   6.806   1.421 -0.5536  0.5382 -2.3545
  103MOL   C40143445   1.176   6.783   0.939  0.1579 -0.4332 -0.4400
  103MOL   C40243446   1.137   6.792   1.085 -0.2286 -0.4471  0.1574
  103MOL   C40343447   1.254   6.834   1.181  0.8774  0.6408 -0.4512
  103MOL   O40443448   1.368   6.811   1.144  0.1516 -0.3039  0.3073
  103MOL   O40543449   1.204   6.890   1.294 -0.1458  0.6195 -0.0581
  103MOL   C40643450   1.293   6.928   1.397 -0.1606 -0.2254  0.2156
  103MOL   C40743451   1.218   7.019   1.494  1.4007 -0.4454  0.3530
  103MOL   C40843452   1.302   7.075   1.609  0.2307 -0.9228  0.5711
  103MOL   C40943453   1.373   7.206   1.592 -0.1896 -0.8065  0.1999
  103MOL   H41043454   1.181   6.887   0.908  1.4825 -1.0128 -2.2745
  103MOL   H41143455   1.266   6.728   0.910 -0.3186 -0.1201 -2.6519
  103MOL   H41243456   1.106   6.694   1.122 -0.9450 -0.2454  0.0925
  103MOL   H41343457   1.380   6.975   1.351 -0.3424 -0.2423 -0.1400
  103MOL   H41443458   1.332   6.841   1.451  1.2258  0.0275 -0.3586
  103MOL   H41543459   1.179   7.104   1.438  2.6300 -0.9327 -1.3033
  103MOL   H41643460   1.139   6.960   1.541  1.2656  0.8921  1.8500
  103MOL   H41743461   1.373   6.996   1.633  0.6293 -1.1447 -1.2524
  103MOL   H41843462   1.238   7.084   1.697  0.3375 -0.1366  0.5688
  103MOL   H41943463   1.304   7.288   1.575  1.1326  0.0682 -1.1473
  103MOL   H42043464   1.441   7.195   1.507  0.6071  1.7874  0.4452
  103MOL   H42143465   1.445   7.237   1.668 -1.3294  0.7314  0.6789
  103MOL   H42243466   1.051   6.855   1.109 -0.4876 -1.1359  1.0690
  104MOL     C143467   4.563   4.419   0.425  0.0110 -0.3598  0.4630
  104MOL     C243468   4.469   4.509   0.504 -0.1261 -0.4618 -0.0092
  104MOL     C343469   4.474   4.478   0.649  0.3739 -0.1690 -0.0818
  104MOL     O443470   4.577   4.467   0.713  0.1401  0.0122 -0.2024
  104MOL     O543471   4.356   4.465   0.706 -0.1387 -0.0199  0.2232
  104MOL     C643472   4.341   4.438   0.847 -0.3775  0.3852 -0.1565
  104MOL     C743473   4.236   4.536   0.906 -0.2156  0.2031 -0.4056
  104MOL     C843474   4.227   4.539   1.059  0.7216  0.2920  0.3626
  104MOL     C943475   4.188   4.404   1.125 -0.1440  0.3427  0.3089
  104MOL    H1043476   4.558   4.441   0.318 -0.4797 -1.8195  0.1769
  104MOL    H1143477   4.666   4.436   0.455 -0.1956 -0.5246  1.2742
  104MOL    H1243478   4.367   4.486   0.473 -0.0360 -2.0740  0.7860
  104MOL    H1343479   4.434   4.448   0.903  0.6638  3.4469 -2.2621
  104MOL    H1443480   4.306   4.335   0.854  0.9033 -0.1841 -1.6501
  104MOL    H1543481   4.276   4.637   0.894  0.6158  0.0812  1.1394
  104MOL    H1643482   4.139   4.538   0.857 -1.2328  2.7106  1.5399
  104MOL    H1743483   4.139   4.602   1.072 -0.6192 -0.8229 -2.7949
  104MOL    H1843484   4.318   4.583   1.101  1.7745 -0.0946 -1.4281
  104MOL    H1943485   4.089   4.372   1.093  0.0470 -1.2960  1.3108
  104MOL    H2043486   4.192   4.415   1.233  1.3084  1.1345  0.1856
  104MOL    H2143487   4.266   4.332   1.099 -0.3018 -0.6107  2.3957
  104MOL    H2243488   4.546   4.312   0.436  1.5874 -1.1313 -3.5318
  104MOL    C2343489   4.490   4.656   0.474 -0.6917  0.6174 -0.5611
  104MOL    C2443490   4.380   4.753   0.528  0.5032  0.2937 -0.5930
  104MOL    C2543491   4.420   4.892   0.575 -0.6954  0.3708  0.1475
  104MOL    O2643492   4.398   4.927   0.691  0.1780 -0.0064  0.3852
  104MOL    O2743493   4.472   4.971   0.482  0.4259 -0.0736 -0.0469
  104MOL    C2843494   4.464   5.113   0.510 -0.3877 -1.0090  0.1506
  104MOL    C2943495   4.519   5.194   0.386 -0.7996 -0.4756 -0.3850
  104MOL    C3043496   4.463   5.158   0.247 -0.4725 -0.3297  0.6318
  104MOL    C3143497   4.468   5.265   0.142  0.5383 -0.1206  0.1505
  104MOL    H3243498   4.508   4.674   0.368 -0.7798  1.5375 -0.4173
  104MOL    H3343499   4.584   4.687   0.520 -0.3133 -0.1498 -0.7974
  104MOL    H3443500   4.340   4.703   0.617 -1.0074  0.7462 -1.0091
  104MOL    H3543501   4.511   5.132   0.606  0.5341 -0.8624 -0.3203
  104MOL    H3643502   4.361   5.145   0.527  0.0532  0.6269 -0.0779
  104MOL    H3743503   4.489   5.296   0.409  0.1506 -0.6583  1.8296
  104MOL    H3843504   4.627   5.198   0.376 -0.3857 -2.6143  2.4806
  104MOL    H3943505   4.357   5.131   0.257 -0.4684 -0.4196  0.4597
  104MOL    H4043506   4.525   5.071   0.225 -0.9559  0.2618 -3.4603
  104MOL    H4143507   4.439   5.223   0.045  1.5992 -0.8208  0.1309
  104MOL    H4243508   4.567   5.298   0.112  0.1243  1.9014  0.8961
  104MOL    H4343509   4.416   5.358   0.166 -0.6248 -0.3797 -1.2515
  104MOL    C4443510   4.251   4.759   0.434 -0.0778  0.0434 -0.3710
  104MOL    C4543511   4.132   4.831   0.507 -0.0223  0.8842  0.5005
  104MOL    C4643512   4.007   4.870   0.413  0.1796 -0.0664  0.3369
  104MOL    O4743513   4.002   4.977   0.353  0.5260 -0.5793  0.2634
  104MOL    O4843514   3.914   4.771   0.406 -0.2123  0.1172  0.0659
  104MOL    C4943515   3.796   4.795   0.334  0.1874  0.1832  0.3450
  104MOL    C5043516   3.694   4.884   0.410 -0.1413 -0.3157 -0.5786
  104MOL    C5143517   3.564   4.896   0.335 -0.3561 -0.2282  0.0998
  104MOL    C5243518   3.453   4.970   0.411  0.4353 -0.5214 -1.3640
  104MOL    H5343519   4.223   4.658   0.404  1.8372 -0.5774 -0.1309
  104MOL    H5443520   4.277   4.808   0.341  0.5729 -2.2347 -1.4350
  104MOL    H5543521   4.157   4.935   0.529 -2.5494  1.9608 -1.4523
  104MOL    H5643522   3.765   4.693   0.312 -0.1376  0.1498  0.9367
  104MOL    H5743523   3.827   4.836   0.238  2.4281  1.3894  1.5301
  104MOL    H5843524   3.664   4.828   0.498 -0.6903 -1.2861 -1.3707
  104MOL    H5943525   3.731   4.979   0.448 -2.6047  0.4072  0.0371
  104MOL    H6043526   3.536   4.792   0.315  1.4840 -0.4474 -1.4364
  104MOL    H6143527   3.583   4.947   0.241 -2.7209 -0.1331 -0.3723
  104MOL    H6243528   3.405   4.907   0.486  2.5769 -0.5647  0.0114
  104MOL    H6343529   3.380   5.005   0.338  2.3351  0.3281 -2.9179
  104MOL    H6443530   3.489   5.059   0.462 -0.2703 -0.3506 -1.1709
  104MOL    C6543531   4.091   4.758   0.639 -0.2333 -0.2756  0.6861
  104MOL    C6643532   3.993   4.834   0.731 -0.6501  0.1266  0.2473
  104MOL    C6743533   3.855   4.767   0.747 -0.1887  0.2657  0.8752
  104MOL    O6843534   3.754   4.825   0.721  0.3460 -0.5138  0.1951
  104MOL    O6943535   3.861   4.650   0.809  0.1231  0.3728 -0.0103
  104MOL    C7043536   3.747   4.578   0.845 -0.2993  0.0580  0.1012
  104MOL    C7143537   3.788   4.438   0.883 -0.2264 -0.6940 -0.0205
  104MOL    C7243538   3.792   4.334   0.777 -0.7619 -0.1551 -0.2750
  104MOL    C7343539   3.936   4.317   0.728 -0.2867  0.5404 -0.1832
  104MOL    H7443540   4.184   4.729   0.688  1.6996  1.7394 -1.6316
  104MOL    H7543541   4.056   4.656   0.624 -0.4190 -0.1541  0.2757
  104MOL    H7643542   3.977   4.935   0.694 -0.4573  0.9069  2.2303
  104MOL    H7743543   3.665   4.580   0.774 -1.0339  2.4589  0.9963
  104MOL    H7843544   3.700   4.622   0.933  0.6313  1.5192 -0.1179
  104MOL    H7943545   3.869   4.425   0.955 -1.4184 -0.6664  1.3462
  104MOL    H8043546   3.700   4.407   0.940 -1.3086  0.1948 -1.1814
  104MOL    H8143547   3.716   4.357   0.702 -1.1218 -0.8598 -0.1359
  104MOL    H8243548   3.761   4.234   0.809  0.7480 -0.4130  0.3865
  104MOL    H8343549   3.944   4.224   0.673  1.3690  0.5156  0.0854
  104MOL    H8443550   4.009   4.316   0.809  1.1502 -3.0212 -1.4303
  104MOL    H8543551   3.961   4.396   0.657 -1.4399  2.1880  1.1950
  104MOL    C8643552   4.048   4.864   0.870  0.3708  0.0904 -1.1887
  104MOL    C8743553   3.961   4.953   0.962  0.5485 -0.2023  0.3018
  104MOL    C8843554   3.873   4.873   1.058  0.4266 -0.2455  0.2929
  104MOL    O8943555   3.752   4.885   1.061  0.3099 -0.2056 -0.1191
  104MOL    O9043556   3.934   4.780   1.130  0.1653 -0.3570 -0.1293
  104MOL    C9143557   3.854   4.708   1.225 -0.7298 -0.2284  0.0400
  104MOL    C9243558   3.955   4.642   1.322 -0.9508 -0.6124  0.6960
  104MOL    C9343559   3.878   4.588   1.450  0.5914 -0.2523 -0.7283
  104MOL    C9443560   3.832   4.694   1.547  0.0479  0.1506 -0.1269
  104MOL    H9543561   4.143   4.914   0.850  2.3453 -2.7463  0.6555
  104MOL    H9643562   4.082   4.770   0.914  1.9374  0.6392 -1.1829
  104MOL    H9743563   3.892   4.995   0.889  1.5708 -0.2955 -0.7278
  104MOL    H9843564   3.787   4.640   1.172 -0.8442 -1.7302  2.0397
  104MOL    H9943565   3.783   4.773   1.274 -0.4955 -0.0445  0.1362
  104MOL   H10043566   4.014   4.559   1.283  2.3219  0.6792  2.6899
  104MOL   H10143567   4.030   4.714   1.354 -0.0074 -1.9087  1.4625
  104MOL   H10243568   3.936   4.520   1.512 -1.3322 -0.0484  1.4004
  104MOL   H10343569   3.788   4.532   1.423 -0.3382  0.9749 -0.2242
  104MOL   H10443570   3.904   4.744   1.612  0.2285  0.7061 -0.7558
  104MOL   H10543571   3.759   4.658   1.619 -0.7015  1.4264 -0.2373
  104MOL   H10643572   3.780   4.776   1.498  0.7244  0.1690 -0.8200
  104MOL   C10743573   4.033   5.073   1.034 -0.4069  0.7220  0.1340
  104MOL   C10843574   4.121   5.035   1.152 -0.1354 -0.4804 -0.6658
  104MOL   C10943575   4.259   4.983   1.102  0.5117 -0.1314  0.7208
  104MOL   O11043576   4.276   4.865   1.086  0.1921  0.3597 -0.1618
  104MOL   O11143577   4.357   5.071   1.074  0.2412  0.0429 -0.0096
  104MOL   C11243578   4.494   5.032   1.045  0.6788 -0.7232  0.0202
  104MOL   C11343579   4.598   5.139   1.092  0.2376 -0.5216 -0.2439
  104MOL   C11443580   4.578   5.265   1.005 -0.1231  0.7315  0.2483
  104MOL   C11543581   4.616   5.400   1.086 -0.2872  0.7636 -0.6080
  104MOL   H11643582   3.955   5.139   1.071 -0.3741  0.2014  1.1471
  104MOL   H11743583   4.088   5.133   0.961 -0.9322  0.0109 -0.8729
  104MOL   H11843584   4.072   4.954   1.207 -2.2031  1.1239 -0.0437
  104MOL   H11943585   4.511   4.995   0.944 -0.5647  1.2217 -0.9209
  104MOL   H12043586   4.520   4.952   1.115  0.1916 -0.6874  0.2415
  104MOL   H12143587   4.577   5.159   1.198 -0.3168 -1.6499 -0.1295
  104MOL   H12243588   4.700   5.107   1.109 -0.5102 -1.7805  2.1271
  104MOL   H12343589   4.476   5.281   0.972 -1.3594 -0.8675  3.1188
  104MOL   H12443590   4.642   5.254   0.918  0.0645 -0.9604  0.5774
  104MOL   H12543591   4.691   5.384   1.164  0.5204  1.5330 -1.2194
  104MOL   H12643592   4.525   5.438   1.132 -1.8989 -3.7199  0.1201
  104MOL   H12743593   4.658   5.487   1.035  2.6596  0.6757  1.5028
  104MOL   C12843594   4.149   5.138   1.259  0.3488 -0.1378 -0.4006
  104MOL   C12943595   4.032   5.173   1.358  0.2451 -0.0875  0.9695
  104MOL   C13043596   4.013   5.056   1.450 -0.3891 -0.8281  0.2939
  104MOL   O13143597   3.915   4.981   1.447 -0.0813 -0.6508 -0.4115
  104MOL   O13243598   4.111   5.050   1.538  0.5324  0.1865 -0.4984
  104MOL   C13343599   4.127   4.932   1.620 -0.5465  0.0113 -0.3992
  104MOL   C13443600   4.262   4.928   1.689  0.0444  1.1948 -1.2753
  104MOL   C13543601   4.243   4.804   1.790  0.2135  0.0354 -0.1470
  104MOL   C13643602   4.379   4.761   1.844 -1.0238  0.3216 -0.2060
  104MOL   H13743603   4.172   5.225   1.199  2.2394 -0.9992 -0.9602
  104MOL   H13843604   4.242   5.117   1.312  0.0992 -2.3043 -0.7638
  104MOL   H13943605   3.943   5.180   1.295 -1.9819  1.3525  4.1338
  104MOL   H14043606   4.128   4.862   1.537  0.4093 -0.9710  0.4331
  104MOL   H14143607   4.040   4.918   1.684 -0.1602 -0.5642 -0.0000
  104MOL   H14243608   4.345   4.927   1.619  1.9891  1.6819  0.9694
  104MOL   H14343609   4.279   5.011   1.758  0.6168  0.0014  0.0383
  104MOL   H14443610   4.177   4.723   1.760 -1.2934  1.0749  0.3042
  104MOL   H14543611   4.186   4.842   1.876 -0.3046 -0.9649 -0.0358
  104MOL   H14643612   4.352   4.697   1.929  1.3237  0.0321  0.3751
  104MOL   H14743613   4.437   4.843   1.886  0.3054 -1.1890  0.9850
  104MOL   H14843614   4.436   4.703   1.771 -1.2077 -0.8811  0.5850
  104MOL   C14943615   4.046   5.299   1.437 -0.5708  1.2044 -0.1897
  104MOL   C15043616   4.007   5.428   1.359  0.2491  0.0694  0.1207
  104MOL   C15143617   3.852   5.440   1.354  0.1244  0.1635  0.2701
  104MOL   O15243618   3.798   5.422   1.246 -0.2003 -0.2855  0.4194
  104MOL   O15343619   3.793   5.474   1.472 -0.4066 -0.0704  0.1846
  104MOL   C15443620   3.654   5.493   1.488 -0.5933 -0.0667  0.9338
  104MOL   C15543621   3.605   5.636   1.440  0.3953 -0.1123  0.0530
  104MOL   C15643622   3.457   5.646   1.481 -0.0439  0.4171  0.6063
  104MOL   C15743623   3.401   5.792   1.471  0.8817 -0.0735 -0.0188
  104MOL   H15843624   4.150   5.313   1.469 -1.0507  0.4458  1.8034
  104MOL   H15943625   3.995   5.296   1.534 -0.5747  0.3448 -0.2146
  104MOL   H16043626   4.037   5.417   1.255  1.8053  1.0963  0.4329
  104MOL   H16143627   3.616   5.458   1.584 -0.2577  1.3710  1.6157
  104MOL   H16243628   3.623   5.424   1.410  0.7072  0.1031  0.2557
  104MOL   H16343629   3.666   5.708   1.493  1.3061 -1.0058  0.2211
  104MOL   H16443630   3.625   5.662   1.336 -2.0250  0.6268 -0.2632
  104MOL   H16543631   3.428   5.607   1.578  1.1322  0.7599  1.1023
  104MOL   H16643632   3.408   5.582   1.407  0.4048  0.0189  0.6521
  104MOL   H16743633   3.414   5.838   1.373  0.9924 -0.9500 -0.4168
  104MOL   H16843634   3.443   5.852   1.552  0.3524 -0.3784  0.4845
  104MOL   H16943635   3.292   5.801   1.480  0.9480 -1.1352  2.1743
  104MOL   C17043636   4.067   5.561   1.426 -0.1952 -0.1785  0.1662
  104MOL   C17143637   4.102   5.679   1.326 -0.7434 -0.0864  0.1938
  104MOL   C17243638   4.226   5.652   1.239 -0.2157 -0.4110  0.1161
  104MOL   O17343639   4.337   5.668   1.286  0.3148 -0.4508 -0.5257
  104MOL   O17443640   4.191   5.628   1.113  0.0295  0.2407 -0.3345
  104MOL   C17543641   4.293   5.608   1.015  0.3837 -0.8002 -0.1306
  104MOL   C17643642   4.254   5.678   0.889  0.0896 -1.0878  0.2982
  104MOL   C17743643   4.137   5.600   0.820  0.4726  0.7452  0.1852
  104MOL   C17843644   4.059   5.676   0.714  0.7619  0.4467 -0.4641
  104MOL   H17943645   4.158   5.527   1.475  0.7200  0.2486 -1.1951
  104MOL   H18043646   4.009   5.597   1.511  0.1488 -0.6787  0.6163
  104MOL   H18143647   4.134   5.750   1.403 -0.7276 -0.9902  1.0212
  104MOL   H18243648   4.292   5.500   0.998 -0.0475 -0.7507 -0.4343
  104MOL   H18343649   4.391   5.641   1.051  0.1461  0.8479 -0.9275
  104MOL   H18443650   4.245   5.785   0.910  0.9696 -0.8958 -0.2965
  104MOL   H18543651   4.338   5.674   0.820  0.1369 -1.6765  0.3899
  104MOL   H18643652   4.063   5.575   0.896 -1.8338  1.4311 -1.7600
  104MOL   H18743653   4.155   5.501   0.779  1.2527  0.3745  1.4119
  104MOL   H18843654   3.967   5.620   0.695  1.0195  0.3263 -1.3754
  104MOL   H18943655   4.115   5.690   0.622  0.1078  1.3654 -0.7330
  104MOL   H19043656   4.035   5.777   0.748 -0.3109 -0.4064  1.4324
  104MOL   C19143657   3.987   5.758   1.255 -1.0003  0.1084  0.2253
  104MOL   C19243658   4.016   5.886   1.183 -0.1187  0.4688 -0.0741
  104MOL   C19343659   3.883   5.929   1.124 -0.2423 -0.2062  0.2120
  104MOL   O19443660   3.819   6.025   1.159  0.3474  0.6667  0.3632
  104MOL   O19543661   3.845   5.846   1.027 -0.7666  0.3267  0.0589
  104MOL   C19643662   3.712   5.861   0.970 -0.4870  0.3913  0.0045
  104MOL   C19743663   3.691   5.756   0.856  0.3796 -0.1033 -0.0390
  104MOL   C19843664   3.702   5.612   0.907 -0.0130 -0.4823 -0.2375
  104MOL   C19943665   3.691   5.512   0.796  0.2493 -0.2552  0.0849
  104MOL   H20043666   3.926   5.792   1.339  0.2953 -0.5310  1.4483
  104MOL   H20143667   3.926   5.692   1.194 -1.8823  1.0599  0.0611
  104MOL   H20243668   4.077   5.853   1.099 -0.9682  0.7535 -0.8060
  104MOL   H20343669   3.700   5.960   0.927  1.2085  0.5977 -0.0557
  104MOL   H20443670   3.646   5.839   1.053 -0.7221  1.3298  0.0675
  104MOL   H20543671   3.595   5.785   0.814 -1.0154  0.3527  3.3077
  104MOL   H20643672   3.761   5.775   0.774  0.5550 -1.3643 -0.1925
  104MOL   H20743673   3.640   5.582   0.991  1.5791 -2.0030  0.4284
  104MOL   H20843674   3.803   5.580   0.935 -0.0609 -1.3964 -1.0762
  104MOL   H20943675   3.757   5.555   0.720  0.5659  2.6034  1.9097
  104MOL   H21043676   3.591   5.495   0.755 -0.0604  0.7023  0.4258
  104MOL   H21143677   3.727   5.418   0.838  0.3851 -0.1851  0.1271
  104MOL   C21243678   4.087   5.997   1.264  0.1212  0.2199  0.4099
  104MOL   C21343679   4.248   5.999   1.250  0.4231  0.0303  0.2049
  104MOL   C21443680   4.300   6.031   1.106  0.7887  0.0897 -0.4303
  104MOL   O21543681   4.383   5.960   1.060  0.3913  0.5465  0.3433
  104MOL   O21643682   4.251   6.147   1.047  0.1678  0.0527 -0.2972
  104MOL   C21743683   4.289   6.178   0.915 -0.3352 -0.6504 -0.1244
  104MOL   C21843684   4.405   6.285   0.907 -0.0209  0.2365 -0.4751
  104MOL   C21943685   4.359   6.418   0.965 -0.5686  0.1759 -0.2866
  104MOL   C22043686   4.474   6.523   0.942  0.4922 -0.4648 -0.4457
  104MOL   H22143687   4.056   5.982   1.368 -0.4294  1.1132  0.3764
  104MOL   H22243688   4.037   6.088   1.232  0.6299  0.8758  1.4519
  104MOL   H22343689   4.288   5.906   1.291 -0.8203  0.0468  1.5016
  104MOL   H22443690   4.205   6.227   0.866  0.2704 -1.7067 -2.2962
  104MOL   H22543691   4.323   6.084   0.870  1.4217  0.8193 -1.9551
  104MOL   H22643692   4.493   6.261   0.967  0.3177 -1.7169 -1.6962
  104MOL   H22743693   4.444   6.292   0.806  0.8902  1.8132 -0.0344
  104MOL   H22843694   4.343   6.414   1.073 -0.8165  0.3205 -0.3167
  104MOL   H22943695   4.265   6.449   0.918 -1.8392 -3.6083 -0.4049
  104MOL   H23043696   4.560   6.492   1.001 -0.4980 -3.2223 -0.3657
  104MOL   H23143697   4.439   6.619   0.980  0.4587 -0.6229 -0.0771
  104MOL   H23243698   4.511   6.519   0.840  0.3130 -0.9712 -0.4947
  104MOL   C23343699   4.307   6.113   1.343 -0.2043 -0.6666 -0.0857
  104MOL   C23443700   4.292   6.096   1.498  0.7711  0.4272 -0.0847
  104MOL   C23543701   4.329   5.959   1.553  0.7589  0.1462  0.4720
  104MOL   O23643702   4.254   5.875   1.596  0.5814 -0.0243 -0.0131
  104MOL   O23743703   4.464   5.942   1.552 -0.6990  0.0956  0.0040
  104MOL   C23843704   4.530   5.825   1.603  1.0626 -0.1732  0.2175
  104MOL   C23943705   4.671   5.815   1.545 -0.4056  0.8272 -0.3342
  104MOL   C24043706   4.677   5.775   1.398 -0.4241 -0.1897 -0.7424
  104MOL   C24143707   4.645   5.892   1.295  0.4796  0.3582  0.9503
  104MOL   H24243708   4.237   6.196   1.329 -2.4845 -2.2936  1.1458
  104MOL   H24343709   4.412   6.124   1.318 -0.2412  1.6185  0.5914
  104MOL   H24443710   4.187   6.110   1.524  0.6318 -0.6044 -0.0580
  104MOL   H24543711   4.464   5.740   1.584 -0.3376  0.5864  1.5784
  104MOL   H24643712   4.535   5.837   1.711  0.1669 -0.3809  0.2843
  104MOL   H24743713   4.725   5.909   1.553  1.8056 -0.5375  1.1094
  104MOL   H24843714   4.728   5.746   1.607 -0.1449  1.5575  0.2518
  104MOL   H24943715   4.616   5.686   1.383  2.2725 -2.3070  0.6235
  104MOL   H25043716   4.778   5.740   1.375 -0.3655 -0.8629  0.5074
  104MOL   H25143717   4.644   5.864   1.189  0.7454 -0.5156  1.1782
  104MOL   H25243718   4.704   5.982   1.310  0.3051  0.9286 -1.5688
  104MOL   H25343719   4.544   5.931   1.312  0.8640  0.3660  3.3118
  104MOL   C25443720   4.375   6.204   1.568  0.2654  0.1456 -0.4194
  104MOL   C25543721   4.345   6.237   1.720  0.9336 -0.3166 -0.5526
  104MOL   C25643722   4.212   6.301   1.738  0.2168 -0.2109 -0.0873
  104MOL   O25743723   4.195   6.423   1.726 -0.0141  0.8586 -0.1082
  104MOL   O25843724   4.106   6.221   1.753  0.5435 -0.2676  0.0545
  104MOL   C25943725   3.968   6.262   1.734  0.6056  0.1642  0.1690
  104MOL   C26043726   3.871   6.141   1.731 -0.1570  0.1128  0.3089
  104MOL   C26143727   3.886   6.038   1.617  0.0736 -0.2986 -0.3387
  104MOL   C26243728   3.780   5.925   1.605 -0.0950  0.2487 -0.3484
  104MOL   H26343729   4.367   6.302   1.521  1.1876  0.9949  1.1565
  104MOL   H26443730   4.482   6.185   1.560  0.1514 -0.5290 -0.3977
  104MOL   H26543731   4.414   6.321   1.731 -1.6313  2.0548 -1.7863
  104MOL   H26643732   3.945   6.333   1.654  1.7450  0.0837 -0.2495
  104MOL   H26743733   3.936   6.314   1.824 -2.3356  0.5304 -1.0209
  104MOL   H26843734   3.860   6.097   1.830 -0.9336 -1.7357 -0.5755
  104MOL   H26943735   3.775   6.189   1.710  0.0209  0.7489  0.9146
  104MOL   H27043736   3.982   5.989   1.636  0.2929 -0.2773 -1.3494
  104MOL   H27143737   3.898   6.084   1.519  0.5769  1.3660  0.4866
  104MOL   H27243738   3.817   5.846   1.540 -0.4306  0.6520 -1.0368
  104MOL   H27343739   3.682   5.961   1.574 -0.0842  0.5909  0.0091
  104MOL   H27443740   3.756   5.890   1.705 -2.0187 -0.0338 -0.8931
  104MOL   C27543741   4.387   6.130   1.823  0.4527  0.3326 -0.1132
  104MOL   C27643742   4.389   6.175   1.970  0.7737  0.3597 -0.0844
  104MOL   C27743743   4.405   6.055   2.072  0.6256 -0.2298  0.0165
  104MOL   O27843744   4.459   5.950   2.048 -0.7292 -0.0287 -0.1467
  104MOL   O27943745   4.349   6.081   2.193  0.3063  0.5441  0.0863
  104MOL   C28043746   4.328   5.977   2.284  0.1872  0.0243  0.1745
  104MOL   C28143747   4.212   5.880   2.250 -0.0075 -0.6349 -0.5559
  104MOL   C28243748   4.193   5.781   2.361  0.2246 -0.4758 -0.0442
  104MOL   C28343749   4.111   5.658   2.312  0.4206 -0.2490  0.1819
  104MOL   H28443750   4.490   6.103   1.799  0.7632  1.2786  0.1295
  104MOL   H28543751   4.323   6.043   1.815 -0.5935  1.2130 -1.5738
  104MOL   H28643752   4.290   6.213   1.995  0.7877 -0.7296  1.6721
  104MOL   H28743753   4.304   6.033   2.375  2.1348 -1.2509  1.5084
  104MOL   H28843754   4.419   5.920   2.304 -0.5086 -2.3373 -3.0069
  104MOL   H28943755   4.125   5.945   2.243  2.6438  3.0142 -1.5827
  104MOL   H29043756   4.246   5.830   2.159  1.0272 -1.3881  0.2264
  104MOL   H29143757   4.153   5.836   2.446  0.8036  1.8706 -1.2357
  104MOL   H29243758   4.291   5.748   2.394  1.9561  2.9895 -1.4407
  104MOL   H29343759   4.135   5.599   2.224 -2.4485 -0.0193 -0.7924
  104MOL   H29443760   4.015   5.700   2.285 -0.0211 -1.5321 -0.2818
  104MOL   H29543761   4.095   5.590   2.395 -2.6141 -0.9552 -0.9260
  104MOL   C29643762   4.475   6.294   2.002 -0.1580  0.9018  0.4104
  104MOL   C29743763   4.627   6.280   1.971 -0.1219  0.1221 -0.0524
  104MOL   C29843764   4.672   6.328   1.828  0.8770 -0.4204 -0.4269
  104MOL   O29943765   4.710   6.249   1.743 -0.3708  0.0020 -0.3917
  104MOL   O30043766   4.659   6.470   1.811 -0.5995 -0.1864  0.1984
  104MOL   C30143767   4.685   6.536   1.686  0.4820 -0.4662  0.3408
  104MOL   C30243768   4.581   6.504   1.568  0.0037 -0.3369  0.0987
  104MOL   C30343769   4.587   6.589   1.436  0.0053  0.1666  0.4062
  104MOL   C30443770   4.480   6.565   1.325 -0.3372  0.3718 -0.2203
  104MOL   H30543771   4.449   6.336   2.099 -3.4959  2.6432 -1.1333
  104MOL   H30643772   4.433   6.375   1.941 -1.3295  1.1330  1.5006
  104MOL   H30743773   4.660   6.176   1.975  2.2898  0.9047  1.2794
  104MOL   H30843774   4.788   6.516   1.660  0.2218  0.8662 -1.8348
  104MOL   H30943775   4.684   6.642   1.709 -2.9893 -0.0067 -1.5878
  104MOL   H31043776   4.586   6.397   1.550  1.4919 -0.7713  2.7856
  104MOL   H31143777   4.492   6.520   1.629  0.1133 -0.1129  0.2016
  104MOL   H31243778   4.688   6.575   1.398  0.8371 -0.3633  2.6784
  104MOL   H31343779   4.577   6.692   1.471 -0.2531  0.6841 -1.1835
  104MOL   H31443780   4.507   6.630   1.242 -2.2828  1.8510  0.2650
  104MOL   H31543781   4.377   6.585   1.355 -0.8827 -1.1261 -1.0501
  104MOL   H31643782   4.487   6.462   1.291  0.5986 -0.5679  2.6954
  104MOL   C31743783   4.704   6.349   2.085 -0.2204 -0.0184  0.2183
  104MOL   C31843784   4.695   6.287   2.230 -0.2260 -0.0115 -0.2724
  104MOL   C31943785   4.834   6.264   2.284  0.4494  0.4384  0.6018
  104MOL   O32043786   4.893   6.352   2.352 -0.1285  0.4211  0.3968
  104MOL   O32143787   4.889   6.153   2.230  0.2701 -0.1986 -0.1514
  104MOL   C32243788   5.026   6.122   2.262 -1.0544 -0.0758 -1.2562
  104MOL   C32343789   5.144   6.189   2.176 -0.2730 -0.3065  0.4779
  104MOL   C32443790   5.289   6.160   2.231  0.2533 -0.1014  0.0139
  104MOL   C32543791   5.403   6.244   2.180 -0.4771  0.2862 -0.0160
  104MOL   H32643792   4.665   6.451   2.087  0.1760  0.1872 -1.8695
  104MOL   H32743793   4.808   6.360   2.053 -0.5913 -1.5385 -1.6248
  104MOL   H32843794   4.646   6.190   2.227 -0.9819  0.1588  3.6166
  104MOL   H32943795   5.044   6.019   2.234 -2.1277 -0.7708  0.5527
  104MOL   H33043796   5.048   6.117   2.369  1.9335  0.9289 -1.7930
  104MOL   H33143797   5.129   6.158   2.073 -0.2097 -0.7375  0.5961
  104MOL   H33243798   5.123   6.295   2.171 -0.2652 -0.3971 -1.9894
  104MOL   H33343799   5.302   6.052   2.222 -2.2471 -0.2639 -2.4704
  104MOL   H33443800   5.285   6.178   2.338 -0.1728 -3.5858  0.6338
  104MOL   H33543801   5.478   6.257   2.257 -0.5334  3.0182 -0.4016
  104MOL   H33643802   5.383   6.344   2.143  0.2674  0.3339 -0.2929
  104MOL   H33743803   5.455   6.182   2.106 -0.9084 -1.0977  0.8329
  104MOL   C33843804   4.613   6.384   2.323 -0.2320  0.0264 -0.3639
  104MOL   C33943805   4.580   6.333   2.465  0.8229  0.7818 -0.2530
  104MOL   C34043806   4.569   6.451   2.562  0.4178 -0.3152  0.1397
  104MOL   O34143807   4.491   6.543   2.533 -0.7071  0.8128  1.1528
  104MOL   O34243808   4.618   6.432   2.686  0.1911 -0.0726 -0.4476
  104MOL   C34343809   4.607   6.529   2.784 -0.0846  0.6871 -0.1861
  104MOL   C34443810   4.611   6.446   2.913  0.2631  0.7888  0.4075
  104MOL   C34543811   4.481   6.405   2.974  0.0562 -0.3535  0.2569
  104MOL   C34643812   4.480   6.269   3.039 -0.4236  0.1721 -0.0170
  104MOL   H34743813   4.515   6.402   2.278  1.7099 -2.0804 -5.8663
  104MOL   H34843814   4.668   6.476   2.335 -0.2038 -0.3010  2.1802
  104MOL   H34943815   4.673   6.288   2.501  1.2345  3.2017  1.8328
  104MOL   H35043816   4.519   6.591   2.765 -0.3150  0.0293 -1.3503
  104MOL   H35143817   4.695   6.592   2.775  0.7628 -0.4717 -0.0867
  104MOL   H35243818   4.678   6.361   2.903 -0.4433  0.2242  0.4672
  104MOL   H35343819   4.658   6.508   2.989  0.6856  0.1281  0.6894
  104MOL   H35443820   4.418   6.396   2.885  1.2071  2.8003 -0.9435
  104MOL   H35543821   4.436   6.484   3.033  2.5529  1.7220 -0.5261
  104MOL   H35643822   4.561   6.263   3.111  0.2878 -0.5593 -0.8633
  104MOL   H35743823   4.500   6.182   2.975 -2.8552 -0.1749 -0.3806
  104MOL   H35843824   4.390   6.241   3.094  0.5734  0.2588  1.7076
  104MOL   C35943825   4.461   6.235   2.476  0.4353  0.0407  0.1334
  104MOL   C36043826   4.449   6.147   2.603 -0.0237 -0.7591 -0.4742
  104MOL   C36143827   4.302   6.126   2.648  0.4447 -0.5713  0.4655
  104MOL   O36243828   4.245   6.018   2.618 -0.3190 -0.0857 -0.7732
  104MOL   O36343829   4.247   6.238   2.711 -0.4753 -0.0970  0.0988
  104MOL   C36443830   4.105   6.252   2.716  0.1866  0.1608  0.6421
  104MOL   C36543831   4.061   6.169   2.841 -0.2645 -0.4132  0.4109
  104MOL   C36643832   4.098   6.230   2.968 -0.4664 -0.6474 -0.2005
  104MOL   C36743833   4.053   6.165   3.099  0.3748 -0.5865  0.6120
  104MOL   H36843834   4.465   6.176   2.384 -3.8775 -0.5791  0.2128
  104MOL   H36943835   4.376   6.302   2.462  0.5836  0.0449 -0.8086
  104MOL   H37043836   4.483   6.216   2.681  0.0640 -2.0752  0.6717
  104MOL   H37143837   4.055   6.215   2.627  0.0621  0.0017  0.7790
  104MOL   H37243838   4.085   6.359   2.729  0.9410  0.3046  0.6670
  104MOL   H37343839   3.952   6.163   2.841 -0.1824 -2.0387 -0.1124
  104MOL   H37443840   4.097   6.067   2.836  0.5987  0.0213 -3.6002
  104MOL   H37543841   4.060   6.332   2.972 -1.7991 -1.1236 -0.7374
  104MOL   H37643842   4.206   6.246   2.970 -0.1560 -2.5458 -0.9071
  104MOL   H37743843   4.069   6.240   3.177 -0.2490  0.5880 -0.3828
  104MOL   H37843844   4.120   6.085   3.130  1.3935  0.7352  1.9334
  104MOL   H37943845   3.950   6.131   3.109  0.5534 -2.0600 -2.0107
  104MOL   C38043846   4.529   6.016   2.610 -0.4754 -0.6351  0.3884
  104MOL   C38143847   4.685   6.033   2.582  0.0550  0.4600  0.0480
  104MOL   C38243848   4.760   6.101   2.696  0.5093 -0.4207 -0.0906
  104MOL   O38343849   4.711   6.101   2.812 -0.2067  0.1005  0.1428
  104MOL   O38443850   4.858   6.180   2.653 -0.2281 -0.6181 -0.0837
  104MOL   C38543851   4.926   6.264   2.754  0.4624  0.6798  0.1591
  104MOL   C38643852   5.030   6.350   2.687 -0.3155  0.2679  0.5183
  104MOL   C38743853   5.147   6.264   2.655  0.2986  0.6730  0.0126
  104MOL   C38843854   5.257   6.352   2.594  0.3061  0.3327  0.7253
  104MOL   H38943855   4.486   5.952   2.533  0.5992 -0.6708 -0.2040
  104MOL   H39043856   4.520   5.963   2.705 -1.6700  1.8534  1.7155
  104MOL   H39143857   4.693   6.084   2.486  0.5786  0.7018  0.2181
  104MOL   H39243858   4.973   6.207   2.834  0.8570  1.4769  0.4973
  104MOL   H39343859   4.854   6.329   2.805  0.5512 -0.3780  1.7035
  104MOL   H39443860   4.980   6.413   2.613 -2.0125  0.1494  1.5544
  104MOL   H39543861   5.073   6.422   2.757 -0.8006  0.9243  0.1531
  104MOL   H39643862   5.126   6.182   2.587  3.9392 -0.3780  0.0809
  104MOL   H39743863   5.184   6.218   2.747  2.5740 -0.8263 -1.6040
  104MOL   H39843864   5.265   6.452   2.637 -0.2434  1.6637 -2.1369
  104MOL   H39943865   5.238   6.363   2.488 -0.0328 -1.8402  0.5469
  104MOL   H40043866   5.351   6.300   2.616 -0.1947 -0.2936  1.3857
  104MOL   C40143867   4.752   5.899   2.536 -0.3080  0.1566  0.1530
  104MOL   C40243868   4.689   5.828   2.412 -0.0168  0.1755 -0.3592
  104MOL   C40343869   4.799   5.785   2.319  1.1903 -0.7112 -0.1655
  104MOL   O40443870   4.908   5.740   2.358  0.0508 -0.5768  0.8844
  104MOL   O40543871   4.763   5.803   2.191  0.0501 -0.2483 -0.4800
  104MOL   C40643872   4.855   5.791   2.078 -0.3440 -0.0748 -0.2775
  104MOL   C40743873   4.845   5.917   1.984 -1.2080 -0.2354 -0.0770
  104MOL   C40843874   4.894   5.911   1.842 -0.0889 -0.5537  0.2781
  104MOL   C40943875   5.048   5.947   1.832  0.2997  0.7093  0.6240
  104MOL   H41043876   4.773   5.830   2.617 -0.0271 -0.2824 -0.2855
  104MOL   H41143877   4.847   5.934   2.494  1.3000 -3.8627  0.2847
  104MOL   H41243878   4.618   5.897   2.365 -0.4612 -0.1503 -0.1652
  104MOL   H41343879   4.828   5.703   2.020  3.8844 -1.5383 -0.2135
  104MOL   H41443880   4.957   5.780   2.114 -0.3449  0.5070 -0.0907
  104MOL   H41543881   4.743   5.953   1.991 -1.3877 -0.4324 -1.6202
  104MOL   H41643882   4.895   6.002   2.031  0.8320 -1.3055 -0.2509
  104MOL   H41743883   4.854   5.989   1.778 -0.1531 -1.6778 -1.0724
  104MOL   H41843884   4.869   5.815   1.798 -0.8842 -0.4888  0.5784
  104MOL   H41943885   5.053   6.043   1.882 -0.8692 -0.3202  2.7702
  104MOL   H42043886   5.080   5.972   1.731 -1.0826 -0.2269 -0.0737
  104MOL   H42143887   5.114   5.864   1.857  1.9426  1.7785 -0.0723
  104MOL   H42243888   4.631   5.741   2.440 -2.2650  1.7298 -0.0538
  105MOL     C143889   3.255   3.561   1.710 -0.1994 -0.1540 -0.1901
  105MOL     C243890   3.323   3.660   1.610  0.1146 -0.4221  0.5667
  105MOL     C343891   3.444   3.595   1.559  0.0129  0.3900  0.4257
  105MOL     O443892   3.547   3.592   1.620 -0.1091  0.0936 -0.2793
  105MOL     O543893   3.431   3.525   1.437 -0.0894  0.1603  0.6651
  105MOL     C643894   3.537   3.437   1.391 -0.6460 -0.6025  0.8068
  105MOL     C743895   3.557   3.303   1.469  0.3491  0.2364 -0.1271
  105MOL     C843896   3.430   3.226   1.498 -0.0543  0.4704 -0.1608
  105MOL     C943897   3.442   3.092   1.566  0.0663  0.0698 -0.1879
  105MOL    H1043898   3.185   3.624   1.765 -1.8895 -0.4779 -1.8688
  105MOL    H1143899   3.198   3.487   1.652 -1.0823  1.7208 -1.7693
  105MOL    H1243900   3.363   3.742   1.671  0.7798 -0.2831 -0.0516
  105MOL    H1343901   3.630   3.494   1.386 -0.5724 -0.6588  1.5711
  105MOL    H1443902   3.516   3.401   1.290 -1.2750  0.0539  0.7050
  105MOL    H1543903   3.641   3.240   1.441 -0.8251 -1.6044  0.4019
  105MOL    H1643904   3.587   3.335   1.569  1.0318 -0.0220 -0.2514
  105MOL    H1743905   3.385   3.211   1.400  1.8877  0.8969 -1.1440
  105MOL    H1843906   3.354   3.293   1.538 -0.3504  1.9529 -3.0401
  105MOL    H1943907   3.484   3.008   1.510 -0.0844 -0.1447  0.0158
  105MOL    H2043908   3.346   3.053   1.601 -1.0091  3.1627  0.4100
  105MOL    H2143909   3.502   3.100   1.656 -0.3806 -3.1450  0.4770
  105MOL    H2243910   3.330   3.509   1.769  0.9986 -1.4660 -2.7715
  105MOL    C2343911   3.218   3.712   1.518 -1.2540  0.7566  0.6312
  105MOL    C2443912   3.283   3.819   1.423  0.3992 -0.4137 -0.7385
  105MOL    C2543913   3.187   3.852   1.318 -0.7919  0.5197  0.0440
  105MOL    O2643914   3.225   3.841   1.204  0.2851  0.0269 -0.1363
  105MOL    O2743915   3.062   3.899   1.360 -0.2721 -0.1780  1.2470
  105MOL    C2843916   2.971   3.952   1.261  0.2110 -0.0090 -0.2480
  105MOL    C2943917   2.837   3.868   1.253 -0.4765 -0.0433  0.0409
  105MOL    C3043918   2.871   3.736   1.177  0.0605  1.0457  0.2286
  105MOL    C3143919   2.741   3.652   1.163  0.0962  0.1707 -0.2917
  105MOL    H3243920   3.126   3.747   1.564  0.0918  0.7663  3.4485
  105MOL    H3343921   3.182   3.627   1.461  0.2956  0.0546  0.6702
  105MOL    H3443922   3.377   3.779   1.385  0.4860  1.3262 -2.4052
  105MOL    H3543923   3.006   3.955   1.158 -1.7943  1.4374 -0.9362
  105MOL    H3643924   2.955   4.058   1.283  2.5799 -0.0709  1.9921
  105MOL    H3743925   2.806   3.848   1.355  0.4941  2.0619  0.7792
  105MOL    H3843926   2.758   3.922   1.202 -0.4561  0.4717  0.5556
  105MOL    H3943927   2.939   3.670   1.231  0.3381  2.7104  1.9308
  105MOL    H4043928   2.918   3.749   1.079  0.7401 -0.8726  0.2815
  105MOL    H4143929   2.737   3.598   1.068  1.0432 -1.2206  0.4431
  105MOL    H4243930   2.657   3.719   1.178  0.2154  0.1830  0.3219
  105MOL    H4343931   2.729   3.587   1.249 -1.0054  1.5948  0.6527
  105MOL    C4443932   3.330   3.954   1.497  0.2542  0.7807 -0.3636
  105MOL    C4543933   3.392   4.069   1.404 -0.1267 -0.3378 -0.7604
  105MOL    C4643934   3.412   4.196   1.497  0.3378  0.8741 -0.1215
  105MOL    O4743935   3.455   4.185   1.609  0.1385 -0.3840  0.2451
  105MOL    O4843936   3.370   4.315   1.445 -0.5246  0.0404  0.2596
  105MOL    C4943937   3.405   4.441   1.497  0.2975  0.1640  0.1797
  105MOL    C5043938   3.501   4.511   1.395 -0.0213  0.0519  0.6735
  105MOL    C5143939   3.415   4.549   1.272 -0.3896  0.9715 -0.0866
  105MOL    C5243940   3.502   4.593   1.160 -0.2694 -0.7733 -0.3440
  105MOL    H5343941   3.412   3.917   1.560  0.0154  0.5809 -0.1706
  105MOL    H5443942   3.254   3.989   1.566  0.9648  2.8283 -0.5858
  105MOL    H5543943   3.311   4.095   1.337 -0.2671 -1.4849 -1.0497
  105MOL    H5643944   3.457   4.432   1.592  1.1587  0.0664 -0.2964
  105MOL    H5743945   3.315   4.501   1.512  2.2174  2.7437  2.0787
  105MOL    H5843946   3.542   4.605   1.432 -1.0520  0.4397  0.8466
  105MOL    H5943947   3.590   4.450   1.385 -0.4815 -0.7790  1.5074
  105MOL    H6043948   3.337   4.617   1.307  0.1142  1.7138 -0.3962
  105MOL    H6143949   3.357   4.461   1.244  1.4303 -0.6695  1.0960
  105MOL    H6243950   3.436   4.605   1.075  0.5844 -1.4537 -1.1110
  105MOL    H6343951   3.586   4.525   1.145  0.2579 -0.1618 -0.1921
  105MOL    H6443952   3.542   4.690   1.191 -0.5484 -1.1408  1.2229
  105MOL    C6543953   3.518   4.041   1.329  0.6001  0.1146  0.1937
  105MOL    C6643954   3.543   4.142   1.214  0.3057  0.5098 -0.6666
  105MOL    C6743955   3.693   4.191   1.185 -0.0701 -0.6357 -0.4228
  105MOL    O6843956   3.724   4.314   1.190 -0.0644  0.5853 -0.2109
  105MOL    O6943957   3.777   4.092   1.162  0.0090 -0.6698  0.6953
  105MOL    C7043958   3.918   4.112   1.132  0.1925 -0.1907 -0.7420
  105MOL    C7143959   3.997   4.153   1.261  0.7121 -0.8891  0.5164
  105MOL    C7243960   3.972   4.059   1.379 -0.3486 -0.3746 -0.1397
  105MOL    C7343961   4.049   4.111   1.500  0.2177 -0.2414 -0.5531
  105MOL    H7443962   3.517   3.937   1.296  1.0620 -0.0053  0.5397
  105MOL    H7543963   3.607   4.029   1.391  1.1728  1.1228 -0.4216
  105MOL    H7643964   3.491   4.235   1.238  0.4028  0.6222 -0.8933
  105MOL    H7743965   3.938   4.188   1.056  2.2856  1.1440  1.0936
  105MOL    H7843966   3.961   4.015   1.106  0.7893  0.2452 -1.3958
  105MOL    H7943967   4.100   4.150   1.227  0.3137  3.5782 -1.3299
  105MOL    H8043968   3.966   4.254   1.288 -0.8099 -1.8603  2.6222
  105MOL    H8143969   3.984   3.951   1.363  0.9528  0.0426 -2.2190
  105MOL    H8243970   3.864   4.064   1.394 -0.6092 -0.7708 -1.6795
  105MOL    H8343971   4.048   4.220   1.502  0.7750 -0.2280 -0.6664
  105MOL    H8443972   4.152   4.075   1.494  0.3033 -0.0132 -0.4720
  105MOL    H8543973   4.011   4.076   1.596  0.5870 -0.2977 -0.4260
  105MOL    C8643974   3.479   4.078   1.086  0.1720  0.1783  0.2912
  105MOL    C8743975   3.441   4.174   0.972  0.0361  0.7090 -0.2270
  105MOL    C8843976   3.439   4.114   0.830  0.0372 -0.4330 -0.1162
  105MOL    O8943977   3.515   4.167   0.748  0.3022 -0.6444 -0.6422
  105MOL    O9043978   3.358   4.012   0.815  0.6156  0.1945 -0.2762
  105MOL    C9143979   3.356   3.935   0.696  0.4097 -0.2268 -0.0841
  105MOL    C9243980   3.271   4.010   0.588 -0.4855 -0.3432 -0.2096
  105MOL    C9343981   3.307   3.953   0.449  0.6776 -0.1959  0.1064
  105MOL    C9443982   3.230   3.826   0.418 -0.0927  0.8589  0.1818
  105MOL    H9543983   3.398   4.008   1.106  1.6483 -2.4608 -2.4904
  105MOL    H9643984   3.561   4.018   1.045  1.0554  1.8602 -0.4433
  105MOL    H9743985   3.524   4.244   0.974  0.6223  0.0228 -0.4661
  105MOL    H9843986   3.305   3.839   0.703  1.7185 -0.9330  0.0442
  105MOL    H9943987   3.461   3.927   0.667  0.4453 -0.4400  0.1004
  105MOL   H10043988   3.165   4.001   0.610 -0.7206  0.2292 -1.0821
  105MOL   H10143989   3.290   4.117   0.601 -0.6724 -0.5827  2.4246
  105MOL   H10243990   3.415   3.942   0.440  0.8673  1.0250  0.7205
  105MOL   H10343991   3.288   4.030   0.374  1.3357 -1.7891 -1.7279
  105MOL   H10443992   3.259   3.749   0.489 -0.3765 -0.7200 -1.3906
  105MOL   H10543993   3.244   3.784   0.318 -2.6619 -0.9952  0.5626
  105MOL   H10643994   3.121   3.826   0.419 -0.0989  1.2437 -0.2021
  105MOL   C10743995   3.299   4.229   1.010  0.4897 -0.1607 -0.1700
  105MOL   C10843996   3.223   4.292   0.888 -0.4125 -0.5516 -0.3877
  105MOL   C10943997   3.070   4.309   0.921 -0.0932  0.0201  0.4058
  105MOL   O11043998   2.987   4.232   0.868  0.3028  0.5946 -0.1828
  105MOL   O11143999   3.046   4.403   1.015  0.3853  0.1198 -0.2878
  105MOL   C11244000   2.919   4.434   1.051  0.5155 -0.1263  0.7685
  105MOL   C11344001   2.928   4.560   1.138 -0.3651 -0.3429  0.6502
  105MOL   C11444002   2.977   4.534   1.285  0.0150  0.3054 -0.2964
  105MOL   C11544003   3.007   4.662   1.357 -0.1302  0.1268 -0.1026
  105MOL   H11644004   3.305   4.295   1.096  0.1852 -0.4913  0.1025
  105MOL   H11744005   3.240   4.148   1.051  1.9294 -0.1514  2.0296
  105MOL   H11844006   3.226   4.237   0.794  0.9094  0.9927 -1.2826
  105MOL   H11944007   2.875   4.361   1.118  0.4208  0.8983  1.8329
  105MOL   H12044008   2.860   4.464   0.964  0.1805 -2.2610  0.2416
  105MOL   H12144009   2.988   4.635   1.086 -1.4972  0.6752  0.8037
  105MOL   H12244010   2.829   4.606   1.139 -0.8243 -1.3137  3.2058
  105MOL   H12344011   3.070   4.478   1.287 -0.3329 -0.2604  0.1875
  105MOL   H12444012   2.907   4.470   1.339  1.0939 -0.0351  0.7051
  105MOL   H12544013   2.914   4.718   1.349 -1.1054 -1.5300 -0.5917
  105MOL   H12644014   3.088   4.722   1.314  0.1064  0.5668  0.9458
  105MOL   H12744015   3.045   4.649   1.458 -1.1847 -1.4082  0.1011
  105MOL   C12844016   3.295   4.434   0.866 -0.1798  0.4586 -0.1577
  105MOL   C12944017   3.235   4.506   0.746 -0.0080 -0.2301  0.0600
  105MOL   C13044018   3.207   4.654   0.782 -0.4164 -0.1706  0.0318
  105MOL   O13144019   3.097   4.700   0.789 -0.2912 -0.5506  0.0455
  105MOL   O13244020   3.327   4.720   0.789  0.0839  0.0736 -0.0454
  105MOL   C13344021   3.320   4.861   0.804  0.0208  0.1990  0.4576
  105MOL   C13444022   3.460   4.917   0.846  0.2863 -0.2359  0.4574
  105MOL   C13544023   3.488   5.065   0.807 -0.0704 -0.3422 -0.0829
  105MOL   C13644024   3.637   5.107   0.809  0.6263  0.1597  0.4546
  105MOL   H13744025   3.401   4.438   0.843 -0.1197 -1.5368 -0.2695
  105MOL   H13844026   3.289   4.491   0.959 -1.4835 -0.8079  0.5502
  105MOL   H13944027   3.133   4.470   0.736 -0.0606 -0.2313  0.6091
  105MOL   H14044028   3.251   4.886   0.885  1.9629  2.9771  1.3063
  105MOL   H14144029   3.297   4.920   0.716  2.0621  0.5084  0.1219
  105MOL   H14244030   3.473   4.907   0.953  0.7206  1.9500  0.6416
  105MOL   H14344031   3.536   4.847   0.811 -0.6889 -1.6321  1.0945
  105MOL   H14444032   3.441   5.134   0.877 -0.5575 -0.2135 -0.5344
  105MOL   H14544033   3.449   5.075   0.705  0.5776  0.7011 -0.2419
  105MOL   H14644034   3.640   5.216   0.811 -1.2665  0.2300  0.8189
  105MOL   H14744035   3.686   5.072   0.718 -0.5501  0.0490 -0.1552
  105MOL   H14844036   3.692   5.064   0.892 -0.8845 -3.7128 -0.4202
  105MOL   C14944037   3.312   4.468   0.609  0.3699 -0.0579 -0.6152
  105MOL   C15044038   3.226   4.475   0.475 -0.4906  0.4667  0.4936
  105MOL   C15144039   3.126   4.357   0.455 -0.3461  0.2169 -0.2463
  105MOL   O15244040   3.123   4.298   0.352  0.1007  0.2741 -0.5573
  105MOL   O15344041   3.045   4.327   0.564  0.0569  0.0835 -0.5257
  105MOL   C15444042   2.915   4.266   0.536 -0.1790  0.5377  0.4990
  105MOL   C15544043   2.800   4.360   0.541 -0.1557 -0.4924 -0.4260
  105MOL   C15644044   2.784   4.414   0.691 -0.2600 -0.4285  0.0789
  105MOL   C15744045   2.690   4.535   0.700 -0.5990  0.2663 -0.0267
  105MOL   H15844046   3.355   4.368   0.602 -2.7940 -1.6566  1.7782
  105MOL   H15944047   3.403   4.528   0.596  0.1312  0.2168 -1.0440
  105MOL   H16044048   3.289   4.456   0.389 -1.4239 -1.9867  0.3238
  105MOL   H16144049   2.896   4.189   0.611  2.8973  1.2283  2.0709
  105MOL   H16244050   2.911   4.217   0.438  0.7574 -0.2355  0.8454
  105MOL   H16344051   2.818   4.453   0.486  0.6584  0.3224  1.1730
  105MOL   H16444052   2.706   4.313   0.513 -0.3061  0.3604 -1.4044
  105MOL   H16544053   2.884   4.435   0.730 -0.3324  0.3419 -0.1380
  105MOL   H16644054   2.739   4.333   0.748 -2.5574  0.5067 -0.3536
  105MOL   H16744055   2.753   4.616   0.738 -1.1315  0.5443  0.2705
  105MOL   H16844056   2.605   4.514   0.764 -0.2442  2.3804  1.1922
  105MOL   H16944057   2.660   4.570   0.601 -0.1795 -0.2119 -0.3237
  105MOL   C17044058   3.178   4.616   0.440  0.0357  0.5752 -0.5849
  105MOL   C17144059   3.111   4.631   0.303 -0.2363  0.1598 -0.6541
  105MOL   C17244060   2.960   4.656   0.308 -1.0749 -0.2409 -0.5250
  105MOL   O17344061   2.905   4.716   0.398  0.4859  0.6737 -0.0650
  105MOL   O17444062   2.900   4.605   0.201 -0.1230  0.1675 -0.4502
  105MOL   C17544063   2.756   4.588   0.208  0.0099 -0.2337  0.1045
  105MOL   C17644064   2.703   4.494   0.097 -0.3652 -0.2485 -0.4313
  105MOL   C17744065   2.699   4.345   0.131 -0.2436  0.0703 -0.5622
  105MOL   C17844066   2.618   4.268   0.032  0.0110 -0.2854 -0.0506
  105MOL   H17944067   3.266   4.680   0.441  1.3759 -1.2516  1.4600
  105MOL   H18044068   3.106   4.648   0.516  2.4635  3.4186  0.6049
  105MOL   H18144069   3.108   4.537   0.248 -0.8979 -0.3893  0.3113
  105MOL   H18244070   2.717   4.686   0.180  1.9786  0.3856 -0.5127
  105MOL   H18344071   2.720   4.566   0.309 -2.2671 -2.9583 -1.2210
  105MOL   H18444072   2.604   4.532   0.072 -0.4994 -0.9151 -0.9214
  105MOL   H18544073   2.751   4.516   0.002  1.1878 -0.0117  0.3854
  105MOL   H18644074   2.663   4.331   0.233 -0.6016  1.5105 -0.4872
  105MOL   H18744075   2.804   4.315   0.130 -0.4187 -0.5882  0.7145
  105MOL   H18844076   2.533   4.328   7.853 -1.2925 -1.0535  1.8219
  105MOL   H18944077   2.584   4.176   0.080  1.1616 -0.2214  0.9240
  105MOL   H19044078   2.678   4.246   7.797 -0.3759 -1.8330  0.0514
  105MOL   C19144079   3.171   4.732   0.210  0.0743 -0.2722  0.2047
  105MOL   C19244080   3.274   4.677   0.107 -0.2070  0.1092  0.0503
  105MOL   C19344081   3.201   4.582   0.006  0.8878  0.4186 -0.1086
  105MOL   O19444082   3.088   4.586   7.823 -0.2979 -0.4384 -0.0238
  105MOL   O19544083   3.282   4.488   7.833  0.0350  0.2135  0.5467
  105MOL   C19644084   3.244   4.371   7.760 -0.3065 -0.3592  0.1769
  105MOL   C19744085   3.336   4.254   7.797 -0.4029 -0.0654 -0.4006
  105MOL   C19844086   3.282   4.170   0.064  0.1981 -0.0526 -0.2821
  105MOL   C19944087   3.367   4.046   0.090 -0.0181 -0.2305 -0.4767
  105MOL   H20044088   3.230   4.811   0.257  1.2890 -1.0281 -0.0100
  105MOL   H20144089   3.089   4.788   0.165 -1.7723 -0.9002  2.6934
  105MOL   H20244090   3.343   4.613   0.162 -2.0173 -2.0249 -0.0764
  105MOL   H20344091   3.236   4.403   7.656 -0.3369 -1.3376 -0.1290
  105MOL   H20444092   3.141   4.337   7.773  0.1314 -1.2244  1.4913
  105MOL   H20544093   3.333   4.186   7.712 -0.5857 -1.9323  1.0661
  105MOL   H20644094   3.443   4.274   7.805 -0.6520  0.7083  1.0872
  105MOL   H20744095   3.188   4.121   0.039 -0.1693  0.9548 -0.9173
  105MOL   H20844096   3.266   4.230   0.153  0.9419  0.0332 -0.2052
  105MOL   H20944097   3.365   3.966   0.016  0.8992 -0.9145  0.2241
  105MOL   H21044098   3.319   3.996   0.173 -1.0673  2.8805  0.8888
  105MOL   H21144099   3.469   4.074   0.115 -0.4368 -0.2290  1.2807
  105MOL   C21244100   3.355   4.777   0.022  0.0112 -0.1489  0.3547
  105MOL   C21344101   3.465   4.732   7.786  0.1555 -0.2621 -0.0828
  105MOL   C21444102   3.516   4.848   7.695  0.5019 -0.4019 -0.2789
  105MOL   O21544103   3.477   4.864   7.577  0.1358  0.1251  0.5424
  105MOL   O21644104   3.604   4.929   7.763 -0.5221 -0.6475  0.0292
  105MOL   C21744105   3.661   5.038   7.689 -0.4409 -0.7010  0.5798
  105MOL   C21844106   3.733   5.141   7.781  0.4563  0.2632  0.0041
  105MOL   C21944107   3.851   5.086   0.002 -0.2992  0.3826  0.0151
  105MOL   C22044108   3.919   5.193   0.092 -0.7447  0.0400 -0.0216
  105MOL   H22144109   3.403   4.852   0.085 -0.4121  1.3934 -1.0848
  105MOL   H22244110   3.272   4.835   7.833  0.2414 -0.6790 -0.8536
  105MOL   H22344111   3.422   4.662   7.714  2.0905 -1.3369 -0.2314
  105MOL   H22444112   3.586   5.084   7.625  0.0020 -0.5161  0.1944
  105MOL   H22544113   3.723   4.994   7.611 -1.7441 -2.9006  0.7355
  105MOL   H22644114   3.770   5.215   7.710  0.2514  1.9843  1.6688
  105MOL   H22744115   3.665   5.191   7.849  0.2905 -0.8407  0.6598
  105MOL   H22844116   3.921   5.036   7.789  0.3659 -1.6332  2.1464
  105MOL   H22944117   3.817   5.006   0.068  3.4661  0.3880  2.1503
  105MOL   H23044118   3.960   5.274   0.032 -0.9317  0.3241  0.2338
  105MOL   H23144119   4.010   5.160   0.141 -1.6496 -2.6358 -0.0595
  105MOL   H23244120   3.848   5.229   0.166 -0.7510  1.5160 -0.7191
  105MOL   C23344121   3.582   4.657   0.005  0.1856 -0.2824  0.0991
  105MOL   C23444122   3.694   4.608   7.754  0.4759 -1.0952  0.6106
  105MOL   C23544123   3.835   4.636   7.807 -0.0439  0.3009  0.0774
  105MOL   O23644124   3.905   4.719   7.756  0.1048  0.1268  0.5467
  105MOL   O23744125   3.864   4.555   0.055 -0.3713 -0.0577  0.2884
  105MOL   C23844126   3.998   4.558   0.105 -0.1782  0.4240  0.6501
  105MOL   C23944127   4.013   4.462   0.221 -0.5597 -0.8196  0.5031
  105MOL   C24044128   4.148   4.386   0.234 -0.0012 -0.0825 -0.1804
  105MOL   C24144129   4.146   4.300   0.370  0.0186 -0.4414 -0.4515
  105MOL   H24244130   3.553   4.569   0.062 -1.0296  1.1950  1.7925
  105MOL   H24344131   3.621   4.732   0.075  1.9800 -0.9978 -0.1007
  105MOL   H24444132   3.680   4.667   7.663  0.9891 -0.5045  0.9101
  105MOL   H24544133   4.038   4.659   0.121  0.3500  0.4877 -1.0154
  105MOL   H24644134   4.055   4.504   0.030  1.1781  3.2865 -0.4590
  105MOL   H24744135   3.980   4.507   0.314 -1.3216 -0.1844 -0.0732
  105MOL   H24844136   3.935   4.389   0.201 -0.1963 -0.4190 -2.7160
  105MOL   H24944137   4.237   4.448   0.231 -1.2741  1.7597 -0.5654
  105MOL   H25044138   4.148   4.318   0.148 -1.6347  0.7546 -0.8727
  105MOL   H25144139   4.051   4.247   0.373  0.0473 -0.4126  1.8455
  105MOL   H25244140   4.148   4.362   0.459  1.2259 -2.4434  0.9494
  105MOL   H25344141   4.227   4.226   0.372  0.2890 -0.1369 -0.0148
  105MOL   C25444142   3.672   4.460   7.704  0.2227  0.1932 -0.0728
  105MOL   C25544143   3.759   4.404   7.581 -0.1554  0.3195  0.0392
  105MOL   C25644144   3.900   4.363   7.630  0.4757 -0.2084 -0.2022
  105MOL   O25744145   3.912   4.309   7.739  0.0344 -0.9300 -0.0010
  105MOL   O25844146   3.996   4.389   7.535  0.5071 -0.3213  0.2316
  105MOL   C25944147   4.128   4.346   7.557 -0.3067 -0.0694 -0.3468
  105MOL   C26044148   4.207   4.470   7.607 -0.7671 -0.6525 -0.4077
  105MOL   C26144149   4.357   4.435   7.627 -0.3688  0.6324 -0.0750
  105MOL   C26244150   4.438   4.551   7.679  0.1394 -0.0355  0.3174
  105MOL   H26344151   3.563   4.453   7.700  0.1282  1.7292 -0.8446
  105MOL   H26444152   3.687   4.398   7.792  0.7724  1.3470  0.6654
  105MOL   H26544153   3.780   4.489   7.516  0.1378  0.3033  0.1121
  105MOL   H26644154   4.165   4.298   7.466 -0.1044  0.6620 -0.6511
  105MOL   H26744155   4.142   4.269   7.633 -1.1953 -2.6206 -2.6615
  105MOL   H26844156   4.198   4.548   7.531  0.5778 -0.3420 -0.2685
  105MOL   H26944157   4.168   4.507   7.701  0.0175  1.1286 -0.7677
  105MOL   H27044158   4.401   4.394   7.536  0.5989  1.3273  0.0817
  105MOL   H27144159   4.360   4.351   7.696 -2.2144  2.0586  1.8055
  105MOL   H27244160   4.410   4.563   7.783  1.1723  0.9163  0.4912
  105MOL   H27344161   4.419   4.646   7.628 -0.4544 -0.6337 -0.6085
  105MOL   H27444162   4.547   4.543   7.680  0.3961  2.8362  0.0597
  105MOL   C27544163   3.694   4.291   7.510  0.3728  0.3423 -0.4070
  105MOL   C27644164   3.556   4.325   7.444  0.0665  0.2476  0.3452
  105MOL   C27744165   3.601   4.383   7.306 -0.6473  0.0240  0.4362
  105MOL   O27844166   3.577   4.322   7.200  0.5718  0.0215  0.4909
  105MOL   O27944167   3.654   4.509   7.318 -0.3045  0.3472  0.2227
  105MOL   C28044168   3.680   4.584   7.207 -0.0764  0.1240 -0.5607
  105MOL   C28144169   3.835   4.595   7.182  0.4128 -0.4989 -0.6810
  105MOL   C28244170   3.868   4.688   7.064 -0.0878  0.8635  0.0032
  105MOL   C28344171   4.006   4.667   7.005  1.1653  0.0886  0.0288
  105MOL   H28444172   3.697   4.211   7.584 -0.0162  0.4445 -0.2797
  105MOL   H28544173   3.756   4.244   7.433  0.6263  0.4863 -0.2894
  105MOL   H28644174   3.499   4.390   7.510 -0.4944  0.5643 -0.4333
  105MOL   H28744175   3.632   4.681   7.224 -0.9835 -0.7886  2.3337
  105MOL   H28844176   3.634   4.548   7.115 -2.8171  0.9188  0.4463
  105MOL   H28944177   3.881   4.628   7.275 -0.6178 -1.5904  0.2328
  105MOL   H29044178   3.882   4.497   7.173  1.7413  0.1397 -0.7825
  105MOL   H29144179   3.836   4.789   7.090 -1.8407 -0.0767  1.6624
  105MOL   H29244180   3.800   4.679   6.979 -0.2145  4.3944 -0.3701
  105MOL   H29344181   4.082   4.703   7.074  0.6630  0.9040  0.1739
  105MOL   H29444182   4.003   4.712   6.905 -0.0308 -3.0730 -1.4229
  105MOL   H29544183   4.036   4.564   6.989 -0.1360  0.0205 -2.2670
  105MOL   C29644184   3.477   4.195   7.411  0.1811 -0.1108  0.6560
  105MOL   C29744185   3.322   4.208   7.401  0.5511 -0.2896  0.2921
  105MOL   C29844186   3.285   4.297   7.277  0.3270 -0.4353 -0.2668
  105MOL   O29944187   3.270   4.252   7.162  0.0438 -0.3365  0.4257
  105MOL   O30044188   3.279   4.428   7.309  0.0331  0.1469 -0.5993
  105MOL   C30144189   3.258   4.529   7.213 -0.7278  0.1093 -1.0221
  105MOL   C30244190   3.268   4.665   7.284  0.1742  0.5230  0.2620
  105MOL   C30344191   3.158   4.682   7.394 -0.5681  0.1338  0.3404
  105MOL   C30444192   3.156   4.827   7.458 -0.0957  0.6590 -0.1684
  105MOL   H30544193   3.489   4.122   7.491 -0.1455 -1.6360 -0.6445
  105MOL   H30644194   3.513   4.136   7.326  2.7870 -0.7547  2.1389
  105MOL   H30744195   3.286   4.265   7.487 -0.2252 -0.4558  0.0785
  105MOL   H30844196   3.156   4.519   7.176 -1.1635  0.6378  0.0058
  105MOL   H30944197   3.320   4.525   7.124 -0.3858  0.1612 -0.7916
  105MOL   H31044198   3.364   4.658   7.336 -0.8672  3.5430  2.7604
  105MOL   H31144199   3.262   4.750   7.216 -2.1925  0.5052  0.4184
  105MOL   H31244200   3.162   4.614   7.479 -1.2685  0.6967  0.8360
  105MOL   H31344201   3.064   4.673   7.338  1.5252 -1.3607 -3.0918
  105MOL   H31444202   3.069   4.835   7.523 -1.7498 -2.6976 -1.8426
  105MOL   H31544203   3.147   4.896   7.374  1.0089  3.1977  1.7389
  105MOL   H31644204   3.252   4.851   7.503 -0.7007  0.1574  1.4005
  105MOL   C31744205   3.245   4.066   7.405  0.6839  0.0737 -0.2233
  105MOL   C31844206   3.091   4.045   7.412 -0.0887 -0.1131  0.1150
  105MOL   C31944207   3.037   4.145   7.518  0.5642 -0.0759  0.4652
  105MOL   O32044208   3.015   4.113   7.633  0.2415  0.3118 -0.3776
  105MOL   O32144209   3.012   4.266   7.463  0.2458 -0.8982 -0.6039
  105MOL   C32244210   2.945   4.364   7.542 -0.9545 -0.0476  0.1203
  105MOL   C32344211   2.863   4.457   7.452 -0.2801 -0.1480  0.4222
  105MOL   C32444212   2.763   4.554   7.521 -0.1033  1.2266  1.3601
  105MOL   C32544213   2.689   4.646   7.428 -0.2769  0.5345  0.0237
  105MOL   H32644214   3.285   4.022   7.497  0.0469 -2.8034 -1.2841
  105MOL   H32744215   3.295   4.002   7.333  1.9195  0.7441  0.0084
  105MOL   H32844216   3.068   3.949   7.458 -0.1458  0.6789  1.7606
  105MOL   H32944217   3.024   4.417   7.595  0.0707  1.0943 -2.4791
  105MOL   H33044218   2.885   4.310   7.614  2.0797 -3.2960  0.3619
  105MOL   H33144219   2.935   4.510   7.390  0.6767 -1.3274  0.5251
  105MOL   H33244220   2.803   4.397   7.383  2.3165 -0.5911 -1.5068
  105MOL   H33344221   2.823   4.608   7.594  0.4831  1.2698  0.8523
  105MOL   H33444222   2.691   4.492   7.574 -0.9265  0.9448 -0.0663
  105MOL   H33544223   2.762   4.692   7.361  0.5426 -0.9251 -0.1054
  105MOL   H33644224   2.648   4.730   7.485 -0.6075  0.0321  0.5258
  105MOL   H33744225   2.613   4.597   7.368 -0.8356  0.1485  1.0275
  105MOL   C33844226   3.024   4.036   7.274  0.1649  0.8148 -0.1447
  105MOL   C33944227   2.874   3.983   7.264 -0.3017 -0.2279 -0.3767
  105MOL   C34044228   2.873   3.828   7.283  0.1003 -0.6009  0.3189
  105MOL   O34144229   2.877   3.764   7.182 -0.5668  0.1404  0.3619
  105MOL   O34244230   2.881   3.779   7.412 -0.5969  0.1953 -0.3329
  105MOL   C34344231   2.868   3.638   7.431  0.0358  0.2636  0.0543
  105MOL   C34444232   2.912   3.606   7.571  0.0779  0.3447  0.8175
  105MOL   C34544233   2.878   3.466   7.618 -0.2219 -0.1656  0.1139
  105MOL   C34644234   2.893   3.448   7.771 -0.5171 -0.8158  0.2226
  105MOL   H34744235   3.080   3.970   7.208 -1.3575 -0.0320 -0.6135
  105MOL   H34844236   3.027   4.130   7.218  3.6040  0.6076 -0.4157
  105MOL   H34944237   2.859   3.990   7.157  3.6002 -1.3584 -1.0699
  105MOL   H35044238   2.923   3.569   7.367  1.1111  0.5662  0.6361
  105MOL   H35144239   2.762   3.615   7.421  0.7970 -2.9081 -1.1055
  105MOL   H35244240   3.019   3.626   7.571  0.1163  0.1397  0.8501
  105MOL   H35344241   2.868   3.668   7.649 -2.0057 -1.9865  1.5445
  105MOL   H35444242   2.941   3.393   7.566 -0.6511 -0.4776  0.0349
  105MOL   H35544243   2.771   3.448   7.608  0.0468 -2.9587  1.8738
  105MOL   H35644244   2.818   3.507   7.823 -0.8059  0.7601 -1.9515
  105MOL   H35744245   2.996   3.472   7.799 -0.7732  0.5498  0.0439
  105MOL   H35844246   2.873   3.345   7.800 -1.3669 -1.6307 -3.1444
  105MOL   C35944247   2.765   4.067   7.337  0.4963 -0.2597  0.3508
  105MOL   C36044248   2.614   4.028   7.321 -0.0457 -0.5523  0.4204
  105MOL   C36144249   2.528   4.123   7.413  0.3062  0.0460  0.2751
  105MOL   O36244250   2.502   4.238   7.377 -0.1494 -0.3521  0.1419
  105MOL   O36344251   2.481   4.062   7.530 -0.1188 -0.1347  0.3290
  105MOL   C36444252   2.397   4.148   7.616  0.0028 -0.2524  0.2281
  105MOL   C36544253   2.333   4.056   7.723  0.7303  0.0675 -0.5729
  105MOL   C36644254   2.245   4.141   7.819 -0.5138 -0.1935 -0.1020
  105MOL   C36744255   2.175   4.051   0.066  0.4377  0.2624 -0.8452
  105MOL   H36844256   2.765   4.171   7.303 -0.8815 -0.5064 -0.4607
  105MOL   H36944257   2.790   4.075   7.442  1.1608 -0.7568  0.2299
  105MOL   H37044258   2.598   3.926   7.356  0.6166 -0.1619  1.9000
  105MOL   H37144259   2.318   4.189   7.553 -2.9658 -0.6713  3.5358
  105MOL   H37244260   2.443   4.242   7.649  1.0259 -0.5139 -0.4154
  105MOL   H37344261   2.272   3.977   7.680  1.5920 -1.4264  0.8931
  105MOL   H37444262   2.413   4.005   7.776  1.6366  1.8521 -0.1535
  105MOL   H37544263   2.169   4.196   7.764 -0.8720  2.5491  2.9593
  105MOL   H37644264   2.307   4.215   0.016 -1.1105  1.3891 -1.6371
  105MOL   H37744265   2.243   3.995   0.130 -0.6545 -0.0087  0.0788
  105MOL   H37844266   2.104   3.983   0.020 -1.2575  1.7520 -0.5041
  105MOL   H37944267   2.125   4.111   0.142 -2.5093 -2.8820 -0.1934
  105MOL   C38044268   2.572   4.031   7.170  0.8089  0.1854  0.2587
  105MOL   C38144269   2.425   3.999   7.148 -0.2408  1.1773  0.4229
  105MOL   C38244270   2.389   4.035   6.999 -0.6889 -0.0427  0.1248
  105MOL   O38344271   2.302   4.114   6.971  0.1444 -0.1071 -0.3451
  105MOL   O38444272   2.467   3.961   6.902  0.5108 -0.2459 -0.2818
  105MOL   C38544273   2.419   3.937   6.768 -0.4169  0.4698 -0.7051
  105MOL   C38644274   2.345   3.803   6.756  0.5903 -0.2655 -0.5931
  105MOL   C38744275   2.429   3.683   6.798  0.2668  0.5821  0.1491
  105MOL   C38844276   2.361   3.548   6.776  0.0523  0.1866  0.3724
  105MOL   H38944277   2.642   3.964   7.119  2.3938  1.2250  1.0107
  105MOL   H39044278   2.591   4.130   7.129 -1.0389 -0.2202 -1.6836
  105MOL   H39144279   2.362   4.064   7.210 -0.1940  0.4009  1.2914
  105MOL   H39244280   2.502   3.938   6.698  1.2736 -1.6479  1.2036
  105MOL   H39344281   2.347   4.015   6.741 -0.1890  1.4208  1.3492
  105MOL   H39444282   2.257   3.793   6.820  0.3771  0.5295 -0.7556
  105MOL   H39544283   2.306   3.788   6.656 -0.3965  3.8137 -0.8997
  105MOL   H39644284   2.472   3.695   6.897 -2.9782  1.1795  1.5681
  105MOL   H39744285   2.511   3.683   6.727 -1.0060 -0.8826 -1.3824
  105MOL   H39844286   2.281   3.523   6.847  0.3644  0.4622  0.8277
  105MOL   H39944287   2.432   3.466   6.766 -2.3429 -2.0232  0.9744
  105MOL   H40044288   2.323   3.547   6.674  1.7640 -0.8794 -0.2759
  105MOL   C40144289   2.391   3.855   7.183  0.4053 -1.0527  0.6088
  105MOL   C40244290   2.241   3.818   7.146  0.3980  0.5444  0.0613
  105MOL   C40344291   2.189   3.703   7.234 -0.0792  1.0058  0.4557
  105MOL   O40444292   2.155   3.593   7.194  0.4233  0.3515  0.0899
  105MOL   O40544293   2.195   3.737   7.366 -0.4640  0.3243  0.5623
  105MOL   C40644294   2.177   3.634   7.460  0.2482 -0.0330  0.4303
  105MOL   C40744295   2.311   3.563   7.500  0.7933 -0.3781  0.3739
  105MOL   C40844296   2.406   3.661   7.571 -0.4053 -0.4933  0.1655
  105MOL   C40944297   2.524   3.601   7.641 -0.2464 -0.0758  0.1328
  105MOL   H41044298   2.388   3.854   7.292 -1.2858 -0.3129  0.5942
  105MOL   H41144299   2.443   3.774   7.133  1.6858  0.2588 -0.2133
  105MOL   H41244300   2.226   3.776   7.047  1.2685  1.3525 -0.4200
  105MOL   H41344301   2.100   3.561   7.438 -0.1362  0.2738  0.7463
  105MOL   H41444302   2.137   3.685   7.548 -3.1646 -0.4249 -0.8211
  105MOL   H41544303   2.280   3.480   7.564 -1.1892  1.5149  1.9489
  105MOL   H41644304   2.362   3.517   7.416 -0.0757  1.2355 -1.0755
  105MOL   H41744305   2.350   3.730   7.633 -1.9956  0.9181 -2.7263
  105MOL   H41844306   2.447   3.721   7.489 -0.8146 -1.5930 -0.8638
  105MOL   H41944307   2.492   3.542   7.727  0.1765 -0.8710 -0.2497
  105MOL   H42044308   2.601   3.674   7.664 -0.3400  0.2964 -0.7096
  105MOL   H42144309   2.562   3.534   7.564 -1.1032  0.4372 -0.7416
  105MOL   H42244310   2.164   3.895   7.156 -1.2526 -1.1560  0.7092
  106MOL     C144311   2.351   3.142   2.819 -0.1686  0.1219 -0.7917
  106MOL     C244312   2.228   3.175   2.746 -1.2056  1.0607  0.8232
  106MOL     C344313   2.233   3.116   2.602  0.7686  0.1631  0.6191
  106MOL     O444314   2.266   2.993   2.584  0.0213 -0.2354  0.1272
  106MOL     O544315   2.193   3.198   2.506 -0.2246 -0.6595 -0.2676
  106MOL     C644316   2.189   3.150   2.367  0.0753 -0.2791 -0.1450
  106MOL     C744317   2.088   3.233   2.287  0.3200 -0.5365  0.2486
  106MOL     C844318   2.125   3.388   2.294 -0.0543 -0.1822  0.4029
  106MOL     C944319   2.052   3.471   2.184 -0.9255  0.4913 -0.2247
  106MOL    H1044320   2.437   3.186   2.769 -1.2909  1.0756 -1.9323
  106MOL    H1144321   2.347   3.181   2.921 -0.2475  0.1113 -0.7903
  106MOL    H1244322   2.225   3.282   2.726  2.5497  0.9730 -0.6336
  106MOL    H1344323   2.157   3.046   2.360  1.1379 -0.6740  0.5657
  106MOL    H1444324   2.286   3.144   2.316 -0.3288 -0.5675 -0.8751
  106MOL    H1544325   2.103   3.201   2.184  2.2420  1.5003 -0.1510
  106MOL    H1644326   1.990   3.206   2.327  1.0452  0.4307  2.7836
  106MOL    H1744327   2.231   3.414   2.287 -0.4439  1.8353  1.3560
  106MOL    H1844328   2.103   3.441   2.387  1.5652  2.4269 -0.6387
  106MOL    H1944329   2.045   3.419   2.088 -1.1426 -3.0375  1.6041
  106MOL    H2044330   2.089   3.572   2.174 -0.6386  0.2336 -1.8640
  106MOL    H2144331   1.946   3.471   2.209 -0.5941 -2.7258  1.4099
  106MOL    H2244332   2.359   3.034   2.817 -0.3580  0.1011 -0.5427
  106MOL    C2344333   2.108   3.146   2.831  0.3769 -0.2173  0.6213
  106MOL    C2444334   1.981   3.236   2.811 -0.2331 -0.7783 -0.4871
  106MOL    C2544335   1.985   3.380   2.852  0.4090 -0.0254  0.3856
  106MOL    O2644336   1.947   3.420   2.965  0.6342 -0.2380  0.5057
  106MOL    O2744337   2.031   3.462   2.760  0.2241  0.7629 -0.0627
  106MOL    C2844338   2.031   3.603   2.785 -0.1096 -0.5262 -0.3972
  106MOL    C2944339   2.074   3.682   2.664  0.2571  0.5037 -0.6543
  106MOL    C3044340   1.966   3.664   2.556 -0.5959  0.5716  0.0719
  106MOL    C3144341   2.006   3.717   2.416  0.6356  0.1848 -0.5796
  106MOL    H3244342   2.129   3.175   2.933 -0.1959  2.3749  0.0247
  106MOL    H3344343   2.083   3.040   2.837  2.8808 -0.8468  0.5519
  106MOL    H3444344   1.911   3.196   2.884  0.3996 -2.3590 -0.7221
  106MOL    H3544345   2.100   3.626   2.866 -1.7498  2.6668  0.1946
  106MOL    H3644346   1.933   3.634   2.822  0.5042  1.5451 -0.4402
  106MOL    H3744347   2.092   3.786   2.690  0.2872  0.5684 -0.9359
  106MOL    H3844348   2.171   3.657   2.621 -0.5274  1.0322 -2.8196
  106MOL    H3944349   1.867   3.696   2.588 -0.6488  1.0842 -0.5844
  106MOL    H4044350   1.961   3.556   2.540 -1.2245  0.6242 -0.0866
  106MOL    H4144351   2.032   3.822   2.431  0.2950 -0.0314  1.7026
  106MOL    H4244352   1.923   3.718   2.345  1.1590 -0.3613 -1.2021
  106MOL    H4344353   2.085   3.651   2.381  3.1057  1.2873  2.6261
  106MOL    C4444354   1.911   3.223   2.669  0.1695  0.3753 -0.4737
  106MOL    C4544355   1.767   3.276   2.659 -0.2262  0.6736 -0.4587
  106MOL    C4644356   1.735   3.300   2.510  0.2905  0.4452 -0.0181
  106MOL    O4744357   1.732   3.209   2.427 -0.4871 -0.1891 -0.1718
  106MOL    O4844358   1.695   3.422   2.489 -0.0137 -0.5771 -0.4081
  106MOL    C4944359   1.654   3.457   2.360 -0.1729  0.4501  0.3332
  106MOL    C5044360   1.566   3.577   2.391 -0.2829 -0.2201 -0.1310
  106MOL    C5144361   1.469   3.619   2.274 -0.5584  0.3086 -0.9225
  106MOL    C5244362   1.542   3.655   2.142 -0.4530 -0.0719 -0.4234
  106MOL    H5344363   1.918   3.116   2.649  1.2516  0.5642 -1.1453
  106MOL    H5444364   1.981   3.277   2.605  0.1989 -0.9103 -1.5503
  106MOL    H5544365   1.782   3.373   2.707  0.8665 -0.0163  0.6436
  106MOL    H5644366   1.593   3.383   2.310 -0.7696  2.1066 -1.4634
  106MOL    H5744367   1.748   3.480   2.310  0.5024  0.8544  1.7511
  106MOL    H5844368   1.502   3.556   2.477 -0.5541 -2.1600 -0.7828
  106MOL    H5944369   1.627   3.659   2.427 -0.7830  0.0397  0.1237
  106MOL    H6044370   1.397   3.694   2.308  0.0410 -0.2739  1.7248
  106MOL    H6144371   1.395   3.542   2.253 -1.1560  0.0856  1.8158
  106MOL    H6244372   1.618   3.733   2.143 -2.1486  1.6385 -0.8080
  106MOL    H6344373   1.473   3.681   2.061 -0.7649  1.1978  0.2370
  106MOL    H6444374   1.581   3.559   2.109  0.1257  0.1542 -0.3964
  106MOL    C6544375   1.657   3.198   2.732 -0.2577 -0.2238 -0.3286
  106MOL    C6644376   1.539   3.279   2.775  0.0601  0.1307  0.1004
  106MOL    C6744377   1.419   3.191   2.774 -0.0481  0.5069 -0.3266
  106MOL    O6844378   1.373   3.147   2.880 -0.2220 -0.4193  0.5840
  106MOL    O6944379   1.362   3.165   2.648 -0.1727 -0.0046 -0.1485
  106MOL    C7044380   1.239   3.091   2.643  0.3361 -0.4519  0.3075
  106MOL    C7144381   1.116   3.172   2.682  0.0912 -0.2063  0.3088
  106MOL    C7244382   1.066   3.261   2.569 -0.1956 -0.3431 -0.2954
  106MOL    C7344383   0.959   3.369   2.591  0.1911  0.0496 -0.2974
  106MOL    H7444384   1.693   3.144   2.820  2.1776  0.3100 -0.9538
  106MOL    H7544385   1.620   3.118   2.669  0.7541 -0.3488 -0.7612
  106MOL    H7644386   1.519   3.357   2.702 -0.7041  2.1991  2.4582
  106MOL    H7744387   1.245   3.011   2.716 -3.6425 -1.4852 -0.3892
  106MOL    H7844388   1.226   3.035   2.550  0.4637 -1.0362  0.6457
  106MOL    H7944389   1.040   3.101   2.714  1.7023 -1.6232  1.0665
  106MOL    H8044390   1.136   3.227   2.774 -0.5678  0.5074  0.0349
  106MOL    H8144391   1.033   3.190   2.493 -2.1873 -1.1499  1.2812
  106MOL    H8244392   1.157   3.311   2.537 -0.8639 -0.3624 -2.3039
  106MOL    H8344393   0.860   3.326   2.606  1.0178 -1.8545 -0.1831
  106MOL    H8444394   0.952   3.430   2.501  1.1240  0.1332 -0.3204
  106MOL    H8544395   0.982   3.431   2.678 -2.1891  2.3071 -1.2077
  106MOL    C8644396   1.563   3.351   2.907  0.5240  0.5243 -0.0675
  106MOL    C8744397   1.466   3.469   2.936  0.0521 -0.3654  0.3546
  106MOL    C8844398   1.483   3.582   2.827 -0.8188  0.4157 -0.3204
  106MOL    O8944399   1.590   3.639   2.808 -0.2079 -0.1915 -0.2868
  106MOL    O9044400   1.366   3.622   2.765 -0.0279 -0.1058  0.5905
  106MOL    C9144401   1.355   3.742   2.682  0.3126 -0.4868  0.3012
  106MOL    C9244402   1.219   3.801   2.704  0.2454  0.3308 -0.4395
  106MOL    C9344403   1.109   3.726   2.632 -0.5563  0.3877 -0.2911
  106MOL    C9444404   0.974   3.776   2.676  0.1145  0.6358 -0.6110
  106MOL    H9544405   1.666   3.387   2.912  1.0305 -1.1308  1.9157
  106MOL    H9644406   1.555   3.292   2.998  1.0144  2.4649  1.2698
  106MOL    H9744407   1.517   3.511   3.023  0.2245  0.2574 -0.0477
  106MOL    H9844408   1.360   3.704   2.580  1.7374  0.4525 -0.0029
  106MOL    H9944409   1.427   3.824   2.689  0.3597 -0.5341  0.3714
  106MOL   H10044410   1.193   3.825   2.808  0.4444 -1.4247  0.0306
  106MOL   H10144411   1.215   3.899   2.657 -1.7022 -0.0981 -1.2229
  106MOL   H10244412   1.107   3.621   2.664 -2.4933  0.5112  0.0382
  106MOL   H10344413   1.112   3.721   2.523 -0.7344  0.7055 -0.3092
  106MOL   H10444414   0.958   3.869   2.622 -1.6396  0.7288  0.0630
  106MOL   H10544415   0.966   3.792   2.783  2.9779 -3.6658  0.3943
  106MOL   H10644416   0.893   3.713   2.639  0.4916  0.5798 -1.3530
  106MOL   C10744417   1.326   3.435   2.980  0.0250 -0.0068 -0.3649
  106MOL   C10844418   1.270   3.553   3.060  0.8052 -0.2801  0.4717
  106MOL   C10944419   1.119   3.568   3.041  0.6389 -0.3592 -0.3076
  106MOL   O11044420   1.068   3.676   3.031  0.2364 -0.1691 -0.0770
  106MOL   O11144421   1.050   3.449   3.047 -0.0291  0.3173  0.3102
  106MOL   C11244422   0.924   3.433   2.987  0.8869 -0.0282  0.3435
  106MOL   C11344423   0.814   3.485   3.072 -0.5311  0.0594  0.0609
  106MOL   C11444424   0.688   3.534   2.994 -1.0958  0.5410  0.1370
  106MOL   C11544425   0.595   3.636   3.064  0.0051  0.0712 -0.6193
  106MOL   H11644426   1.322   3.339   3.031 -0.1276  0.6437  0.8629
  106MOL   H11744427   1.278   3.415   2.885 -2.7990 -3.4068  1.6786
  106MOL   H11844428   1.298   3.649   3.018  1.2618 -1.2550 -1.5561
  106MOL   H11944429   0.928   3.337   2.934  1.4932  1.0279 -1.5785
  106MOL   H12044430   0.928   3.495   2.897  1.5239  0.3483  0.6232
  106MOL   H12144431   0.783   3.400   3.134 -2.2524  0.7156  0.1298
  106MOL   H12244432   0.851   3.560   3.141  0.8897  0.1174 -0.7506
  106MOL   H12344433   0.630   3.444   2.974 -3.4243  2.1294 -0.4903
  106MOL   H12444434   0.720   3.573   2.897 -0.2168  0.1843  0.2810
  106MOL   H12544435   0.524   3.679   2.993 -0.6379  4.0153  2.2522
  106MOL   H12644436   0.649   3.721   3.106 -0.0628  0.4518 -1.3053
  106MOL   H12744437   0.548   3.597   3.155 -1.5613 -1.1077 -1.9169
  106MOL   C12844438   1.304   3.559   3.204  0.0547 -0.3922  0.5123
  106MOL   C12944439   1.265   3.440   3.299  0.7971  0.4952 -0.0280
  106MOL   C13044440   1.379   3.395   3.387 -0.2911  0.1353  0.4589
  106MOL   O13144441   1.479   3.463   3.394 -0.2674 -0.2686 -0.0127
  106MOL   O13244442   1.365   3.270   3.438 -0.0270 -0.6750  0.2705
  106MOL   C13344443   1.442   3.219   3.541 -0.5708 -0.2967  0.1295
  106MOL   C13444444   1.363   3.110   3.613 -0.4082 -0.2633  0.3731
  106MOL   C13544445   1.445   3.011   3.699 -0.2388 -0.6107  0.3518
  106MOL   C13644446   1.353   2.956   3.811  0.1607  0.1456  0.4841
  106MOL   H13744447   1.256   3.646   3.249 -0.6688 -0.7679  0.4769
  106MOL   H13844448   1.412   3.569   3.205 -0.0239  0.3322  1.8985
  106MOL   H13944449   1.243   3.356   3.233  0.5865  0.6429 -0.1478
  106MOL   H14044450   1.461   3.304   3.607  2.9639  0.8494 -2.2252
  106MOL   H14144451   1.534   3.178   3.499 -0.4158 -0.4090  0.5682
  106MOL   H14244452   1.286   3.167   3.664  1.9419 -0.3985  4.2875
  106MOL   H14344453   1.305   3.056   3.538  0.2526  1.0739 -1.1194
  106MOL   H14444454   1.520   3.068   3.754 -0.3682 -0.8956  0.8297
  106MOL   H14544455   1.503   2.941   3.639 -2.0361 -0.1451 -2.0221
  106MOL   H14644456   1.407   2.889   3.877  2.6404  0.0806 -1.5274
  106MOL   H14744457   1.260   2.909   3.780  0.2069  0.5354 -0.2656
  106MOL   H14844458   1.322   3.037   3.878 -1.2526  0.1349 -0.1468
  106MOL   C14944459   1.141   3.477   3.388 -0.9940 -0.1599 -0.2788
  106MOL   C15044460   1.064   3.361   3.460  0.1660 -0.4314 -0.1885
  106MOL   C15144461   0.982   3.423   3.573  0.2104  0.2984 -1.1304
  106MOL   O15244462   0.869   3.470   3.560 -0.2088 -0.0200 -0.4162
  106MOL   O15344463   1.043   3.418   3.691  0.2656  0.0881 -0.2311
  106MOL   C15444464   0.970   3.420   3.815 -0.7408  0.4967  0.4330
  106MOL   C15544465   1.013   3.325   3.920  0.2441 -0.6505  0.3563
  106MOL   C15644466   1.008   3.175   3.873 -0.1118 -0.3160  0.0084
  106MOL   C15744467   1.031   3.077   3.985  0.3723 -0.2167  0.7922
  106MOL   H15844468   1.079   3.535   3.320  1.2069 -1.0368 -3.1254
  106MOL   H15944469   1.185   3.547   3.459 -2.0736 -0.3392  0.5904
  106MOL   H16044470   1.130   3.287   3.505  1.8797  1.3517  0.2806
  106MOL   H16144471   0.866   3.407   3.787  0.4689 -3.1390 -2.9291
  106MOL   H16244472   0.976   3.523   3.850  0.6134 -0.1993  2.3653
  106MOL   H16344473   1.110   3.348   3.964  1.7909 -0.8418 -2.7649
  106MOL   H16444474   0.944   3.337   4.003 -0.1554  1.3877 -0.2546
  106MOL   H16544475   1.082   3.167   3.794  0.7518 -0.0930  0.7866
  106MOL   H16644476   0.911   3.169   3.823  0.1953  3.8346 -1.2611
  106MOL   H16744477   0.966   3.095   4.071 -0.2942  0.0756  0.2322
  106MOL   H16844478   1.132   3.082   4.026  0.4838 -0.0992  0.5040
  106MOL   H16944479   1.025   2.976   3.944  0.6432 -0.1269  0.5268
  106MOL   C17044480   0.981   3.275   3.362 -0.4300 -0.0591 -1.1653
  106MOL   C17144481   0.943   3.136   3.412 -0.9398  0.0434 -0.1190
  106MOL   C17244482   0.803   3.105   3.367  0.3535 -0.2352  0.0143
  106MOL   O17344483   0.710   3.106   3.443 -0.5509  0.1960 -0.3645
  106MOL   O17444484   0.782   3.083   3.238 -0.6525  0.1323 -0.2406
  106MOL   C17544485   0.665   3.026   3.184  0.1181  0.0502  0.5623
  106MOL   C17644486   0.610   3.108   3.063 -0.1251 -0.8236  0.0847
  106MOL   C17744487   0.721   3.110   2.954 -0.3983  0.4478 -0.0214
  106MOL   C17844488   0.679   3.179   2.819 -0.7846  0.0093 -0.5039
  106MOL   H17944489   1.043   3.275   3.273  0.8481  2.2121 -0.3155
  106MOL   H18044490   0.888   3.327   3.338 -1.3833 -1.0230  0.3316
  106MOL   H18144491   0.955   3.159   3.517  1.2843  1.1215 -0.5839
  106MOL   H18244492   0.581   3.019   3.254 -0.3704  0.1181 -0.0135
  106MOL   H18344493   0.699   2.926   3.159  0.1581  0.1695  0.1465
  106MOL   H18444494   0.521   3.062   3.021  0.3652 -1.1018 -0.6549
  106MOL   H18544495   0.578   3.209   3.091 -1.6092 -0.7124 -1.8680
  106MOL   H18644496   0.741   3.003   2.942 -2.4068  0.1629 -0.9324
  106MOL   H18744497   0.814   3.158   2.983  0.0708 -0.8827  0.7466
  106MOL   H18844498   0.650   3.283   2.834 -2.9993 -0.5112 -0.9001
  106MOL   H18944499   0.593   3.139   2.764 -0.3959  0.1741 -1.2364
  106MOL   H19044500   0.765   3.188   2.752 -0.1127  0.0315  0.3600
  106MOL   C19144501   1.046   3.030   3.359 -0.8035  0.5168  0.0449
  106MOL   C19244502   1.017   2.884   3.398  0.4740  0.7833  0.8112
  106MOL   C19344503   1.124   2.784   3.341 -0.4440 -0.1744 -0.1894
  106MOL   O19444504   1.104   2.704   3.255  0.6041  0.1492 -0.4779
  106MOL   O19544505   1.236   2.795   3.414 -0.1816 -0.6812 -0.1396
  106MOL   C19644506   1.351   2.713   3.379  0.2020  0.0686  1.2712
  106MOL   C19744507   1.424   2.767   3.253  0.3499  0.5804  0.0250
  106MOL   C19844508   1.497   2.894   3.282  0.2213 -0.3460 -0.6942
  106MOL   C19944509   1.529   2.967   3.147 -0.3768  0.6393 -0.5302
  106MOL   H20044510   1.141   3.068   3.396 -0.7860  1.7909 -1.2875
  106MOL   H20144511   1.056   3.031   3.251 -2.9248 -1.3356 -0.2074
  106MOL   H20244512   0.924   2.862   3.345  1.1028  1.1286 -0.4515
  106MOL   H20344513   1.296   2.619   3.370 -1.3955  1.0222  0.9520
  106MOL   H20444514   1.422   2.711   3.461  1.3432 -1.7088  0.2877
  106MOL   H20544515   1.504   2.694   3.238  1.6968  1.6425  1.7914
  106MOL   H20644516   1.356   2.770   3.168  2.2515  0.1834 -1.5483
  106MOL   H20744517   1.587   2.883   3.343  0.5918  0.3947 -1.1010
  106MOL   H20844518   1.431   2.962   3.336 -0.4276 -2.8277  1.7953
  106MOL   H20944519   1.555   3.069   3.176  0.5310  0.0035  0.9716
  106MOL   H21044520   1.442   2.981   3.083 -1.4860  0.3879  0.8692
  106MOL   H21144521   1.599   2.917   3.080 -0.3440  1.0965 -0.8353
  106MOL   C21244522   0.979   2.876   3.550  0.3567  0.3316  0.1594
  106MOL   C21344523   0.995   2.735   3.618  0.4208  0.4525 -0.3480
  106MOL   C21444524   0.963   2.746   3.770 -0.0930 -0.5609 -0.4407
  106MOL   O21544525   1.057   2.732   3.855 -0.3524  0.2263 -0.3076
  106MOL   O21644526   0.842   2.803   3.792 -0.0379 -0.1681  0.5292
  106MOL   C21744527   0.786   2.836   3.923  0.4918  0.0611  0.1958
  106MOL   C21844528   0.650   2.767   3.954 -0.1366  0.7108  0.4239
  106MOL   C21944529   0.599   2.784   4.099  0.3576  0.3287 -0.8171
  106MOL   C22044530   0.503   2.667   4.133 -0.5156  0.4306  0.1077
  106MOL   H22144531   0.877   2.912   3.566  0.4375 -0.1234  1.8864
  106MOL   H22244532   1.039   2.955   3.594  1.4571 -1.4789  2.0003
  106MOL   H22344533   1.103   2.720   3.615  0.6516  1.8494  0.4410
  106MOL   H22444534   0.762   2.942   3.912 -0.8782 -0.2924 -0.2600
  106MOL   H22544535   0.856   2.830   4.007 -1.4668 -1.2880  1.7924
  106MOL   H22644536   0.577   2.794   3.877  0.5228  1.6430  0.1210
  106MOL   H22744537   0.652   2.660   3.934 -0.2119  0.8401 -0.2940
  106MOL   H22844538   0.552   2.882   4.108  0.3157  0.3531 -1.3020
  106MOL   H22944539   0.684   2.784   4.167 -0.1526 -1.0226 -0.1552
  106MOL   H23044540   0.464   2.680   4.234  3.3485  1.1868  1.5914
  106MOL   H23144541   0.553   2.571   4.121 -0.1307  0.2528  2.7484
  106MOL   H23244542   0.417   2.666   4.066 -0.7757  1.6703  0.4072
  106MOL   C23344543   0.911   2.612   3.554  0.1257 -0.1832  0.7110
  106MOL   C23444544   0.753   2.600   3.570 -0.2515 -0.1387  0.0350
  106MOL   C23544545   0.682   2.725   3.518  0.2443 -0.0425  0.2900
  106MOL   O23644546   0.718   2.778   3.411 -0.5448 -0.4229 -0.2031
  106MOL   O23744547   0.575   2.758   3.605  0.2643 -0.2493 -0.8297
  106MOL   C23844548   0.475   2.861   3.566  0.1341  0.1442  0.2433
  106MOL   C23944549   0.352   2.844   3.651 -0.2469  0.1833 -0.8753
  106MOL   C24044550   0.223   2.912   3.594 -0.2676  0.1365  0.0674
  106MOL   C24144551   0.104   2.870   3.676  0.0403 -0.5874  0.4283
  106MOL   H24244552   0.973   2.536   3.604 -0.9372 -1.0864  0.6641
  106MOL   H24344553   0.928   2.607   3.447 -0.4875  1.8729  0.5073
  106MOL   H24444554   0.737   2.593   3.677 -2.0457 -2.3233 -0.3388
  106MOL   H24544555   0.433   2.846   3.467 -2.2707 -1.8592  1.5103
  106MOL   H24644556   0.514   2.962   3.576 -3.3227  1.4093  1.9609
  106MOL   H24744557   0.344   2.735   3.657  0.5219  0.1459 -0.3812
  106MOL   H24844558   0.379   2.876   3.751 -1.3277  1.9204 -1.1104
  106MOL   H24944559   0.198   2.876   3.494  1.9070  1.1508 -0.8602
  106MOL   H25044560   0.229   3.021   3.587 -1.3625  0.1858 -0.2180
  106MOL   H25144561   0.008   2.903   3.637  0.7102 -0.1593 -0.9084
  106MOL   H25244562   0.123   2.883   3.782  0.4265 -1.0510  0.4219
  106MOL   H25344563   0.098   2.761   3.678 -0.1373 -0.5643  2.0195
  106MOL   C25444564   0.695   2.472   3.497 -0.0187  0.0878  0.0272
  106MOL   C25544565   0.701   2.452   3.347 -1.1108  0.3973 -0.1312
  106MOL   C25644566   0.830   2.380   3.300 -0.6182 -0.2301  0.6122
  106MOL   O25744567   0.913   2.323   3.369  0.0290 -0.1532 -0.4490
  106MOL   O25844568   0.852   2.395   3.167  0.2892 -0.0140  0.6939
  106MOL   C25944569   0.976   2.351   3.113  0.6433 -0.1235 -0.3178
  106MOL   C26044570   0.956   2.352   2.966 -0.2253 -0.3490 -0.1796
  106MOL   C26144571   0.836   2.269   2.918  0.4487 -0.1554  0.5136
  106MOL   C26244572   0.860   2.179   2.806 -0.2688  0.3924  0.2762
  106MOL   H26344573   0.588   2.460   3.511  0.0553 -1.2647 -0.4841
  106MOL   H26444574   0.737   2.382   3.542  0.4545 -0.5261 -1.6293
  106MOL   H26544575   0.710   2.551   3.303  0.7745  0.0379 -0.6104
  106MOL   H26644576   0.993   2.246   3.138  3.4019  0.9780  2.6739
  106MOL   H26744577   1.061   2.410   3.148 -0.8029  0.5546  2.1377
  106MOL   H26844578   0.939   2.455   2.935  0.4494  0.1489  1.0779
  106MOL   H26944579   1.038   2.305   2.911  0.1709  0.4192 -0.2571
  106MOL   H27044580   0.753   2.333   2.888  1.2328  0.0821 -1.2270
  106MOL   H27144581   0.794   2.207   2.998 -2.5177  2.4182  1.0285
  106MOL   H27244582   0.938   2.104   2.822  0.0188  0.6416  0.0497
  106MOL   H27344583   0.883   2.231   2.713  1.1395  0.8717  0.8775
  106MOL   H27444584   0.768   2.122   2.795 -0.1767  0.2093  0.4532
  106MOL   C27544585   0.567   2.406   3.282 -0.1938  0.2154  0.6056
  106MOL   C27644586   0.529   2.252   3.275 -0.0362 -0.2893  0.4144
  106MOL   C27744587   0.461   2.207   3.411 -0.2029  0.1590  0.0421
  106MOL   O27844588   0.479   2.092   3.457 -0.1309 -0.2353 -0.0380
  106MOL   O27944589   0.368   2.300   3.457 -0.0625  0.5773 -0.5039
  106MOL   C28044590   0.280   2.258   3.566 -0.5440 -0.1930 -0.0040
  106MOL   C28144591   0.282   2.369   3.677  0.7844 -0.3770  0.4320
  106MOL   C28244592   0.415   2.371   3.760 -0.0892 -0.1946  0.3335
  106MOL   C28344593   0.429   2.483   3.860  0.2524 -0.3651 -0.5792
  106MOL   H28444594   0.575   2.437   3.177  2.0604  1.5865  1.1462
  106MOL   H28544595   0.476   2.461   3.305  0.3609  0.9160  1.1357
  106MOL   H28644596   0.629   2.207   3.272  0.4596  0.8735 -1.5456
  106MOL   H28744597   0.313   2.161   3.605  0.1490  0.4228  0.9695
  106MOL   H28844598   0.176   2.244   3.537 -0.3858  0.6251 -0.9851
  106MOL   H28944599   0.263   2.461   3.622 -1.5754 -0.9869  0.1541
  106MOL   H29044600   0.190   2.367   3.735  0.4107 -1.3646 -0.1830
  106MOL   H29144601   0.505   2.387   3.701  0.5069  0.0492  1.2863
  106MOL   H29244602   0.411   2.269   3.798 -0.9835 -0.6331 -0.9208
  106MOL   H29344603   0.526   2.477   3.909  1.3314 -1.4225 -2.7584
  106MOL   H29444604   0.353   2.496   3.936  2.7189  1.8659  1.5718
  106MOL   H29544605   0.424   2.571   3.796 -0.6735  0.4191  0.5549
  106MOL   C29644606   0.444   2.217   3.148  0.3263  0.2374  0.2542
  106MOL   C29744607   0.407   2.067   3.124  0.2454  0.2139  0.4330
  106MOL   C29844608   0.264   2.031   3.172  0.3743 -0.4457 -0.2193
  106MOL   O29944609   0.260   1.938   3.253  0.2335 -0.4971  0.4159
  106MOL   O30044610   0.166   2.101   3.116 -0.4137 -0.2561  0.2854
  106MOL   C30144611   0.033   2.063   3.143 -0.0028 -0.0412  0.0573
  106MOL   C30244612   7.794   2.166   3.066 -0.1732  0.0951  0.4467
  106MOL   C30344613   7.789   2.314   3.103 -0.3825 -0.0729 -0.6428
  106MOL   C30444614   7.776   2.341   3.251  0.8259 -0.2424 -0.8147
  106MOL   H30544615   0.496   2.248   3.057  1.2222 -0.8519  0.3780
  106MOL   H30644616   0.353   2.277   3.141  0.3314  0.4612  2.0609
  106MOL   H30744617   0.472   2.001   3.182 -0.3273  0.0735  0.9219
  106MOL   H30844618   0.018   2.058   3.251  0.4263 -0.7872  0.0826
  106MOL   H30944619   0.010   1.966   3.100  1.3986 -0.5817  0.5168
  106MOL   H31044620   7.830   2.161   2.963 -1.3975 -2.7183  0.1088
  106MOL   H31144621   7.691   2.131   3.058 -0.0209 -0.3430  0.3440
  106MOL   H31244622   7.702   2.351   3.049 -0.9572 -1.0389 -0.3897
  106MOL   H31344623   0.024   2.359   3.058 -0.4822 -0.8679 -1.6650
  106MOL   H31444624   0.016   2.310   3.300  1.2508  0.9034 -0.8810
  106MOL   H31544625   7.683   2.310   3.299  0.5927  0.8430 -0.5408
  106MOL   H31644626   7.776   2.450   3.254 -0.6074 -0.2704  1.1660
  106MOL   C31744627   0.427   2.016   2.980 -0.5904  1.0346  0.4678
  106MOL   C31844628   0.495   1.876   2.971  0.3437  0.6136  0.4445
  106MOL   C31944629   0.397   1.768   3.015  0.0448  0.1593 -0.8261
  106MOL   O32044630   0.299   1.736   2.944  0.2593 -0.4468  0.1127
  106MOL   O32144631   0.422   1.726   3.137 -0.2363  0.2999  0.3672
  106MOL   C32244632   0.336   1.627   3.195  0.1182 -0.3326  0.0733
  106MOL   C32344633   0.359   1.477   3.141 -1.2736 -0.3664 -0.7024
  106MOL   C32444634   0.264   1.374   3.202  0.4307  0.5426 -0.2756
  106MOL   C32544635   0.299   1.233   3.156  0.4889 -0.2553 -0.9443
  106MOL   H32644636   0.488   2.090   2.930  0.5237  1.0168  1.7947
  106MOL   H32744637   0.333   2.020   2.925 -0.0807  0.6089 -0.4465
  106MOL   H32844638   0.571   1.878   3.049  0.6245 -2.8541  0.3326
  106MOL   H32944639   0.238   1.662   3.164  0.7175  2.3116  0.9987
  106MOL   H33044640   0.346   1.638   3.303 -1.0147 -1.6635  0.3166
  106MOL   H33144641   0.346   1.477   3.033  0.8863  0.4062 -0.9937
  106MOL   H33244642   0.463   1.445   3.151 -0.7290  1.7656  0.6794
  106MOL   H33344643   0.158   1.389   3.179  0.4206 -1.0744 -1.4006
  106MOL   H33444644   0.273   1.378   3.311 -1.1023  0.0510 -0.1199
  106MOL   H33544645   0.391   1.203   3.205  0.8837  1.5088 -0.5721
  106MOL   H33644646   0.318   1.237   3.049  0.1300  1.1773 -0.9590
  106MOL   H33744647   0.220   1.163   3.185 -1.3728  2.5112  0.8920
  106MOL   C33844648   0.558   1.849   2.832 -0.2975  0.0638 -0.4472
  106MOL   C33944649   0.654   1.732   2.813  0.0208 -0.6067 -0.9757
  106MOL   C34044650   0.661   1.694   2.665 -0.4047  0.8211 -0.3176
  106MOL   O34144651   0.632   1.581   2.639 -0.9619  0.2125  0.1970
  106MOL   O34244652   0.693   1.792   2.585 -0.2785  0.7583  0.3449
  106MOL   C34344653   0.725   1.769   2.452  0.6094 -0.1445  0.0467
  106MOL   C34444654   0.678   1.888   2.371 -0.1020 -0.1771 -0.0820
  106MOL   C34544655   0.716   1.887   2.221  0.5147 -0.1900 -0.4089
  106MOL   C34644656   0.660   2.009   2.155 -0.2776 -0.4268 -0.0774
  106MOL   H34744657   0.607   1.936   2.789  2.1295 -2.5491 -3.2750
  106MOL   H34844658   0.472   1.836   2.765 -0.6117  0.5378 -0.1331
  106MOL   H34944659   0.624   1.640   2.863 -0.1037 -0.4380 -0.7461
  106MOL   H35044660   0.668   1.681   2.422  0.3950 -0.3391  0.9920
  106MOL   H35144661   0.828   1.743   2.428  0.5916  0.3174 -0.5284
  106MOL   H35244662   0.572   1.896   2.394 -0.2128 -1.5564 -0.0291
  106MOL   H35344663   0.722   1.974   2.421 -0.6082 -0.5517  1.0222
  106MOL   H35444664   0.679   1.800   2.166 -0.5810  0.9184 -1.4309
  106MOL   H35544665   0.825   1.884   2.216  0.6609  0.2804  1.7821
  106MOL   H35644666   0.707   2.098   2.198 -1.7698  0.6313 -0.5993
  106MOL   H35744667   0.554   2.030   2.168 -0.1622  1.2773 -1.7594
  106MOL   H35844668   0.663   2.001   2.047 -1.7375  0.4728 -0.1902
  106MOL   C35944669   0.797   1.771   2.869 -0.0265 -0.1345 -0.0052
  106MOL   C36044670   0.804   1.723   3.016 -0.0602 -0.8330  0.3449
  106MOL   C36144671   0.835   1.574   3.027 -0.0268 -0.3320 -0.3104
  106MOL   O36244672   0.948   1.534   3.034  0.0575  0.3385  0.1660
  106MOL   O36344673   0.720   1.500   3.030 -0.1658 -0.1451 -0.3549
  106MOL   C36444674   0.719   1.358   3.023  0.8481 -0.4276 -0.6512
  106MOL   C36544675   0.632   1.306   2.904  0.2495 -1.2448  0.6932
  106MOL   C36644676   0.625   1.153   2.883  0.5048  0.9590 -0.2012
  106MOL   C36744677   0.495   1.103   2.822  0.1344  0.5734  0.2263
  106MOL   H36844678   0.811   1.879   2.863  0.0015 -0.1179  0.3669
  106MOL   H36944679   0.878   1.730   2.809  1.1897 -0.7457  2.0087
  106MOL   H37044680   0.708   1.740   3.066 -0.5327  0.1650 -0.8512
  106MOL   H37144681   0.685   1.315   3.117 -1.5729  1.1241 -0.7918
  106MOL   H37244682   0.822   1.324   3.009  0.9792 -0.0292 -0.6595
  106MOL   H37344683   0.533   1.348   2.923  0.7473 -0.1523  0.9597
  106MOL   H37444684   0.672   1.357   2.816  0.3893 -3.1150 -0.3345
  106MOL   H37544685   0.637   1.107   2.982 -0.5751 -1.2843 -1.0793
  106MOL   H37644686   0.701   1.113   2.816 -2.1505 -1.4298 -1.8941
  106MOL   H37744687   0.496   0.994   2.817 -0.7191  0.5919 -0.4252
  106MOL   H37844688   0.481   1.141   2.720 -2.9293  2.6037  1.3439
  106MOL   H37944689   0.409   1.126   2.884 -0.5693 -0.7666 -0.2331
  106MOL   C38044690   0.907   1.801   3.091 -0.1426  0.0428  0.2272
  106MOL   C38144691   0.892   1.797   3.242  0.1754  0.6286 -0.4539
  106MOL   C38244692   1.024   1.813   3.311  1.1275  1.1309  0.6091
  106MOL   O38344693   1.077   1.726   3.376 -0.1447  0.3496  0.0667
  106MOL   O38444694   1.079   1.933   3.287  0.0962  0.5663 -0.1796
  106MOL   C38544695   1.215   1.957   3.334 -0.2117 -0.1479 -0.1996
  106MOL   C38644696   1.256   2.088   3.266 -0.0779 -0.1511 -0.0131
  106MOL   C38744697   1.404   2.119   3.288 -0.0227 -0.1341 -0.6017
  106MOL   C38844698   1.423   2.272   3.281 -0.0571  0.9898  0.3492
  106MOL   H38944699   0.916   1.905   3.059 -1.5872 -0.7117 -2.8849
  106MOL   H39044700   1.004   1.758   3.066 -0.5603 -0.8295  0.0563
  106MOL   H39144701   0.878   1.694   3.274 -0.7482  0.9326  0.1113
  106MOL   H39244702   1.287   1.881   3.301 -0.2135 -0.9067  1.5051
  106MOL   H39344703   1.229   1.954   3.442  0.8260  1.4637 -0.2641
  106MOL   H39444704   1.225   2.096   3.162  1.2596 -1.7918 -0.5632
  106MOL   H39544705   1.192   2.163   3.312 -0.0837 -0.2154  0.0838
  106MOL   H39644706   1.460   2.070   3.209  1.2767  0.7108 -0.2349
  106MOL   H39744707   1.444   2.081   3.382  0.5235 -0.5813 -1.0124
  106MOL   H39844708   1.370   2.307   3.192 -2.2355 -0.6589  0.9378
  106MOL   H39944709   1.528   2.299   3.267  0.3414 -0.2864  0.7760
  106MOL   H40044710   1.385   2.332   3.363 -1.5693  1.2365 -0.5104
  106MOL   C40144711   0.789   1.896   3.291 -0.0839 -0.1482 -0.4192
  106MOL   C40244712   0.730   1.865   3.430 -0.6036 -0.2816 -0.4853
  106MOL   C40344713   0.658   1.732   3.430  0.2687  0.3043  0.6791
  106MOL   O40444714   0.632   1.659   3.331  0.4986 -0.3702  0.3934
  106MOL   O40544715   0.619   1.704   3.551 -0.3531 -0.2944 -0.3308
  106MOL   C40644716   0.546   1.590   3.590  0.1971  0.4121  0.9629
  106MOL   C40744717   0.642   1.464   3.607 -0.0364  0.3860 -0.0327
  106MOL   C40844718   0.574   1.333   3.668 -0.0431 -0.5725 -0.0788
  106MOL   C40944719   0.450   1.282   3.593 -0.6995  0.1217 -0.2880
  106MOL   H41044720   0.706   1.891   3.221  0.1299  1.6582 -0.8249
  106MOL   H41144721   0.837   1.994   3.289 -0.6925  0.1728  0.3594
  106MOL   H41244722   0.652   1.938   3.449  0.8982  1.3543 -0.4480
  106MOL   H41344723   0.475   1.573   3.509  0.5145  1.2886  0.4970
  106MOL   H41444724   0.492   1.618   3.681  0.4695  2.1382  0.6038
  106MOL   H41544725   0.692   1.430   3.516  0.9899 -1.1124  1.0681
  106MOL   H41644726   0.718   1.499   3.678  1.0581 -0.8173 -0.5884
  106MOL   H41744727   0.554   1.350   3.773 -0.7110 -0.6271 -0.1982
  106MOL   H41844728   0.643   1.249   3.662  1.0161  0.2449  0.5685
  106MOL   H41944729   0.363   1.347   3.604 -2.3347 -2.1780  0.6292
  106MOL   H42044730   0.410   1.193   3.641  0.6356 -0.0320  0.5908
  106MOL   H42144731   0.475   1.261   3.489  0.4697  0.8980 -0.1782
  106MOL   H42244732   0.805   1.868   3.510  1.1720 -0.2619 -2.1091
  107MOL     C144733   3.026   1.788   4.676  0.4149  0.0209 -0.0579
  107MOL     C244734   3.171   1.817   4.646 -0.0802 -0.3168 -0.1622
  107MOL     C344735   3.208   1.776   4.507 -0.9769 -0.0129  0.6029
  107MOL     O444736   3.127   1.759   4.414  0.2264  0.3193 -0.6114
  107MOL     O544737   3.342   1.770   4.489 -0.0413  0.0325 -0.2563
  107MOL     C644738   3.409   1.723   4.372  0.6023 -0.5499 -0.0173
  107MOL     C744739   3.441   1.857   4.302  0.1587  0.9331 -0.5314
  107MOL     C844740   3.544   1.939   4.383  0.4499 -0.0764 -0.2538
  107MOL     C944741   3.614   2.034   4.291  0.2503 -0.2477  0.5746
  107MOL    H1044742   3.001   1.812   4.780 -1.5016 -0.0713 -0.4647
  107MOL    H1144743   2.961   1.856   4.622 -2.2903 -1.1848  1.5467
  107MOL    H1244744   3.237   1.760   4.711 -1.3711 -2.2870 -0.5540
  107MOL    H1344745   3.356   1.646   4.314 -0.8689  1.6713 -1.7115
  107MOL    H1444746   3.504   1.683   4.407  0.7515 -0.1690  0.0110
  107MOL    H1544747   3.481   1.827   4.206 -0.6684  0.2944 -0.6763
  107MOL    H1644748   3.348   1.909   4.278 -1.5412 -1.1559  1.3472
  107MOL    H1744749   3.619   1.869   4.420 -0.1303  0.8633  2.8356
  107MOL    H1844750   3.492   1.996   4.459  2.7172  0.0258  1.2749
  107MOL    H1944751   3.688   2.094   4.344  1.0459  0.5159 -1.3606
  107MOL    H2044752   3.546   2.102   4.240  0.6273 -0.8577 -0.7661
  107MOL    H2144753   3.667   1.983   4.211 -0.0256 -0.5906  0.6126
  107MOL    H2244754   3.006   1.680   4.676 -1.1036  0.2826  1.4675
  107MOL    C2344755   3.205   1.967   4.666  0.0851 -0.1141  0.4728
  107MOL    C2444756   3.173   2.041   4.803 -0.1404 -0.0446  0.7209
  107MOL    C2544757   3.241   1.977   4.928 -0.1052 -0.7025 -0.3153
  107MOL    O2644758   3.175   1.939   5.030 -0.2042  1.2994  0.2345
  107MOL    O2744759   3.376   1.981   4.915  0.3571 -0.6070  0.4600
  107MOL    C2844760   3.472   1.952   5.015 -0.1102  0.3417 -1.0564
  107MOL    C2944761   3.541   2.081   5.050 -0.6921 -0.0900 -0.1961
  107MOL    C3044762   3.455   2.197   5.115 -0.1457 -0.5774 -0.4284
  107MOL    C3144763   3.538   2.321   5.158  0.5983 -0.2862 -0.3215
  107MOL    H3244764   3.157   2.020   4.584  0.6590  1.6719  1.2703
  107MOL    H3344765   3.310   1.973   4.636 -0.4547 -1.1448 -1.7021
  107MOL    H3444766   3.066   2.031   4.818  0.2700 -0.4530  3.7362
  107MOL    H3544767   3.548   1.880   4.988  1.4371  1.2205  0.7892
  107MOL    H3644768   3.414   1.907   5.096  0.6488  1.9124  0.3995
  107MOL    H3744769   3.618   2.048   5.119  0.2506  0.6048 -0.9059
  107MOL    H3844770   3.586   2.114   4.956 -0.2626 -1.3823 -0.4655
  107MOL    H3944771   3.412   2.163   5.209 -0.5529 -2.9800 -1.4470
  107MOL    H4044772   3.372   2.228   5.052 -0.7753  1.0034  1.1419
  107MOL    H4144773   3.605   2.360   5.080 -1.2560  1.2583 -1.2005
  107MOL    H4244774   3.598   2.291   5.243 -0.4992  1.5705  1.1535
  107MOL    H4344775   3.485   2.411   5.188 -3.5437 -1.7767 -2.7727
  107MOL    C4444776   3.205   2.195   4.785  0.2872  0.2865  0.0383
  107MOL    C4544777   3.074   2.268   4.777 -0.0534 -0.3122 -0.0091
  107MOL    C4644778   3.002   2.272   4.907  0.3434  0.1159 -0.0829
  107MOL    O4744779   2.894   2.220   4.919  0.1244  0.2521  0.2491
  107MOL    O4844780   3.074   2.323   5.011  0.2774  0.1962  0.0375
  107MOL    C4944781   3.039   2.302   5.145 -0.1130  0.1031 -0.3147
  107MOL    C5044782   3.140   2.374   5.237 -0.3024  0.2516  0.3309
  107MOL    C5144783   3.079   2.387   5.371 -0.1879  0.0462  0.9214
  107MOL    C5244784   3.168   2.472   5.456 -0.2561 -0.6051  0.4073
  107MOL    H5344785   3.267   2.207   4.696 -0.8375  1.6872 -0.5706
  107MOL    H5444786   3.262   2.240   4.866  2.6052 -0.1238 -1.3424
  107MOL    H5544787   3.009   2.221   4.703 -0.3445 -2.6257  1.6411
  107MOL    H5644788   3.017   2.200   5.177 -0.6912  0.8967  1.9140
  107MOL    H5744789   2.939   2.346   5.148 -0.5677 -0.9361  0.1503
  107MOL    H5844790   3.233   2.316   5.239 -0.4399 -0.0141 -0.5762
  107MOL    H5944791   3.158   2.469   5.185 -2.1041 -0.0731 -0.9397
  107MOL    H6044792   3.066   2.289   5.417  0.9410 -0.9921 -0.8688
  107MOL    H6144793   2.975   2.420   5.367 -0.4126 -0.7791 -0.6089
  107MOL    H6244794   3.164   2.574   5.420  0.1197  0.2087  2.5952
  107MOL    H6344795   3.274   2.447   5.444 -0.2463 -0.5547  0.3908
  107MOL    H6444796   3.143   2.471   5.562 -0.9778  0.0191  0.2489
  107MOL    C6544797   3.102   2.413   4.721  0.2360 -0.4767  0.6891
  107MOL    C6644798   2.967   2.483   4.676  0.6086 -0.5773  0.4735
  107MOL    C6744799   2.992   2.632   4.641 -0.4872 -0.2210  0.1630
  107MOL    O6844800   2.909   2.724   4.645  0.0191  0.0642 -0.4186
  107MOL    O6944801   3.109   2.644   4.583 -0.4031  0.4633  0.0596
  107MOL    C7044802   3.147   2.774   4.553 -0.7885  0.0366  0.1406
  107MOL    C7144803   3.299   2.788   4.543  0.0075  0.8126  0.6606
  107MOL    C7244804   3.359   2.896   4.451  0.5103  0.5452  0.3200
  107MOL    C7344805   3.494   2.855   4.374  0.4281 -0.3900  0.0768
  107MOL    H7444806   3.174   2.422   4.639 -0.7573  1.5488  0.0145
  107MOL    H7544807   3.139   2.468   4.808  0.9644  0.2317 -0.0596
  107MOL    H7644808   2.900   2.489   4.763 -0.5207  2.6832 -0.5346
  107MOL    H7744809   3.116   2.854   4.620  3.3947  1.2776  0.7704
  107MOL    H7844810   3.097   2.787   4.458 -1.0559  1.1021  0.4290
  107MOL    H7944811   3.338   2.810   4.643  0.4810 -0.2716  0.7171
  107MOL    H8044812   3.340   2.689   4.523 -0.5683  0.7165 -0.0439
  107MOL    H8144813   3.372   2.994   4.497  0.0578  2.0038 -2.5474
  107MOL    H8244814   3.293   2.914   4.366 -0.1376  0.1312  0.7337
  107MOL    H8344815   3.478   2.762   4.318 -0.8430 -0.4257  0.4789
  107MOL    H8444816   3.567   2.839   4.453  0.4179 -0.0923  0.1447
  107MOL    H8544817   3.522   2.934   4.304  0.4508 -1.6165 -1.3259
  107MOL    C8644818   2.902   2.407   4.550 -0.3491  0.5600 -0.4178
  107MOL    C8744819   2.750   2.426   4.558  0.5703  0.5180 -0.2248
  107MOL    C8844820   2.689   2.426   4.414  0.1696 -0.2041 -0.3375
  107MOL    O8944821   2.739   2.358   4.332 -0.3791 -0.1931  0.0383
  107MOL    O9044822   2.579   2.504   4.393 -0.1573 -0.2739  0.1246
  107MOL    C9144823   2.501   2.490   4.269 -0.6438 -0.1073  0.0175
  107MOL    C9244824   2.355   2.462   4.283 -0.5228  0.1966 -0.0008
  107MOL    C9344825   2.276   2.581   4.348 -0.2466 -0.6579 -0.5984
  107MOL    C9444826   2.128   2.538   4.377  0.3523 -0.8703  0.0654
  107MOL    H9544827   2.920   2.300   4.541  0.2275  0.7172 -1.1642
  107MOL    H9644828   2.944   2.463   4.467 -0.4556 -1.5145 -1.9021
  107MOL    H9744829   2.731   2.526   4.596  1.7985  0.0948  1.6031
  107MOL    H9844830   2.544   2.420   4.199 -1.6867 -1.9690  1.2093
  107MOL    H9944831   2.509   2.592   4.231  1.4330 -0.6344 -1.0184
  107MOL   H10044832   2.304   2.455   4.188  0.2314 -0.7129 -0.3501
  107MOL   H10144833   2.336   2.377   4.349  2.1226  1.9141  3.1434
  107MOL   H10244834   2.286   2.677   4.298  1.1361  0.3883  1.6083
  107MOL   H10344835   2.317   2.593   4.448 -0.5253 -0.3318 -0.5257
  107MOL   H10444836   2.088   2.467   4.305  0.3128 -0.1636 -0.6130
  107MOL   H10544837   2.068   2.629   4.385 -0.5878 -1.2813 -2.0861
  107MOL   H10644838   2.113   2.491   4.475 -0.5351  0.5069  0.6149
  107MOL   C10744839   2.672   2.336   4.652  0.2726  0.3103 -0.4569
  107MOL   C10844840   2.515   2.361   4.663  0.0181  0.1037  0.2927
  107MOL   C10944841   2.432   2.242   4.621 -0.5916  0.0842 -0.4113
  107MOL   O11044842   2.373   2.184   4.715 -0.5296 -0.4028  1.0321
  107MOL   O11144843   2.431   2.206   4.496  0.3213 -0.3734 -0.1996
  107MOL   C11244844   2.346   2.101   4.451  0.4743  0.0459  0.0639
  107MOL   C11344845   2.390   1.964   4.502 -0.9775 -0.0175 -0.1826
  107MOL   C11444846   2.329   1.844   4.434 -0.5310 -0.5692 -0.1045
  107MOL   C11544847   2.409   1.719   4.481  0.4033  0.2987 -0.1810
  107MOL   H11644848   2.717   2.356   4.749  2.6874 -0.0334 -1.4714
  107MOL   H11744849   2.692   2.232   4.630  0.8246  0.2327  0.4076
  107MOL   H11844850   2.484   2.440   4.595  3.0113  1.4820  0.4790
  107MOL   H11944851   2.340   2.096   4.342 -3.0717  3.2964 -0.0061
  107MOL   H12044852   2.242   2.104   4.481  0.0609  3.0041 -1.4197
  107MOL   H12144853   2.498   1.948   4.514 -0.8458 -1.0727 -2.6439
  107MOL   H12244854   2.347   1.963   4.602 -1.1601 -1.0767 -0.2696
  107MOL   H12344855   2.329   1.857   4.326 -1.6753  0.8964  0.0564
  107MOL   H12444856   2.221   1.835   4.447 -0.3901 -0.2692  1.3916
  107MOL   H12544857   2.333   1.642   4.463 -2.5105  2.7229  1.2713
  107MOL   H12644858   2.423   1.717   4.589 -0.5057  2.5545  0.0005
  107MOL   H12744859   2.506   1.699   4.436  2.4943 -0.5635  4.4573
  107MOL   C12844860   2.485   2.407   4.803  0.1867 -0.0830 -0.1503
  107MOL   C12944861   2.557   2.538   4.841  0.1089 -0.1299  0.5756
  107MOL   C13044862   2.485   2.662   4.779  0.5232 -0.4613 -0.3426
  107MOL   O13144863   2.381   2.704   4.825 -0.2285 -0.0422 -0.6146
  107MOL   O13244864   2.545   2.704   4.657 -0.1420  0.5658 -0.0913
  107MOL   C13344865   2.492   2.800   4.567  0.2432 -0.2552  0.3689
  107MOL   C13444866   2.608   2.840   4.477  0.1864  0.2647  0.0382
  107MOL   C13544867   2.560   2.945   4.363  0.6567  0.3187  0.0053
  107MOL   C13644868   2.490   3.071   4.425 -0.0828 -0.6909 -0.5436
  107MOL   H13744869   2.525   2.333   4.873  2.3244  0.4194 -0.8029
  107MOL   H13844870   2.379   2.427   4.819  0.5972  1.5184  0.7807
  107MOL   H13944871   2.660   2.545   4.808  0.5889 -0.0194  2.0810
  107MOL   H14044872   2.463   2.890   4.622 -0.1221  2.0651 -3.4647
  107MOL   H14144873   2.405   2.769   4.510  1.1415 -1.0628 -0.5715
  107MOL   H14244874   2.683   2.879   4.545 -1.0377  2.1273  0.3722
  107MOL   H14344875   2.645   2.747   4.433 -0.0308  0.5511 -0.7597
  107MOL   H14444876   2.474   2.907   4.308  0.3689 -2.3488  2.1956
  107MOL   H14544877   2.634   2.970   4.287 -0.1030 -1.2258 -1.2675
  107MOL   H14644878   2.480   3.154   4.355  2.2342 -0.4867 -0.6892
  107MOL   H14744879   2.552   3.103   4.508 -0.0118 -1.6406 -0.2253
  107MOL   H14844880   2.396   3.041   4.471  0.2075  1.5891  1.6088
  107MOL   C14944881   2.559   2.548   4.999  0.2291 -0.1760 -0.0102
  107MOL   C15044882   2.695   2.517   5.070 -0.2619  0.7554  0.2343
  107MOL   C15144883   2.794   2.632   5.063 -0.3164  0.3189 -0.9140
  107MOL   O15244884   2.915   2.603   5.055  0.2151 -0.4363 -0.0038
  107MOL   O15344885   2.742   2.754   5.061 -0.1777  0.1827  0.8694
  107MOL   C15444886   2.830   2.860   5.039  0.2060  0.4545  0.6467
  107MOL   C15544887   2.754   2.986   5.005 -0.3762  0.8692  0.4307
  107MOL   C15644888   2.683   2.971   4.866  0.1054  0.1292  0.0758
  107MOL   C15744889   2.618   3.108   4.831  0.0752  0.4306 -0.0525
  107MOL   H15844890   2.493   2.474   5.045  2.0900 -1.9772 -0.1785
  107MOL   H15944891   2.520   2.643   5.038 -1.3040 -0.5918 -0.5108
  107MOL   H16044892   2.749   2.436   5.021  1.2223  2.0755 -0.3809
  107MOL   H16144893   2.910   2.838   4.968 -0.8726 -1.2188 -0.0786
  107MOL   H16244894   2.892   2.886   5.125  0.3708  0.4785  0.5209
  107MOL   H16344895   2.686   3.008   5.087 -1.7555  0.8859 -0.7002
  107MOL   H16444896   2.828   3.065   4.994  2.4552 -1.6716  0.3779
  107MOL   H16544897   2.614   2.887   4.866  0.9175 -0.5474 -0.0364
  107MOL   H16644898   2.758   2.941   4.792  0.1413 -0.3373  0.2993
  107MOL   H16744899   2.661   3.203   4.862  0.5528 -0.0315  0.7106
  107MOL   H16844900   2.514   3.102   4.863 -0.2707  1.2916 -0.9938
  107MOL   H16944901   2.612   3.119   4.723 -1.2192 -0.3252 -0.0671
  107MOL   C17044902   2.685   2.486   5.216 -0.2325 -0.3595  0.8608
  107MOL   C17144903   2.605   2.359   5.259  0.7017 -0.4847 -0.1016
  107MOL   C17244904   2.669   2.231   5.200  0.0213  0.0383 -0.0877
  107MOL   O17344905   2.774   2.186   5.241 -0.0186 -0.0801 -0.7246
  107MOL   O17444906   2.603   2.170   5.095  0.7727 -0.2474 -0.3279
  107MOL   C17544907   2.662   2.048   5.045  0.3012 -0.0692  0.5389
  107MOL   C17644908   2.611   2.042   4.902 -0.0228  0.2028  0.2333
  107MOL   C17744909   2.670   1.930   4.815  0.3201 -0.5775 -0.3077
  107MOL   C17844910   2.582   1.805   4.822  0.3360 -0.5345  0.4014
  107MOL   H17944911   2.645   2.571   5.272 -0.3314  0.7007 -0.8061
  107MOL   H18044912   2.789   2.482   5.250  0.6259  0.2065 -1.6621
  107MOL   H18144913   2.507   2.351   5.213  2.0245 -1.2583 -2.9344
  107MOL   H18244914   2.643   1.953   5.095 -1.4842 -0.0744 -0.1265
  107MOL   H18344915   2.771   2.055   5.046  0.3126 -0.2330  0.4064
  107MOL   H18444916   2.502   2.036   4.904 -0.2343  2.7630 -1.3818
  107MOL   H18544917   2.634   2.129   4.840 -0.4487  0.1266 -0.0325
  107MOL   H18644918   2.774   1.910   4.842 -0.4200 -2.3515  1.3615
  107MOL   H18744919   2.661   1.961   4.711 -0.8194  2.2650  0.5843
  107MOL   H18844920   2.597   1.741   4.909  2.4123 -0.5707  0.0408
  107MOL   H18944921   2.599   1.744   4.733  1.6280  0.0177  0.2578
  107MOL   H19044922   2.477   1.832   4.829  0.5382  1.0641 -2.1587
  107MOL   C19144923   2.607   2.345   5.410 -0.4582  0.4934 -0.1692
  107MOL   C19244924   2.553   2.470   5.480  0.4418  0.1992  0.3511
  107MOL   C19344925   2.409   2.519   5.428 -0.9985 -0.3570  0.3282
  107MOL   O19444926   2.382   2.634   5.434  0.6342 -0.1239 -1.0053
  107MOL   O19544927   2.323   2.425   5.402  0.3459 -0.4275 -0.0169
  107MOL   C19644928   2.194   2.458   5.362 -0.0776 -0.1754  0.1201
  107MOL   C19744929   2.132   2.339   5.291 -0.1695  0.1238  0.3457
  107MOL   C19844930   2.191   2.322   5.149 -0.0390  0.4251  0.9906
  107MOL   C19944931   2.129   2.226   5.054  0.7190  0.7065 -0.4083
  107MOL   H20044932   2.707   2.327   5.450  0.8947 -0.0156 -3.5790
  107MOL   H20144933   2.553   2.253   5.431  0.1952  0.3702  1.0058
  107MOL   H20244934   2.628   2.549   5.467 -0.0610  0.7707  0.8907
  107MOL   H20344935   2.185   2.551   5.307 -0.0852  0.7042  1.5852
  107MOL   H20444936   2.138   2.475   5.454 -0.7944 -1.0263 -0.1495
  107MOL   H20544937   2.166   2.255   5.352  0.4403 -0.4936 -0.8247
  107MOL   H20644938   2.024   2.350   5.285 -0.1923  0.0206  0.5621
  107MOL   H20744939   2.296   2.294   5.159 -0.0188  0.0892 -0.0703
  107MOL   H20844940   2.197   2.415   5.092 -1.4250  0.0785  0.2502
  107MOL   H20944941   2.148   2.124   5.086 -0.0022  0.5252 -0.5587
  107MOL   H21044942   2.163   2.245   4.952 -2.2229 -0.7767 -1.7217
  107MOL   H21144943   2.023   2.246   5.066  0.4140 -0.9420 -0.2688
  107MOL   C21244944   2.542   2.459   5.639  0.3551  0.1748  0.5031
  107MOL   C21344945   2.650   2.392   5.720  0.6172  0.4207  0.5289
  107MOL   C21444946   2.785   2.468   5.723  0.5050 -0.3536 -0.0820
  107MOL   O21544947   2.874   2.450   5.643 -0.0086 -0.3231 -0.4612
  107MOL   O21644948   2.779   2.574   5.809  0.3825 -0.0331 -0.6043
  107MOL   C21744949   2.884   2.659   5.833 -0.5167  0.4045 -0.1450
  107MOL   C21844950   2.817   2.802   5.826  0.2710  0.6000  0.4792
  107MOL   C21944951   2.905   2.916   5.881  0.2088  0.2445  0.6417
  107MOL   C22044952   2.833   3.054   5.903 -0.5025 -0.7252  0.4400
  107MOL   H22144953   2.446   2.411   5.657 -0.7304  1.8277 -0.6567
  107MOL   H22244954   2.547   2.563   5.670  0.3589  0.0121  1.0537
  107MOL   H22344955   2.665   2.295   5.671 -1.2593  0.6914 -0.6712
  107MOL   H22444956   2.963   2.653   5.759  2.3332  2.0910  2.6498
  107MOL   H22544957   2.924   2.649   5.934 -2.0041  2.4496  0.6830
  107MOL   H22644958   2.787   2.831   5.725  2.5681 -0.5486 -0.5476
  107MOL   H22744959   2.723   2.797   5.882  0.0863 -3.2428 -0.0693
  107MOL   H22844960   2.990   2.937   5.816  0.4694  1.0004  1.2294
  107MOL   H22944961   2.949   2.876   5.972  0.8085 -1.8238 -0.5135
  107MOL   H23044962   2.750   3.042   5.974 -0.8023 -0.6453  0.1069
  107MOL   H23144963   2.785   3.093   5.814  1.9512  0.0519 -0.5774
  107MOL   H23244964   2.902   3.128   5.944 -0.6854 -0.4084  0.1780
  107MOL   C23344965   2.599   2.361   5.862 -0.3911 -0.4875  0.2923
  107MOL   C23444966   2.682   2.260   5.947 -0.7622  0.3509  0.3988
  107MOL   C23544967   2.678   2.299   6.096  0.6587  0.7568  0.5103
  107MOL   O23644968   2.595   2.376   6.143 -0.0981  0.0567  0.6746
  107MOL   O23744969   2.769   2.239   6.173 -0.4167 -0.2805 -0.0959
  107MOL   C23844970   2.784   2.266   6.313 -0.1307 -0.3849 -0.6708
  107MOL   C23944971   2.695   2.178   6.398 -0.1554 -0.8563  0.1302
  107MOL   C24044972   2.708   2.231   6.543 -0.6050 -0.1329 -0.1499
  107MOL   C24144973   2.620   2.152   6.640  0.0765 -0.4155  0.0332
  107MOL   H24244974   2.506   2.308   5.844 -0.9060 -0.1015  1.7369
  107MOL   H24344975   2.565   2.449   5.917  1.8388  0.1191  0.7627
  107MOL   H24444976   2.788   2.266   5.925 -0.6016  0.0228  1.0707
  107MOL   H24544977   2.765   2.370   6.338 -0.3321 -0.0535 -2.1859
  107MOL   H24644978   2.890   2.262   6.335 -0.4723  2.7240  1.8024
  107MOL   H24744979   2.590   2.186   6.369 -0.5883 -2.6271  1.1118
  107MOL   H24844980   2.718   2.071   6.396  2.0035 -0.4146  0.5182
  107MOL   H24944981   2.692   2.337   6.561 -3.3570 -0.5545  0.0024
  107MOL   H25044982   2.813   2.223   6.572 -1.3016  1.8424  3.0958
  107MOL   H25144983   2.530   2.209   6.660 -0.6453 -1.7317  0.5733
  107MOL   H25244984   2.666   2.137   6.738 -0.2224 -0.0990  0.2240
  107MOL   H25344985   2.600   2.055   6.596 -1.6633  0.4112 -1.0081
  107MOL   C25444986   2.631   2.113   5.949 -0.1455  0.0037 -0.9042
  107MOL   C25544987   2.619   2.050   5.815 -0.0717  0.2616  0.6990
  107MOL   C25644988   2.754   2.037   5.739 -0.4328  1.3194 -0.3017
  107MOL   O25744989   2.873   2.059   5.787  0.6421  0.1469 -0.1299
  107MOL   O25844990   2.738   1.993   5.617 -0.3905 -0.3716 -0.3390
  107MOL   C25944991   2.852   1.977   5.525 -0.4440  0.0471 -0.4488
  107MOL   C26044992   2.818   1.883   5.407 -0.2526  0.0031 -0.2259
  107MOL   C26144993   2.931   1.865   5.308  0.5549  0.3848 -0.7998
  107MOL   C26244994   2.914   1.769   5.195  0.9877  0.2258  0.1025
  107MOL   H26344995   2.537   2.100   6.003 -0.3491 -1.2859 -1.5492
  107MOL   H26444996   2.692   2.052   6.016 -0.7978  1.4750  1.0824
  107MOL   H26544997   2.554   2.106   5.747 -0.4666 -1.4526 -0.3713
  107MOL   H26644998   2.931   1.932   5.584 -1.4719 -0.0439  0.8730
  107MOL   H26744999   2.881   2.077   5.492 -0.1999  0.7356  1.7626
  107MOL   H26845000   2.787   1.784   5.441 -0.6003 -0.2021 -1.1126
  107MOL   H26945001   2.736   1.933   5.355 -2.1181 -1.5654  1.1570
  107MOL   H27045002   3.019   1.832   5.362  0.8440  1.7852 -0.3750
  107MOL   H27145003   2.956   1.967   5.278  0.6889  0.5526 -0.1316
  107MOL   H27245004   2.987   1.765   5.114 -0.2196  0.3754 -1.0213
  107MOL   H27345005   2.819   1.788   5.144  0.5361  1.0936  1.2423
  107MOL   H27445006   2.899   1.671   5.240  1.6727 -1.1006 -2.4683
  107MOL   C27545007   2.540   1.914   5.814 -0.6539  0.4848  0.3101
  107MOL   C27645008   2.384   1.932   5.840  0.7024 -0.0955 -0.1814
  107MOL   C27745009   2.303   2.018   5.739  0.0537 -0.8946 -0.0292
  107MOL   O27845010   2.225   2.109   5.765 -0.4880 -0.1414  0.1298
  107MOL   O27945011   2.322   1.972   5.616  0.0064  0.0445 -0.1645
  107MOL   C28045012   2.246   2.025   5.502  0.7102 -0.0497 -0.5124
  107MOL   C28145013   2.214   1.908   5.412 -0.3150  0.3271  0.2462
  107MOL   C28245014   2.330   1.839   5.343  0.2596 -0.2155  0.2739
  107MOL   C28345015   2.417   1.931   5.261  0.1259 -0.5110  0.1878
  107MOL   H28445016   2.588   1.861   5.897  1.9517  3.1853  0.5915
  107MOL   H28545017   2.549   1.858   5.722  1.8096  0.2556  0.6628
  107MOL   H28645018   2.378   1.991   5.931 -1.8049 -0.2277 -0.2261
  107MOL   H28745019   2.305   2.100   5.449  0.9512  0.7004  0.7853
  107MOL   H28845020   2.150   2.071   5.524 -0.4963 -2.2975 -1.0103
  107MOL   H28945021   2.157   1.836   5.471 -2.0539  0.5841 -1.0618
  107MOL   H29045022   2.142   1.940   5.336  0.1396  0.4946 -0.1142
  107MOL   H29145023   2.296   1.758   5.279  0.3884 -1.1858  1.4186
  107MOL   H29245024   2.396   1.793   5.417  1.0025  0.1043 -0.1781
  107MOL   H29345025   2.495   1.862   5.228  0.9292  1.1581 -1.4171
  107MOL   H29445026   2.461   2.012   5.319 -2.0837 -0.2494  1.5670
  107MOL   H29545027   2.355   1.977   5.184 -0.0587 -1.6192 -0.3378
  107MOL   C29645028   2.306   1.804   5.877 -0.1707  0.0209 -0.6624
  107MOL   C29745029   2.288   1.697   5.763  0.3889  0.3834 -0.8919
  107MOL   C29845030   2.420   1.624   5.732  0.4173  0.1545 -0.5443
  107MOL   O29945031   2.513   1.620   5.812  0.1306  0.5510 -0.0620
  107MOL   O30045032   2.425   1.582   5.604 -0.3469  0.4327  0.3272
  107MOL   C30145033   2.545   1.523   5.552 -0.0206 -0.0999  0.4530
  107MOL   C30245034   2.535   1.498   5.402 -0.0236 -0.1369  0.2847
  107MOL   C30345035   2.663   1.470   5.329 -0.3358 -0.0284 -0.3190
  107MOL   C30445036   2.638   1.485   5.172 -0.8082 -0.2858  0.2607
  107MOL   H30545037   2.214   1.839   5.922 -0.1551 -1.2439  0.3950
  107MOL   H30645038   2.362   1.760   5.960  1.5365  0.6407 -1.4629
  107MOL   H30745039   2.266   1.754   5.673 -2.9854  1.7969  0.7178
  107MOL   H30845040   2.558   1.433   5.613 -2.8159  0.3014  1.7173
  107MOL   H30945041   2.628   1.594   5.562  0.1210  0.1878 -2.3134
  107MOL   H31045042   2.468   1.414   5.386 -0.3275 -0.0587  1.0959
  107MOL   H31145043   2.496   1.590   5.360  1.9771  1.0718  0.9674
  107MOL   H31245044   2.695   1.368   5.350 -0.8764 -0.2765 -0.6827
  107MOL   H31345045   2.746   1.533   5.359 -0.0518 -0.8801  0.7321
  107MOL   H31445046   2.534   1.476   5.143 -1.0120  0.2143  0.8206
  107MOL   H31545047   2.706   1.430   5.107  0.4629  0.9728  0.4895
  107MOL   H31645048   2.664   1.590   5.155 -4.4295  0.1378 -3.2694
  107MOL   C31745049   2.159   1.607   5.762  0.4873  0.3650 -0.6628
  107MOL   C31845050   2.135   1.506   5.880 -0.3043  0.1622 -0.3505
  107MOL   C31945051   2.117   1.572   6.020 -0.3610  0.6024 -0.4732
  107MOL   O32045052   2.190   1.542   6.112  0.3471 -0.7176  0.3364
  107MOL   O32145053   2.012   1.662   6.019 -0.1187 -0.3188 -0.4281
  107MOL   C32245054   1.968   1.725   6.141  0.5746 -0.2376 -0.7309
  107MOL   C32345055   1.815   1.754   6.140 -0.4344 -0.1322  0.7258
  107MOL   C32445056   1.777   1.806   6.274  0.5713 -0.5487 -0.6508
  107MOL   C32545057   1.637   1.868   6.265  0.2402  0.7170 -0.0968
  107MOL   H32645058   2.136   1.549   5.673  0.3765  0.3199 -0.6047
  107MOL   H32745059   2.076   1.677   5.773  0.8231  0.4039  1.9342
  107MOL   H32845060   2.231   1.455   5.890 -0.0121  1.1831  2.4550
  107MOL   H32945061   2.013   1.823   6.156 -0.3049 -0.2418  2.3404
  107MOL   H33045062   1.998   1.659   6.222 -1.2195 -3.2281 -2.4400
  107MOL   H33145063   1.788   1.824   6.061 -0.2759 -0.1433  0.6630
  107MOL   H33245064   1.759   1.661   6.125 -0.2460 -0.3324  1.2697
  107MOL   H33345065   1.853   1.875   6.310  0.7259 -1.2703  0.4232
  107MOL   H33445066   1.758   1.720   6.339 -1.5017 -1.1078 -1.9497
  107MOL   H33545067   1.595   1.910   6.357 -1.1839 -0.6891 -0.0753
  107MOL   H33645068   1.569   1.792   6.227 -1.1969  0.9741  1.9060
  107MOL   H33745069   1.626   1.951   6.195 -0.4084 -0.0624 -0.9232
  107MOL   C33845070   2.015   1.411   5.842  0.2386 -0.4924 -0.5682
  107MOL   C33945071   1.991   1.276   5.914 -0.1217  0.0226  0.2824
  107MOL   C34045072   1.979   1.292   6.060  0.0127 -0.4971  0.2489
  107MOL   O34145073   2.043   1.223   6.141 -0.1414 -0.2771  0.2973
  107MOL   O34245074   1.870   1.365   6.095  0.1510 -0.7593 -0.5313
  107MOL   C34345075   1.834   1.385   6.234  0.1520  0.7194  0.2560
  107MOL   C34445076   1.745   1.274   6.281  0.1898  0.4114  0.3378
  107MOL   C34545077   1.605   1.288   6.221  0.6152  0.0960 -0.0149
  107MOL   C34645078   1.533   1.427   6.231 -0.1643  0.0642  0.1998
  107MOL   H34745079   2.020   1.394   5.735 -1.1956 -1.2360 -0.5391
  107MOL   H34845080   1.922   1.468   5.849 -0.5071 -1.7362 -0.0751
  107MOL   H34945081   2.078   1.217   5.886 -0.7104 -0.1108 -1.3403
  107MOL   H35045082   1.794   1.486   6.237  0.8427  1.0619 -1.2739
  107MOL   H35145083   1.923   1.402   6.295  0.0449  2.1266  0.0328
  107MOL   H35245084   1.789   1.174   6.270 -0.2381  0.0279  2.0028
  107MOL   H35345085   1.729   1.274   6.388 -0.5456 -3.3077  0.3141
  107MOL   H35445086   1.530   1.219   6.259 -1.8429  1.4616 -2.1443
  107MOL   H35545087   1.604   1.254   6.117  0.4809 -1.4813  0.4989
  107MOL   H35645088   1.569   1.501   6.160  1.0403 -1.4993 -0.8488
  107MOL   H35745089   1.544   1.476   6.328  2.2809 -1.0918  0.5483
  107MOL   H35845090   1.428   1.401   6.214  0.9045 -3.6246 -1.2468
  107MOL   C35945091   1.865   1.205   5.850  0.3881 -0.0917 -0.9876
  107MOL   C36045092   1.820   1.070   5.918  0.7293 -0.5180  0.1047
  107MOL   C36145093   1.716   0.996   5.829 -0.6097  0.3363  0.3357
  107MOL   O36245094   1.602   0.971   5.873 -0.0109 -0.8233  0.4294
  107MOL   O36345095   1.760   0.955   5.714  0.3860 -0.0883  0.4070
  107MOL   C36445096   1.680   0.890   5.607  0.0704  0.3498 -0.8716
  107MOL   C36545097   1.740   0.754   5.587 -0.4682 -0.6135 -0.4658
  107MOL   C36645098   1.681   0.669   5.469  1.0455  0.3437  0.4802
  107MOL   C36745099   1.770   0.541   5.445  0.2805 -0.7335  0.4302
  107MOL   H36845100   1.890   1.183   5.746  0.7197  0.6055 -1.0595
  107MOL   H36945101   1.784   1.277   5.843 -0.5014 -1.1415 -1.8307
  107MOL   H37045102   1.771   1.090   6.013 -1.7128 -1.1146 -0.9706
  107MOL   H37145103   1.677   0.956   5.520 -0.3612  1.0789 -0.3096
  107MOL   H37245104   1.581   0.872   5.648  0.5390  1.0568  0.6259
  107MOL   H37345105   1.847   0.764   5.569 -0.2812 -0.8998  0.4813
  107MOL   H37445106   1.736   0.691   5.675 -0.2295  1.8393  1.3414
  107MOL   H37545107   1.687   0.736   5.384 -1.0816  0.9947  0.7958
  107MOL   H37645108   1.576   0.640   5.478  0.4501  2.2326 -0.2156
  107MOL   H37745109   1.876   0.560   5.431  0.6988 -2.2354  1.4461
  107MOL   H37845110   1.738   0.498   5.350 -0.2595  0.6956 -0.0496
  107MOL   H37945111   1.770   0.462   5.520  2.0702 -2.2480 -1.1047
  107MOL   C38045112   1.942   0.977   5.935 -0.4038 -0.3964  0.4918
  107MOL   C38145113   1.914   0.828   5.985  0.1648  0.3935 -0.5213
  107MOL   C38245114   2.028   0.733   5.941  0.8833 -0.1495 -0.2945
  107MOL   O38345115   1.996   0.638   5.862  0.2379 -0.4563  0.7263
  107MOL   O38445116   2.153   0.767   5.979 -0.7725  0.5099  0.2358
  107MOL   C38545117   2.256   0.671   5.970  0.0973  0.4248  0.2558
  107MOL   C38645118   2.285   0.595   6.100  0.8298  0.1815 -0.3774
  107MOL   C38745119   2.385   0.677   6.183 -0.2937  0.2210  0.3062
  107MOL   C38845120   2.434   0.604   6.318 -0.1387 -0.2523 -0.1546
  107MOL   H38945121   2.028   1.022   5.984  1.1280 -2.5970 -0.0684
  107MOL   H39045122   1.991   0.965   5.838 -1.0238  1.8615 -0.1355
  107MOL   H39145123   1.829   0.787   5.931  1.1051 -1.1612 -0.8634
  107MOL   H39245124   2.350   0.718   5.941 -0.8483  2.4595  0.4003
  107MOL   H39345125   2.238   0.600   5.889  1.7476  1.6966 -1.2828
  107MOL   H39445126   2.192   0.574   6.153 -0.3295  0.3297 -2.3230
  107MOL   H39545127   2.332   0.500   6.074 -0.9367 -0.8459  0.1139
  107MOL   H39645128   2.338   0.765   6.226  0.1639  0.5518  0.1244
  107MOL   H39745129   2.468   0.708   6.120  0.7240 -0.4586  1.2743
  107MOL   H39845130   2.347   0.561   6.368 -1.1019  2.1906  0.3408
  107MOL   H39945131   2.489   0.672   6.384 -0.3791 -1.3528  1.1996
  107MOL   H40045132   2.486   0.512   6.289  1.8620  1.1229 -1.0663
  107MOL   C40145133   1.883   0.832   6.140 -0.1271 -0.2050  0.0558
  107MOL   C40245134   1.995   0.848   6.242 -0.0901  0.3713 -0.5644
  107MOL   C40345135   1.966   0.828   6.386  0.0622 -0.7774 -0.7032
  107MOL   O40445136   2.040   0.760   6.456 -0.4031 -0.2534  0.6684
  107MOL   O40545137   1.865   0.903   6.427  0.1765 -0.4717  0.0714
  107MOL   C40645138   1.804   0.888   6.552  0.1172  0.4756 -0.4402
  107MOL   C40745139   1.670   0.969   6.549 -0.5920 -0.6820  0.3368
  107MOL   C40845140   1.573   0.928   6.443  0.5066  0.1111  0.2047
  107MOL   C40945141   1.433   0.998   6.441 -0.3242  0.0454 -1.0642
  107MOL   H41045142   1.830   0.742   6.172 -0.4464  0.8786  2.6466
  107MOL   H41145143   1.811   0.911   6.160 -2.7388 -2.4371 -0.2254
  107MOL   H41245144   2.051   0.940   6.225  0.0306  0.4818  0.4372
  107MOL   H41345145   1.876   0.914   6.630  1.8951 -0.8075 -1.6208
  107MOL   H41445146   1.777   0.786   6.579 -2.8695  1.0441 -1.0643
  107MOL   H41545147   1.626   0.959   6.649 -0.5458 -1.5680  0.2689
  107MOL   H41645148   1.687   1.076   6.542 -0.3101 -0.8241 -1.2960
  107MOL   H41745149   1.543   0.823   6.446 -2.3325  0.8803  0.3881
  107MOL   H41845150   1.619   0.949   6.346 -0.9100 -0.7841 -0.6811
  107MOL   H41945151   1.379   0.960   6.355  0.3965 -0.7773 -1.1658
  107MOL   H42045152   1.451   1.105   6.449  0.3142 -0.1493  0.1739
  107MOL   H42145153   1.380   0.981   6.535  0.8524 -1.8135 -0.7018
  107MOL   H42245154   2.065   0.769   6.217  0.8234  0.9534  0.1517
  108MOL     C145155   4.955   2.089   7.741  0.7733 -0.3105 -0.3151
  108MOL     C245156   4.914   2.231   7.771  0.4179 -0.0380 -0.1342
  108MOL     C345157   4.762   2.229   7.780  0.7315 -0.4984  0.3978
  108MOL     O445158   4.687   2.251   7.680 -0.9132  0.0569  0.0014
  108MOL     O545159   4.721   2.193   0.049 -0.3279  1.0713 -0.1530
  108MOL     C645160   4.582   2.192   0.067  0.2477 -0.5218 -0.2569
  108MOL     C745161   4.547   2.208   0.214  0.4467  0.7497 -0.3327
  108MOL     C845162   4.559   2.080   0.302 -0.0599 -0.0734 -0.8143
  108MOL     C945163   4.697   2.017   0.325  0.4984 -0.2378 -0.0229
  108MOL    H1045164   5.063   2.086   7.733  0.8241  2.5621 -1.2594
  108MOL    H1145165   4.942   2.016   7.822 -2.5100 -1.0398 -1.4257
  108MOL    H1245166   4.926   2.301   7.688  1.4434  0.1083  0.1190
  108MOL    H1345167   4.543   2.103   0.017  1.5249 -1.2096 -0.0362
  108MOL    H1445168   4.541   2.278   0.012  0.8420  0.6558  1.1232
  108MOL    H1545169   4.601   2.289   0.263 -1.9519  2.5605 -0.6206
  108MOL    H1645170   4.446   2.246   0.227  0.0547 -0.7184  1.0539
  108MOL    H1745171   4.494   2.005   0.258 -1.5668  0.8088 -0.1480
  108MOL    H1845172   4.533   2.101   0.406  0.7959 -1.9699 -0.2016
  108MOL    H1945173   4.767   2.012   0.242  1.2470  1.1753  0.5039
  108MOL    H2045174   4.681   1.918   0.370  0.0860 -0.6666 -1.1060
  108MOL    H2145175   4.758   2.078   0.392 -0.0968  0.2178  0.1099
  108MOL    H2245176   4.906   2.038   7.658  0.6683 -0.6249 -0.0658
  108MOL    C2345177   4.991   2.284   0.040  0.6875  0.1247 -0.0219
  108MOL    C2445178   5.139   2.332   0.012 -1.2225  0.2323 -0.4531
  108MOL    C2545179   5.127   2.463   7.780  0.5223 -0.6627  0.0995
  108MOL    O2645180   5.054   2.558   7.810  0.1989  0.3527  0.6425
  108MOL    O2745181   5.197   2.440   7.666  0.2880 -0.0676  0.6783
  108MOL    C2845182   5.216   2.550   7.577 -0.3250 -0.0638  0.1269
  108MOL    C2945183   5.233   2.496   7.435 -0.1331  0.0711  0.3338
  108MOL    C3045184   5.351   2.402   7.421 -0.0935 -0.5990 -0.3175
  108MOL    C3145185   5.355   2.334   7.284  0.1721 -0.2409  0.3422
  108MOL    H3245186   4.983   2.212   0.121  1.2916 -0.9912 -0.9495
  108MOL    H3345187   4.940   2.373   0.076 -0.0777  0.1250 -1.0870
  108MOL    H3445188   5.188   2.262   7.797 -0.4521  0.0123  0.3021
  108MOL    H3545189   5.299   2.608   7.616  0.4190 -0.0493 -1.4354
  108MOL    H3645190   5.129   2.615   7.571  0.8424  1.5712  0.8419
  108MOL    H3745191   5.143   2.436   7.417 -0.5026 -0.7245  4.3035
  108MOL    H3845192   5.244   2.569   7.356 -1.1836  0.8522  0.8878
  108MOL    H3945193   5.346   2.334   7.505  1.5872 -1.2477 -0.7086
  108MOL    H4045194   5.444   2.455   7.441  0.3992 -1.4108 -0.4103
  108MOL    H4145195   5.263   2.278   7.265  0.4921 -1.4423  2.1998
  108MOL    H4245196   5.445   2.274   7.273  1.4789  1.7344 -0.0194
  108MOL    H4345197   5.350   2.411   7.207 -2.6504 -1.2585 -0.5567
  108MOL    C4445198   5.219   2.347   0.141  0.1809 -0.3516  0.2485
  108MOL    C4545199   5.376   2.347   0.126 -0.0699  0.5004  0.2427
  108MOL    C4645200   5.433   2.473   0.193  0.4115  0.3683  0.7038
  108MOL    O4745201   5.499   2.476   0.298 -0.4342  0.5099 -0.2386
  108MOL    O4845202   5.394   2.581   0.121  0.2410 -0.5027  0.1068
  108MOL    C4945203   5.403   2.711   0.174 -0.1933 -0.1846 -0.0030
  108MOL    C5045204   5.416   2.810   0.059 -0.5691  0.5965  0.6392
  108MOL    C5145205   5.540   2.779   7.824  0.4693 -0.3231  0.3126
  108MOL    C5245206   5.555   2.881   7.712  0.3383 -0.0953 -0.1380
  108MOL    H5345207   5.196   2.259   0.201  1.0550 -1.3519 -0.8507
  108MOL    H5445208   5.188   2.442   0.183  0.3482  0.1470 -0.7436
  108MOL    H5545209   5.404   2.353   0.020  1.9367  0.2164  0.7320
  108MOL    H5645210   5.484   2.729   0.244 -0.9053  1.0813  0.5240
  108MOL    H5745211   5.307   2.729   0.224  0.1882  0.4991  0.4811
  108MOL    H5845212   5.332   2.812   7.842 -1.2034 -3.2703  1.2062
  108MOL    H5945213   5.429   2.911   0.099 -0.9763  1.9321 -2.4756
  108MOL    H6045214   5.518   2.682   7.780  1.9865 -0.7058  0.3922
  108MOL    H6145215   5.634   2.779   0.027  0.0023 -0.0319  1.1206
  108MOL    H6245216   5.655   2.868   7.670  0.4273 -0.3215  0.1385
  108MOL    H6345217   5.544   2.985   7.744 -1.8427 -0.3779  0.1127
  108MOL    H6445218   5.475   2.858   7.643  0.4424 -0.5230 -0.1179
  108MOL    C6545219   5.432   2.214   0.182  0.4190 -0.0907 -0.2072
  108MOL    C6645220   5.383   2.083   0.101  0.4522  0.0915  0.4557
  108MOL    C6745221   5.428   2.091   7.813 -0.0448  0.1437  0.3136
  108MOL    O6845222   5.338   2.095   7.725 -0.2972  0.2031  0.1662
  108MOL    O6945223   5.560   2.108   7.798  0.3870  1.5556  0.0140
  108MOL    C7045224   5.625   2.157   7.681 -0.1534  1.3872  0.0386
  108MOL    C7145225   5.643   2.310   7.697  0.2316  0.0568 -0.0190
  108MOL    C7245226   5.758   2.351   7.791 -0.3865 -0.9407  0.2088
  108MOL    C7345227   5.789   2.503   7.790  0.4625  1.0543 -0.3546
  108MOL    H7445228   5.398   2.211   0.285 -0.6908 -0.0067 -0.5615
  108MOL    H7545229   5.541   2.217   0.184  0.4431 -1.3375  2.9511
  108MOL    H7645230   5.275   2.089   0.108  0.5952  3.8765  0.3211
  108MOL    H7745231   5.568   2.141   7.589  3.0195 -2.3316 -1.4439
  108MOL    H7845232   5.718   2.107   7.655 -0.3930  0.8127  0.2644
  108MOL    H7945233   5.669   2.341   7.596  0.4201 -1.9814 -0.6163
  108MOL    H8045234   5.544   2.350   7.718  1.1418  2.4535 -0.1569
  108MOL    H8145235   5.845   2.292   7.763  0.4892 -0.9690  2.9014
  108MOL    H8245236   5.735   2.317   0.039 -4.2482 -0.9711 -0.6101
  108MOL    H8345237   5.890   2.530   7.822  0.3592 -0.1819  1.0451
  108MOL    H8445238   5.717   2.556   0.000  0.2267 -0.5372  0.7176
  108MOL    H8545239   5.787   2.538   7.686 -2.0407  0.5970 -0.4853
  108MOL    C8645240   5.430   1.949   0.172 -0.0907  0.1522  0.1058
  108MOL    C8745241   5.354   1.821   0.134 -0.5212 -0.6487 -0.2908
  108MOL    C8845242   5.198   1.836   0.154 -0.3690  0.7072  0.1109
  108MOL    O8945243   5.123   1.860   0.064 -0.0274  0.0014  0.1812
  108MOL    O9045244   5.156   1.822   0.289 -0.1105  0.0262 -0.5846
  108MOL    C9145245   5.023   1.803   0.318 -0.1500  0.6105 -0.2656
  108MOL    C9245246   5.005   1.654   0.358  0.1931  0.0078  0.1981
  108MOL    C9345247   4.859   1.622   0.381 -0.6315 -0.4818  0.2262
  108MOL    C9445248   4.833   1.479   0.419  0.3389 -0.4240 -0.1754
  108MOL    H9545249   5.450   1.958   0.278 -2.0635  1.6096  0.3799
  108MOL    H9645250   5.533   1.939   0.136  0.1622  0.5195  0.7062
  108MOL    H9745251   5.379   1.751   0.214 -3.3270 -0.0379  1.1610
  108MOL    H9845252   4.963   1.822   0.228 -0.1587 -0.5377 -0.5116
  108MOL    H9945253   4.991   1.873   0.394  1.9688  0.6998  0.5590
  108MOL   H10045254   5.045   1.580   0.288  0.6057 -2.6476  3.1159
  108MOL   H10145255   5.050   1.643   0.456  0.1375 -0.2222  0.1979
  108MOL   H10245256   4.800   1.653   0.294 -1.7099 -0.0453  1.0942
  108MOL   H10345257   4.823   1.686   0.461  3.7089  3.3479 -0.6937
  108MOL   H10445258   4.735   1.467   0.464  0.4568 -1.6440 -0.2029
  108MOL   H10545259   4.906   1.448   0.494 -0.6519 -1.5207  0.3495
  108MOL   H10645260   4.851   1.413   0.334 -0.2082  1.2307 -1.6077
  108MOL   C10745261   5.402   1.758   7.850 -0.1251 -0.5144  0.5466
  108MOL   C10845262   5.534   1.670   0.000  0.1850 -0.0348 -0.3538
  108MOL   C10945263   5.512   1.539   0.080 -0.1696  0.5909  0.1474
  108MOL   O11045264   5.590   1.520   0.175  0.3593 -0.1317 -0.0302
  108MOL   O11145265   5.423   1.456   0.027  0.5766  0.2712  0.1929
  108MOL   C11245266   5.411   1.317   0.062  0.0018 -0.2781  0.4359
  108MOL   C11345267   5.279   1.278   0.118 -0.6624 -0.2359 -0.0661
  108MOL   C11445268   5.244   1.311   0.258  0.4039 -0.4270 -1.0296
  108MOL   C11545269   5.112   1.254   0.308  0.1825  0.3539 -0.8490
  108MOL   H11645270   5.420   1.833   7.773  2.3665 -1.2016  0.4119
  108MOL   H11745271   5.317   1.699   7.814 -0.5036  1.2944 -1.6226
  108MOL   H11845272   5.601   1.726   0.066 -0.3364 -2.0396  1.9562
  108MOL   H11945273   5.491   1.278   0.125  0.3522 -0.3089 -0.0260
  108MOL   H12045274   5.429   1.262   7.823  1.9704  2.6715 -1.0402
  108MOL   H12145275   5.209   1.314   0.043  0.0605  0.2510 -0.5207
  108MOL   H12245276   5.269   1.170   0.112 -0.8343 -0.4043  2.6038
  108MOL   H12345277   5.238   1.420   0.260  0.6038 -0.4417  0.9149
  108MOL   H12445278   5.324   1.276   0.324 -1.0529 -0.5799  0.6862
  108MOL   H12545279   5.093   1.275   0.413  0.0969 -1.8994 -0.3958
  108MOL   H12645280   5.106   1.146   0.297  2.0930  0.1877 -0.3649
  108MOL   H12745281   5.027   1.292   0.251  0.3843  0.5035 -1.0522
  108MOL   C12845282   5.587   1.627   7.712  0.1128  0.3513  0.3622
  108MOL   C12945283   5.670   1.735   7.638 -0.3355 -0.1261 -0.0260
  108MOL   C13045284   5.792   1.775   7.712 -0.2426 -0.0872 -0.0381
  108MOL   O13145285   5.813   1.893   7.754  0.1180 -0.2668 -0.1885
  108MOL   O13245286   5.880   1.677   7.733  1.0646  0.1046 -0.7186
  108MOL   C13345287   6.001   1.694   7.806 -0.1193 -0.2645 -0.0505
  108MOL   C13445288   5.998   1.590   0.066 -0.3830  0.9608  0.0636
  108MOL   C13545289   6.137   1.575   0.125  0.7942  0.1368  0.3275
  108MOL   C13645290   6.141   1.487   0.256  0.2515  0.3856  0.0770
  108MOL   H13745291   5.501   1.596   7.651  1.7834 -0.2009 -1.7903
  108MOL   H13845292   5.653   1.541   7.723  0.1334  0.4450  0.9360
  108MOL   H13945293   5.611   1.826   7.647  2.9263  1.9563  0.8248
  108MOL   H14045294   6.014   1.796   7.841 -0.9930  0.4867 -1.8593
  108MOL   H14145295   6.087   1.665   7.746  1.5877  1.0561  1.6825
  108MOL   H14245296   5.932   1.616   0.150  0.7333  0.5204  1.0946
  108MOL   H14345297   5.974   1.489   0.033 -0.2816  1.2145 -0.7835
  108MOL   H14445298   6.162   1.680   0.140  2.5076 -0.3911  1.3624
  108MOL   H14545299   6.201   1.541   0.044  0.0830  1.4582 -0.8181
  108MOL   H14645300   6.084   1.395   0.254 -0.1881  0.6718 -0.3865
  108MOL   H14745301   6.091   1.535   0.340 -0.6407  2.9188 -1.8444
  108MOL   H14845302   6.246   1.468   0.278  0.0776 -1.2189 -0.4591
  108MOL   C14945303   5.705   1.712   7.497 -0.1955 -0.1188 -0.1090
  108MOL   C15045304   5.595   1.695   7.395  1.4416  0.3481 -0.4366
  108MOL   C15145305   5.506   1.822   7.397  0.5947  0.3604 -0.6375
  108MOL   O15245306   5.546   1.938   7.374 -0.1296 -0.0627  0.3016
  108MOL   O15345307   5.378   1.787   7.412 -0.0890 -0.8225 -0.1506
  108MOL   C15445308   5.273   1.883   7.401  0.4207 -0.1151 -0.0317
  108MOL   C15545309   5.141   1.811   7.444  0.6332 -0.0398 -0.1726
  108MOL   C15645310   5.143   1.775   7.592  0.3566  0.1726  0.3079
  108MOL   C15745311   5.000   1.731   7.637  0.6228  0.7755 -0.0264
  108MOL   H15845312   5.770   1.625   7.496 -1.4709 -1.1236  1.3849
  108MOL   H15945313   5.760   1.797   7.457  0.4612 -0.1107  0.7944
  108MOL   H16045314   5.544   1.601   7.420  0.3651  0.9196 -0.4401
  108MOL   H16145315   5.275   1.914   7.296  4.5367 -1.7472 -0.5396
  108MOL   H16245316   5.288   1.972   7.462  0.0546  0.0395 -0.1674
  108MOL   H16345317   5.063   1.885   7.427 -0.6682 -1.1751  0.7825
  108MOL   H16445318   5.126   1.725   7.380  2.3026 -0.8123  0.4403
  108MOL   H16545319   5.174   1.860   7.652  1.7097 -1.2284  1.6504
  108MOL   H16645320   5.216   1.697   7.614  2.2993  2.1915  1.2869
  108MOL   H16745321   4.926   1.810   7.649 -1.5134 -0.8998 -1.6527
  108MOL   H16845322   4.991   1.694   7.738 -1.9050  2.5609  0.4307
  108MOL   H16945323   4.957   1.661   7.566  3.0625  0.8440 -1.6503
  108MOL   C17045324   5.659   1.679   7.255 -0.1113  0.4573 -0.5228
  108MOL   C17145325   5.572   1.674   7.127  0.3863 -0.6963 -0.3449
  108MOL   C17245326   5.659   1.704   6.999 -0.3340  0.5697  0.1551
  108MOL   O17345327   5.781   1.717   7.004 -0.7106 -0.6288 -0.2137
  108MOL   O17445328   5.578   1.715   6.891 -0.2993  0.0537 -0.2249
  108MOL   C17545329   5.631   1.764   6.772 -0.2193 -0.1853 -0.2274
  108MOL   C17645330   5.524   1.778   6.672  0.0832 -0.0756 -0.0259
  108MOL   C17745331   5.408   1.876   6.708 -0.1842 -0.1256 -0.1871
  108MOL   C17845332   5.319   1.919   6.591 -0.2419 -0.0445  0.1303
  108MOL   H17945333   5.732   1.599   7.258  1.2651  1.7423  1.1673
  108MOL   H18045334   5.731   1.760   7.255  1.2332 -0.7082  0.7260
  108MOL   H18145335   5.489   1.745   7.130 -0.1449 -0.8988 -5.0910
  108MOL   H18245336   5.705   1.695   6.732 -0.9902 -0.7549 -0.6815
  108MOL   H18345337   5.676   1.863   6.775 -2.2856  0.7508  2.4686
  108MOL   H18445338   5.573   1.807   6.579 -0.6941  2.0336  0.1943
  108MOL   H18545339   5.481   1.678   6.657  1.9107 -1.0167  0.8609
  108MOL   H18645340   5.476   1.958   6.732  0.4012  0.1453 -2.6405
  108MOL   H18745341   5.348   1.856   6.797 -0.7545  3.1628  0.2284
  108MOL   H18845342   5.345   1.874   6.496  0.7286 -0.6209  0.6562
  108MOL   H18945343   5.320   2.026   6.573 -0.0031 -0.1561 -0.5096
  108MOL   H19045344   5.222   1.874   6.615  0.5716 -0.9006  1.9819
  108MOL   C19145345   5.510   1.531   7.120  0.7162  0.2422  0.3231
  108MOL   C19245346   5.361   1.505   7.172 -0.1742 -0.0948 -0.3815
  108MOL   C19345347   5.268   1.590   7.076 -0.7894 -0.2246  0.4476
  108MOL   O19445348   5.189   1.676   7.119 -0.0398 -0.0922  0.3425
  108MOL   O19545349   5.274   1.558   6.946 -0.0031  0.8359 -0.0287
  108MOL   C19645350   5.179   1.616   6.863  0.2073 -0.5092  0.2049
  108MOL   C19745351   5.204   1.552   6.729  0.3461  0.0298  0.0291
  108MOL   C19845352   5.082   1.544   6.641  0.1778 -0.0472 -0.2342
  108MOL   C19945353   5.121   1.501   6.501  0.1984 -0.3941  0.0022
  108MOL   H20045354   5.577   1.464   7.173 -0.1020 -0.8696 -0.0414
  108MOL   H20145355   5.523   1.494   7.018  2.6500  2.1379 -0.1530
  108MOL   H20245356   5.350   1.539   7.275  0.7076 -1.8522  0.3137
  108MOL   H20345357   5.181   1.725   6.860  0.1241 -0.5520 -2.1021
  108MOL   H20445358   5.077   1.591   6.890  0.2971 -0.4338  0.6253
  108MOL   H20545359   5.280   1.605   6.671 -1.2268  0.4629 -1.7071
  108MOL   H20645360   5.236   1.448   6.737  1.2828  0.2301 -0.8838
  108MOL   H20745361   5.039   1.645   6.639 -0.6807 -0.4358 -1.8866
  108MOL   H20845362   5.008   1.473   6.677  0.6077 -0.7999 -0.8278
  108MOL   H20945363   5.173   1.581   6.447 -1.8089  1.1658  0.3269
  108MOL   H21045364   5.031   1.471   6.448 -1.4413  0.9712  1.9746
  108MOL   H21145365   5.182   1.411   6.509  1.4228  0.4505  0.2859
  108MOL   C21245366   5.314   1.357   7.165 -0.3437  0.9906 -0.2599
  108MOL   C21345367   5.411   1.256   7.223 -0.2344 -0.9019 -0.2155
  108MOL   C21445368   5.420   1.290   7.377 -0.0479 -0.0977  0.2716
  108MOL   O21545369   5.527   1.315   7.435  0.0078  0.0020 -0.3098
  108MOL   O21645370   5.298   1.296   7.435  0.1329  0.2302 -0.0969
  108MOL   C21745371   5.286   1.346   7.566 -0.2125 -0.3754 -0.4125
  108MOL   C21845372   5.137   1.385   7.587  0.4358  0.3359  0.3664
  108MOL   C21945373   5.054   1.256   7.601 -0.1552 -0.2940  0.3607
  108MOL   C22045374   4.907   1.267   7.585  0.7242  0.4602  0.8785
  108MOL   H22145375   5.298   1.323   7.062 -2.6902  1.5408 -0.0982
  108MOL   H22245376   5.211   1.352   7.200  0.3452  0.7793  1.7978
  108MOL   H22345377   5.507   1.262   7.171  0.2740  2.2973  0.9225
  108MOL   H22445378   5.344   1.439   7.563  0.2973 -0.6949 -0.4035
  108MOL   H22545379   5.324   1.282   7.645 -0.2253  0.4991  0.3125
  108MOL   H22645380   5.120   1.445   7.676 -0.8088 -1.5724  1.4452
  108MOL   H22745381   5.103   1.445   7.503  2.1805  0.2412 -0.4216
  108MOL   H22845382   5.080   1.223   7.701 -2.2373 -0.7095  0.7689
  108MOL   H22945383   5.084   1.188   7.521 -1.3810  0.1547 -0.5023
  108MOL   H23045384   4.870   1.294   7.486 -0.6512 -1.5548  0.8257
  108MOL   H23145385   4.861   1.332   7.659 -2.0505 -0.0236 -0.3735
  108MOL   H23245386   4.872   1.166   7.607  1.6813  0.0218  0.4213
  108MOL   C23345387   5.368   1.111   7.197  0.6561  0.0974 -0.0080
  108MOL   C23445388   5.490   1.019   7.172 -0.2915  0.1888 -0.6804
  108MOL   C23545389   5.563   0.996   7.306 -0.8954  0.1450  0.1430
  108MOL   O23645390   5.504   0.967   7.413  0.7004 -0.1774  0.9026
  108MOL   O23745391   5.699   1.014   7.297 -0.3137  0.4455  0.1285
  108MOL   C23845392   5.787   0.975   7.403  0.2166  0.2327 -0.3054
  108MOL   C23945393   5.838   1.077   7.494  0.3972  0.6207 -0.8972
  108MOL   C24045394   5.742   1.129   7.607 -0.4177 -0.2924 -0.5686
  108MOL   C24145395   5.798   1.251   7.690  0.3064 -0.0661  0.2313
  108MOL   H24245396   5.306   1.112   7.108  2.2211 -0.9520 -1.1465
  108MOL   H24345397   5.305   1.071   7.276  0.9568  0.3376  0.3557
  108MOL   H24445398   5.555   1.073   7.103  1.5028  0.1913  0.9469
  108MOL   H24545399   5.875   0.929   7.360  0.6003 -0.0148  0.7537
  108MOL   H24645400   5.746   0.891   7.459  2.1498 -0.7185 -0.2965
  108MOL   H24745401   5.935   1.055   7.540  0.0522  1.3900  0.2331
  108MOL   H24845402   5.844   1.164   7.429 -1.9251  1.7755  0.3503
  108MOL   H24945403   5.723   1.046   7.675 -1.6627 -0.5788 -1.2544
  108MOL   H25045404   5.647   1.157   7.562 -1.0215  1.2017  1.5380
  108MOL   H25145405   5.838   1.327   7.622  0.5545 -1.6106 -1.3951
  108MOL   H25245406   5.876   1.214   7.756 -0.6002 -0.6094  1.0047
  108MOL   H25345407   5.726   1.305   7.752 -1.3882 -1.1778 -0.7232
  108MOL   C25445408   5.444   0.882   7.109 -0.0006  0.5644  0.3433
  108MOL   C25545409   5.406   0.888   6.958  0.1270 -0.5124 -0.4867
  108MOL   C25645410   5.519   0.838   6.868  0.7491 -0.4413 -0.4079
  108MOL   O25745411   5.548   0.895   6.761  0.2055 -0.0007  0.3185
  108MOL   O25845412   5.575   0.723   6.913  0.4210  0.3004 -0.1384
  108MOL   C25945413   5.676   0.666   6.831  0.4222  0.0825 -0.7787
  108MOL   C26045414   5.745   0.559   6.922 -0.3646 -0.1270 -0.8284
  108MOL   C26145415   5.826   0.450   6.854  0.1391 -0.2539  0.0065
  108MOL   C26245416   5.868   0.340   6.945 -0.3208 -0.7046 -0.4410
  108MOL   H26345417   5.354   0.857   7.165 -0.4021  0.9298 -0.1342
  108MOL   H26445418   5.513   0.802   7.135  2.1425  2.3143  0.1825
  108MOL   H26545419   5.389   0.992   6.933  0.8685  0.0708  1.3629
  108MOL   H26645420   5.747   0.745   6.803  0.1858  0.3087 -0.7324
  108MOL   H26745421   5.639   0.622   6.738 -0.2059  0.8245 -0.8788
  108MOL   H26845422   5.809   0.618   6.987 -0.7799 -0.9728  0.3553
  108MOL   H26945423   5.678   0.510   6.992  1.3380 -1.3077  0.0070
  108MOL   H27045424   5.910   0.490   6.799 -1.3289 -0.7107 -2.6852
  108MOL   H27145425   5.769   0.419   6.766 -0.1364  4.7139 -1.6718
  108MOL   H27245426   5.945   0.365   7.018 -1.3220  1.5145 -0.1224
  108MOL   H27345427   5.916   0.259   6.890  4.0418  0.0874  1.9738
  108MOL   H27445428   5.781   0.297   6.995 -1.2934  2.6953  0.8941
  108MOL   C27545429   5.274   0.815   6.920  0.3391  0.4164 -0.2804
  108MOL   C27645430   5.155   0.912   6.908 -0.0709  0.0950 -0.0005
  108MOL   C27745431   5.178   1.023   6.805 -0.2788  0.1863 -0.9052
  108MOL   O27845432   5.207   1.136   6.842  0.2533 -0.1155 -0.2795
  108MOL   O27945433   5.168   0.983   6.680 -0.4127 -0.3733  0.5858
  108MOL   C28045434   5.188   1.065   6.572  0.1170 -0.1146 -0.7032
  108MOL   C28145435   5.048   1.107   6.517  0.6672 -0.1054 -0.7838
  108MOL   C28245436   4.972   1.002   6.433  0.5654 -0.4644  0.3125
  108MOL   C28345437   4.841   1.066   6.378 -0.0992  0.3817  0.3464
  108MOL   H28445438   5.261   0.736   6.993 -1.2084  0.4078 -0.5604
  108MOL   H28545439   5.283   0.748   6.835  3.3816 -1.9313  1.7544
  108MOL   H28645440   5.141   0.962   7.003 -0.8385 -2.1519  1.0886
  108MOL   H28745441   5.250   1.025   6.492  1.0539  0.8471 -0.4632
  108MOL   H28845442   5.241   1.157   6.597 -3.9375  1.8884  0.9653
  108MOL   H28945443   4.988   1.136   6.604  2.4847  0.5061  0.2973
  108MOL   H29045444   5.058   1.199   6.459 -0.4780  0.4417 -0.1224
  108MOL   H29145445   4.965   0.910   6.492  0.8309 -0.7903 -0.1546
  108MOL   H29245446   5.030   0.984   6.342 -0.5671  0.9316 -0.7027
  108MOL   H29345447   4.866   1.157   6.323  1.9801  0.9776  2.1756
  108MOL   H29445448   4.773   1.090   6.460 -1.5771 -0.1710 -0.7044
  108MOL   H29545449   4.795   0.997   6.308  1.3263  0.1542 -0.3968
  108MOL   C29645450   5.017   0.848   6.875  0.4476 -0.1987  0.8421
  108MOL   C29745451   4.958   0.760   6.989  0.8603 -0.1767  0.0017
  108MOL   C29845452   4.879   0.844   7.087 -0.5952  0.8019 -0.1840
  108MOL   O29945453   4.777   0.806   7.146  0.4125  0.1922 -0.1768
  108MOL   O30045454   4.940   0.956   7.124  0.1258  0.2495  0.0829
  108MOL   C30145455   4.871   1.048   7.210 -0.0130  0.1560  0.3722
  108MOL   C30245456   4.929   1.188   7.178  0.4092  0.5911  0.2381
  108MOL   C30345457   4.894   1.237   7.035 -0.1334 -0.1286 -0.4247
  108MOL   C30445458   4.931   1.383   7.015  0.3106 -0.2262 -0.3695
  108MOL   H30545459   5.030   0.789   6.784  1.3702  1.1192  0.1080
  108MOL   H30645460   4.941   0.922   6.853 -0.5892 -1.2810  0.7054
  108MOL   H30745461   5.044   0.719   7.043  0.5410 -0.2223  0.4728
  108MOL   H30845462   4.895   1.021   7.313  2.0235 -0.1444 -0.1600
  108MOL   H30945463   4.763   1.044   7.197 -0.0699 -1.7525  1.2586
  108MOL   H31045464   4.898   1.266   7.248  0.0490 -0.0982  0.8521
  108MOL   H31145465   5.037   1.192   7.189  0.6568 -0.8469 -1.5127
  108MOL   H31245466   4.788   1.226   7.015 -0.3344  2.1804 -0.8034
  108MOL   H31345467   4.935   1.172   6.957  0.5164 -0.7581  0.4321
  108MOL   H31445468   5.039   1.394   7.014  0.2510  0.5619  0.7315
  108MOL   H31545469   4.880   1.451   7.083  0.6248  1.5126 -1.8144
  108MOL   H31645470   4.911   1.415   6.913  1.2242 -0.0292 -0.4909
  108MOL   C31745471   4.876   0.634   6.952 -0.0104 -0.1709 -0.5966
  108MOL   C31845472   4.864   0.522   7.053 -0.3607  0.0609 -0.0115
  108MOL   C31945473   4.733   0.451   7.044  0.1213  0.3260  0.3420
  108MOL   O32045474   4.696   0.405   6.935 -0.0453 -0.5841  0.0800
  108MOL   O32145475   4.676   0.431   7.165  0.2373 -1.0550  0.7971
  108MOL   C32245476   4.548   0.364   7.175  0.4515 -0.5225  0.9332
  108MOL   C32345477   4.472   0.389   7.302 -0.1677  0.1349 -0.3360
  108MOL   C32445478   4.403   0.528   7.321 -0.9713 -1.1728  0.6208
  108MOL   C32545479   4.317   0.524   7.448  0.2837 -0.3668 -0.8418
  108MOL   H32645480   4.921   0.583   6.866  2.7824  0.7850  0.2198
  108MOL   H32745481   4.776   0.660   6.919  0.7593  0.1669 -2.7456
  108MOL   H32845482   4.856   0.568   7.152  0.2795 -4.1041  2.0690
  108MOL   H32945483   4.559   0.256   7.168 -3.5223 -0.8397 -1.9423
  108MOL   H33045484   4.479   0.377   7.092 -0.5552 -1.9205  1.5278
  108MOL   H33145485   4.397   0.309   7.305 -0.2791  0.2019 -1.1655
  108MOL   H33245486   4.543   0.369   7.382  0.3535  3.7944  0.2132
  108MOL   H33345487   4.336   0.542   7.236  0.4594 -1.0850 -0.5132
  108MOL   H33445488   4.483   0.602   7.324 -0.9882 -1.0224 -1.7039
  108MOL   H33545489   4.365   0.462   7.523 -0.2750 -0.7500 -0.7953
  108MOL   H33645490   4.221   0.477   7.424 -0.1607  0.6661 -1.1161
  108MOL   H33745491   4.305   0.623   7.490  2.3383 -0.3012 -0.3931
  108MOL   C33845492   4.995   0.437   7.039  0.2729  0.3364  0.7066
  108MOL   C33945493   5.050   0.363   7.161 -0.7160 -0.0518  0.3465
  108MOL   C34045494   4.954   0.269   7.233  0.3689 -0.7795 -0.2222
  108MOL   O34145495   4.908   0.313   7.339  0.0216 -0.1577 -0.2282
  108MOL   O34245496   4.928   0.153   7.167 -0.3722 -0.0458 -0.1200
  108MOL   C34345497   4.844   0.051   7.224  0.1502  0.1948  0.0498
  108MOL   C34445498   4.936   7.785   7.226  0.0190  0.0787 -0.1562
  108MOL   C34545499   4.855   7.662   7.264 -0.7816 -0.0203  0.1794
  108MOL   C34645500   4.922   7.532   7.222 -0.5435 -0.0340 -0.3598
  108MOL   H34745501   5.074   0.494   6.990 -0.4885  0.7203 -0.0890
  108MOL   H34845502   4.967   0.361   6.966  0.1296  0.1165  0.9881
  108MOL   H34945503   5.072   0.439   7.236  0.1953  0.8906 -0.8439
  108MOL   H35045504   4.755   0.041   7.162 -0.8500 -1.6041  1.7463
  108MOL   H35145505   4.810   0.084   7.322 -0.2855  4.0435 -1.3240
  108MOL   H35245506   4.985   7.764   7.130  0.7092  2.0736 -0.2506
  108MOL   H35345507   5.018   7.797   7.296 -0.3746  1.2114  0.1185
  108MOL   H35445508   4.763   7.662   7.207 -0.4635 -1.1447 -0.3393
  108MOL   H35545509   4.831   7.672   7.370  3.5847  1.0571  1.1729
  108MOL   H35645510   4.958   7.531   7.119 -0.6100  1.7128 -0.4159
  108MOL   H35745511   4.842   7.459   7.227 -0.1824 -0.4920 -1.1598
  108MOL   H35845512   5.005   7.510   7.289 -1.5147 -1.4248  0.3858
  108MOL   C35945513   5.182   0.296   7.128 -0.0105 -0.0566  0.1636
  108MOL   C36045514   5.302   0.379   7.082 -0.5296  0.3703  0.4579
  108MOL   C36145515   5.344   0.470   7.200  0.1649  0.2496 -0.0810
  108MOL   O36245516   5.283   0.577   7.217 -0.5425  0.1726 -0.1703
  108MOL   O36345517   5.440   0.421   7.286  0.0754  0.3728  0.2596
  108MOL   C36445518   5.489   0.496   7.399  0.1230  0.4327 -0.1744
  108MOL   C36545519   5.599   0.584   7.355 -0.0771  0.0682  0.5359
  108MOL   C36645520   5.731   0.522   7.306 -0.2387 -0.0586  0.0309
  108MOL   C36745521   5.839   0.629   7.276  0.1950  0.5479  0.1263
  108MOL   H36845522   5.159   0.240   7.037  2.9633  1.3252 -1.5090
  108MOL   H36945523   5.221   0.214   7.189  0.1377  0.5282  0.8547
  108MOL   H37045524   5.280   0.454   7.007 -0.3793 -0.5342 -0.4915
  108MOL   H37145525   5.506   0.431   7.485 -2.2890  0.2132  0.1931
  108MOL   H37245526   5.407   0.559   7.436 -1.0662 -0.1704 -1.7467
  108MOL   H37345527   5.563   0.653   7.279  0.0590 -1.2014 -0.7036
  108MOL   H37445528   5.631   0.640   7.443  1.4601 -2.0822  1.4032
  108MOL   H37545529   5.716   0.459   7.218  1.5624  0.7103 -0.8512
  108MOL   H37645530   5.762   0.451   7.383  0.6955  0.4025  0.0838
  108MOL   H37745531   5.788   0.702   7.214  0.8715  0.6704 -0.2861
  108MOL   H37845532   5.919   0.581   7.220 -1.3988 -1.0157 -0.8435
  108MOL   H37945533   5.876   0.666   7.372  4.6979 -1.7793 -0.5750
  108MOL   C38045534   5.415   0.291   7.022  0.8150 -0.2119  0.0023
  108MOL   C38145535   5.388   0.234   6.877 -0.5540  0.1438 -0.0324
  108MOL   C38245536   5.333   0.329   6.776  0.5038  0.0274 -0.2392
  108MOL   O38345537   5.363   0.450   6.792 -0.1397  0.5548 -0.0795
  108MOL   O38445538   5.258   0.266   6.676  0.4154  0.2959  0.0910
  108MOL   C38545539   5.202   0.338   6.564  0.5332 -0.3241 -0.7750
  108MOL   C38645540   5.078   0.423   6.604  0.4519 -0.3275 -0.1249
  108MOL   C38745541   4.955   0.333   6.621 -0.0815 -0.1521 -0.4504
  108MOL   C38845542   4.830   0.421   6.614  0.2510  0.1570 -0.9174
  108MOL   H38945543   5.442   0.216   7.095 -1.6187  0.8756  2.0852
  108MOL   H39045544   5.507   0.351   7.023  0.9265 -0.3880  1.2039
  108MOL   H39145545   5.315   0.155   6.895 -0.9793  0.4347 -0.4582
  108MOL   H39245546   5.168   0.259   6.496 -2.2721  0.4383 -0.2943
  108MOL   H39345547   5.274   0.390   6.502  0.0306  1.0046 -0.2572
  108MOL   H39445548   5.090   0.466   6.703  0.4935 -1.9402  0.5852
  108MOL   H39545549   5.060   0.507   6.536  1.8000 -0.0907 -0.2052
  108MOL   H39645550   4.961   0.282   6.717  0.4209  1.4092  0.3533
  108MOL   H39745551   4.956   0.258   6.542  0.9656 -0.6542  0.0363
  108MOL   H39845552   4.805   0.451   6.512 -2.7404 -0.2186 -0.3529
  108MOL   H39945553   4.830   0.513   6.673  1.3346 -0.1415 -0.4480
  108MOL   H40045554   4.747   0.356   6.640  0.1913  0.4426 -0.3899
  108MOL   C40145555   5.521   0.169   6.821  0.1082 -0.0215 -0.2918
  108MOL   C40245556   5.522   0.013   6.839  0.5658 -0.9281 -0.1045
  108MOL   C40345557   5.425   7.798   6.739 -0.7611 -0.0770 -0.4790
  108MOL   O40445558   5.462   7.777   6.623 -0.5314  0.0565  0.0275
  108MOL   O40545559   5.302   7.780   6.795  0.1371  0.5624  0.4943
  108MOL   C40645560   5.205   7.714   6.719 -0.5083  0.0613  0.2085
  108MOL   C40745561   5.059   7.719   6.780  0.2623  0.0366  0.7847
  108MOL   C40845562   5.000   0.012   6.770 -0.3661 -0.0430 -0.3492
  108MOL   C40945563   4.856   0.001   6.820  0.5607  0.3593 -0.8945
  108MOL   H41045564   5.602   0.210   6.881 -1.3586  0.6335  1.3103
  108MOL   H41145565   5.541   0.193   6.717 -0.8558 -0.4327 -0.5855
  108MOL   H41245566   5.495   7.837   6.940  0.6387  0.4626  0.3183
  108MOL   H41345567   5.239   7.610   6.723 -0.4084  0.1100  0.6293
  108MOL   H41445568   5.201   7.757   6.618 -2.9883  1.8323  1.0162
  108MOL   H41545569   5.005   7.652   6.713 -2.3540  2.1032  0.6999
  108MOL   H41645570   5.065   7.683   6.883  1.1885  0.2487  0.8060
  108MOL   H41745571   4.996   0.051   6.668 -0.7534 -1.4835 -0.8964
  108MOL   H41845572   5.065   0.071   6.834  0.2853 -0.9934 -0.1242
  108MOL   H41945573   4.803   0.096   6.827  0.1866  0.0494  0.7451
  108MOL   H42045574   4.853   7.802   6.916 -0.9174  0.2651 -0.9933
  108MOL   H42145575   4.790   7.796   6.756  1.7509 -2.0255  0.0014
  108MOL   H42245576   5.625   7.833   6.824  1.6246  1.7218  1.0148
  109MOL     C145577   5.249   7.264   6.757 -0.2594 -0.4929  0.2117
  109MOL     C245578   5.337   7.289   6.632  0.2373 -0.9462  0.2702
  109MOL     C345579   5.269   7.397   6.540  0.6034 -0.5462  0.2851
  109MOL     O445580   5.147   7.426   6.545  0.2818 -0.6057  0.1460
  109MOL     O545581   5.359   7.466   6.460 -0.4445  0.2101  0.1133
  109MOL     C645582   5.299   7.563   6.369 -0.0844 -0.4894  0.3158
  109MOL     C745583   5.409   7.620   6.271  0.6363 -0.1169 -0.1115
  109MOL     C845584   5.481   7.515   6.187  0.8121  0.6284  0.0172
  109MOL     C945585   5.580   7.581   6.096  0.0868  0.2301  0.0653
  109MOL    H1045586   5.307   7.223   6.840 -0.4408  1.3560  1.2772
  109MOL    H1145587   5.199   7.352   6.797 -0.9714 -0.0849 -1.5648
  109MOL    H1245588   5.327   7.194   6.579  0.8648 -0.4413 -0.7815
  109MOL    H1345589   5.256   7.648   6.421 -1.0314 -0.7432 -0.0492
  109MOL    H1445590   5.221   7.512   6.313 -1.4802  1.7268  0.1942
  109MOL    H1545591   5.365   7.704   6.216  2.8950  1.2215  0.0560
  109MOL    H1645592   5.484   7.678   6.324 -0.8679  1.1569  0.6776
  109MOL    H1745593   5.415   7.458   6.122 -1.9529  2.7036  0.8672
  109MOL    H1845594   5.525   7.450   6.263 -1.0006 -1.9745 -1.0995
  109MOL    H1945595   5.537   7.647   6.021  1.6590 -1.2920 -2.2301
  109MOL    H2045596   5.637   7.494   6.060 -0.1132 -1.0082  2.6151
  109MOL    H2145597   5.647   7.639   6.160  1.0143 -2.9431  2.1545
  109MOL    H2245598   5.168   7.197   6.729  1.3759 -2.3782 -0.1466
  109MOL    C2345599   5.490   7.298   6.645 -0.6251  0.2144 -0.3040
  109MOL    C2445600   5.546   7.423   6.713 -0.7256  0.0217  0.0716
  109MOL    C2545601   5.515   7.426   6.861 -0.3066 -0.2711 -0.0480
  109MOL    O2645602   5.465   7.530   6.910  0.3467 -1.1134 -0.1611
  109MOL    O2745603   5.559   7.316   6.926  0.3440  0.1773 -0.7380
  109MOL    C2845604   5.578   7.318   7.065 -0.4944  0.3794 -0.3055
  109MOL    C2945605   5.726   7.348   7.088 -0.3709  0.1807 -0.1995
  109MOL    C3045606   5.769   7.379   7.230 -0.3282 -0.2649 -0.1754
  109MOL    C3145607   5.924   7.417   7.232  0.7729 -0.0712  0.3295
  109MOL    H3245608   5.514   7.299   6.538 -4.1655  0.0972 -1.1593
  109MOL    H3345609   5.536   7.204   6.678  0.2324  1.3143  1.6902
  109MOL    H3445610   5.484   7.506   6.680 -3.7186 -2.4786 -0.8050
  109MOL    H3545611   5.566   7.214   7.098  1.5346  1.1181  3.0131
  109MOL    H3645612   5.507   7.381   7.118 -1.1562 -0.0331 -0.6867
  109MOL    H3745613   5.779   7.255   7.067  0.4146  0.2830  1.2658
  109MOL    H3845614   5.762   7.423   7.017  0.8176  0.4035  0.6219
  109MOL    H3945615   5.761   7.282   7.280  1.3745  0.7650  2.2127
  109MOL    H4045616   5.709   7.454   7.281  0.6680 -0.2533  1.0209
  109MOL    H4145617   5.964   7.446   7.329 -1.2393 -0.4969  1.3041
  109MOL    H4245618   5.950   7.500   7.167  2.4796 -1.4778 -0.8456
  109MOL    H4345619   5.980   7.331   7.196 -1.4632 -2.3156  2.0064
  109MOL    C4445620   5.695   7.439   6.673  0.3657 -0.1918  0.5937
  109MOL    C4545621   5.756   7.582   6.691  0.3221  0.3563 -0.2229
  109MOL    C4645622   5.892   7.585   6.770  0.4592 -0.2343  0.6144
  109MOL    O4745623   5.901   7.651   6.873 -0.0957 -0.1398  0.1443
  109MOL    O4845624   6.000   7.508   6.725  0.2171 -0.1361 -0.0064
  109MOL    C4945625   6.121   7.502   6.803  0.0221  0.7471  0.3926
  109MOL    C5045626   6.141   7.356   6.850 -0.3069  0.5245  0.0163
  109MOL    C5145627   6.148   7.252   6.738 -0.1304 -0.5494 -0.3143
  109MOL    C5245628   6.210   7.117   6.790  0.3617 -0.5630 -0.5398
  109MOL    H5345629   5.711   7.400   6.572 -1.6530 -0.0507  0.2000
  109MOL    H5445630   5.747   7.367   6.737 -0.8596 -0.9489  0.7523
  109MOL    H5545631   5.680   7.639   6.745  2.3246  0.8153  2.1649
  109MOL    H5645632   6.128   7.574   6.885 -1.5501  0.3271  0.9097
  109MOL    H5745633   6.197   7.524   6.728  1.2175 -1.0009  1.0586
  109MOL    H5845634   6.232   7.343   6.909  0.4929 -0.0221 -1.2941
  109MOL    H5945635   6.069   7.322   6.924  3.1285 -1.3562  2.6907
  109MOL    H6045636   6.196   7.283   6.645 -0.9330  1.0963 -0.1941
  109MOL    H6145637   6.046   7.235   6.706  0.4769 -0.7749 -2.2122
  109MOL    H6245638   6.154   7.094   6.880  0.2264 -1.5298 -0.8659
  109MOL    H6345639   6.315   7.128   6.818  0.6700 -1.2724 -1.4072
  109MOL    H6445640   6.191   7.026   6.733  2.9392 -1.1597 -0.5508
  109MOL    C6545641   5.766   7.659   6.555  0.2705  0.4854  0.5877
  109MOL    C6645642   5.768   7.813   6.559 -0.6355 -0.0453 -0.2517
  109MOL    C6745643   5.871   0.024   6.644 -0.1434 -0.7104 -0.0134
  109MOL    O6845644   5.838   0.071   6.752  0.0873  0.2535 -0.0594
  109MOL    O6945645   5.997   0.005   6.604  0.6059 -0.0310  0.2281
  109MOL    C7045646   6.104   0.050   6.682  0.2207  0.4436  0.8675
  109MOL    C7145647   6.228   0.056   6.591  0.0244 -0.2618  0.8906
  109MOL    C7245648   6.229   0.180   6.501  0.1606 -0.2582  0.3444
  109MOL    C7345649   6.371   0.230   6.466 -0.2637  0.1765 -0.2258
  109MOL    H7445650   5.692   7.622   6.485 -0.7493  0.8130  1.4681
  109MOL    H7545651   5.859   7.625   6.511  0.1590 -0.6007  1.1907
  109MOL    H7645652   5.675   7.849   6.602 -1.0051  1.3342 -2.1059
  109MOL    H7745653   6.114   7.831   6.763 -0.5838 -0.5012  0.1495
  109MOL    H7845654   6.081   0.148   6.724 -1.4698  1.0879 -1.4454
  109MOL    H7945655   6.320   0.058   6.650  0.7516  2.1327 -0.2417
  109MOL    H8045656   6.248   7.817   6.537 -1.4177  0.5263 -1.0254
  109MOL    H8145657   6.184   0.268   6.548 -0.9136  0.5171 -2.0472
  109MOL    H8245658   6.172   0.152   6.412  0.4152  0.8275 -0.1717
  109MOL    H8345659   6.407   0.281   6.555 -0.3955  1.8909 -1.1385
  109MOL    H8445660   6.375   0.300   6.383 -1.9383  3.6039  2.4650
  109MOL    H8545661   6.442   0.149   6.444  0.5836  1.4357 -2.2966
  109MOL    C8645662   5.778   0.018   6.416 -0.3182  0.2769 -0.1375
  109MOL    C8745663   5.738   0.161   6.393  0.1220 -0.7821 -0.2234
  109MOL    C8845664   5.585   0.191   6.398 -0.1092  0.2401 -0.4900
  109MOL    O8945665   5.541   0.297   6.441  0.2585  0.5739  0.1020
  109MOL    O9045666   5.511   0.099   6.332 -0.1855  0.5287 -0.7565
  109MOL    C9145667   5.374   0.120   6.316 -0.3653  0.6491  0.0561
  109MOL    C9245668   5.334   0.182   6.183  1.1216  0.7740  0.4058
  109MOL    C9345669   5.193   0.227   6.176 -0.6687 -0.4681  0.0488
  109MOL    C9445670   5.164   0.315   6.054  0.2982  0.1902 -0.1971
  109MOL    H9545671   5.727   7.806   6.346  1.4651  0.4092 -1.5939
  109MOL    H9645672   5.882   7.848   6.391 -1.3554 -2.9518 -1.7378
  109MOL    H9745673   5.761   0.164   6.287  0.9866 -2.0437 -0.0829
  109MOL    H9845674   5.332   0.171   6.402  0.1790  1.4738 -0.1618
  109MOL    H9945675   5.325   0.022   6.322  0.2894  0.2276 -1.2344
  109MOL   H10045676   5.388   0.276   6.170 -0.6803  2.2961  3.3837
  109MOL   H10145677   5.365   0.118   6.101  0.4895 -0.6510  1.2604
  109MOL   H10245678   5.168   0.268   6.274 -0.9924  1.8597 -0.9759
  109MOL   H10345679   5.139   0.132   6.169 -1.6677  0.1349 -0.4876
  109MOL   H10445680   5.196   0.273   5.959 -1.5202  0.9073 -1.1733
  109MOL   H10545681   5.221   0.408   6.058 -2.1230  1.6473  2.1740
  109MOL   H10645682   5.056   0.333   6.047  0.6697  1.7177 -2.7602
  109MOL   C10745683   5.826   0.275   6.450  0.6650  0.1572 -0.0875
  109MOL   C10845684   5.861   0.386   6.344 -0.3579 -0.3390 -0.2575
  109MOL   C10945685   5.851   0.525   6.402  0.3666 -0.2135  0.8521
  109MOL   O11045686   5.891   0.551   6.516 -0.2893  0.0269 -0.2424
  109MOL   O11145687   5.802   0.608   6.310  0.2133 -0.2502  0.4276
  109MOL   C11245688   5.784   0.743   6.339 -0.0099  0.1709 -0.2350
  109MOL   C11345689   5.701   0.805   6.224 -0.1837  0.4772  0.3215
  109MOL   C11445690   5.660   0.954   6.224 -0.0572 -0.6542  1.0277
  109MOL   C11545691   5.550   0.980   6.330  0.4360 -0.5174  0.3760
  109MOL   H11645692   5.922   0.244   6.492  1.0328 -2.1551 -2.4839
  109MOL   H11745693   5.778   0.315   6.539  3.2562  0.1299  1.3729
  109MOL   H11845694   5.780   0.393   6.272 -0.6997 -0.0382  0.1463
  109MOL   H11945695   5.890   0.769   6.332  0.2034 -0.7575 -0.5709
  109MOL   H12045696   5.763   0.765   6.443  5.2962 -1.8362  1.4250
  109MOL   H12145697   5.740   0.805   6.122 -0.3538  0.3401  0.2580
  109MOL   H12245698   5.611   0.744   6.220  1.5046 -2.0196 -1.2362
  109MOL   H12345699   5.609   0.979   6.131  1.6764  4.0867  1.2185
  109MOL   H12445700   5.750   1.016   6.233 -0.4607  0.0009  0.6121
  109MOL   H12545701   5.551   1.087   6.350 -0.1969 -0.7716  1.8222
  109MOL   H12645702   5.580   0.933   6.423  0.7425  0.6137  0.8579
  109MOL   H12745703   5.453   0.944   6.296 -0.6782  1.9586  0.8030
  109MOL   C12845704   6.005   0.354   6.283 -0.1728 -0.4764 -0.1996
  109MOL   C12945705   6.035   0.430   6.152  0.1980 -0.3232  0.2169
  109MOL   C13045706   6.185   0.434   6.130 -0.8534 -0.1053  0.5008
  109MOL   O13145707   6.253   0.530   6.155 -0.6178 -0.3622 -0.2299
  109MOL   O13245708   6.227   0.323   6.068  0.3838 -0.1514  0.4185
  109MOL   C13345709   6.361   0.323   6.029  0.0427 -0.5174 -0.6560
  109MOL   C13445710   6.382   0.202   5.939  0.3676 -0.5030 -0.0943
  109MOL   C13545711   6.306   0.212   5.812  0.3748 -0.1890 -0.5394
  109MOL   C13645712   6.340   0.092   5.725 -0.2073 -0.0451  0.1309
  109MOL   H13745713   6.018   0.246   6.275 -2.1822 -0.5623 -2.7516
  109MOL   H13845714   6.077   0.369   6.364 -1.3989  0.1461  0.7797
  109MOL   H13945715   6.005   0.533   6.171 -1.2271 -0.8097  0.6476
  109MOL   H14045716   6.432   0.323   6.112 -1.3900  2.1893  0.6232
  109MOL   H14145717   6.391   0.413   5.977  0.7391 -0.4283 -0.1026
  109MOL   H14245718   6.488   0.198   5.914  0.1820 -1.9064 -0.6956
  109MOL   H14345719   6.365   0.112   5.998 -1.8113  0.1083  0.2545
  109MOL   H14445720   6.347   0.295   5.756 -2.7612  2.6542  1.2091
  109MOL   H14545721   6.197   0.217   5.816  0.3469 -1.1330  0.4100
  109MOL   H14645722   6.345   0.002   5.786  1.7963  1.3452  2.1237
  109MOL   H14745723   6.431   0.099   5.666 -0.1353 -3.8946 -0.3148
  109MOL   H14845724   6.255   0.065   5.662 -0.5147 -0.1770  0.5995
  109MOL   C14945725   5.948   0.389   6.029 -0.6742 -0.3219 -0.9981
  109MOL   C15045726   5.872   0.509   5.968 -0.8731 -0.2216  0.0191
  109MOL   C15145727   5.963   0.616   5.915 -0.1028  0.2290  0.1135
  109MOL   O15245728   5.923   0.731   5.920 -0.0665 -0.2866 -0.6060
  109MOL   O15345729   6.070   0.573   5.844 -0.2220 -0.2246 -0.3605
  109MOL   C15445730   6.143   0.661   5.762  0.5017 -0.0473 -0.1598
  109MOL   C15545731   6.209   0.577   5.653 -0.0039  0.3887  0.0123
  109MOL   C15645732   6.302   0.649   5.561 -0.1649  0.1154  0.6210
  109MOL   C15745733   6.319   0.580   5.434  0.0222  0.1584 -0.9504
  109MOL   H15845734   5.883   0.310   6.067 -0.1603 -0.6272 -0.7441
  109MOL   H15945735   6.005   0.340   5.950 -0.8970 -0.0253 -1.3454
  109MOL   H16045736   5.811   0.549   6.050 -1.8553 -3.9167  1.2014
  109MOL   H16145737   6.220   0.718   5.815 -0.0600 -1.0166  1.7198
  109MOL   H16245738   6.080   0.738   5.717  0.4098 -1.2980 -2.2216
  109MOL   H16345739   6.259   0.493   5.702 -1.1894 -0.5856 -0.4267
  109MOL   H16445740   6.124   0.534   5.601 -1.9579  3.4331  0.5561
  109MOL   H16545741   6.394   0.663   5.619  0.7910 -0.5758 -0.6884
  109MOL   H16645742   6.250   0.743   5.545 -1.2531 -0.2059  2.1681
  109MOL   H16745743   6.343   0.475   5.449  1.4211  0.7715  1.4588
  109MOL   H16845744   6.393   0.616   5.362  1.0131  0.1991  0.0691
  109MOL   H16945745   6.221   0.582   5.388  0.5344  0.0879 -2.0693
  109MOL   C17045746   5.765   0.460   5.870 -0.4463  1.2090 -0.3027
  109MOL   C17145747   5.633   0.411   5.935  0.3223  0.3553  0.1594
  109MOL   C17245748   5.534   0.522   5.982 -0.1637 -0.6935  0.0650
  109MOL   O17345749   5.506   0.543   6.099 -0.0473 -0.2811  0.0471
  109MOL   O17445750   5.486   0.599   5.887  0.3035  0.0779 -0.1154
  109MOL   C17545751   5.419   0.721   5.916  0.0789  0.6771  0.0463
  109MOL   C17645752   5.395   0.796   5.779  0.5240 -0.4189 -0.8383
  109MOL   C17745753   5.528   0.811   5.708  1.2705 -0.2863  0.4373
  109MOL   C17845754   5.525   0.907   5.591  0.4569 -0.3858 -0.4326
  109MOL   H17945755   5.802   0.372   5.816  1.5232  1.0734  1.2155
  109MOL   H18045756   5.742   0.524   5.786 -1.0706  1.3178 -0.0460
  109MOL   H18145757   5.665   0.357   6.023 -0.8965  0.8659  0.9264
  109MOL   H18245758   5.482   0.787   5.977  0.7233  0.8139 -0.7591
  109MOL   H18345759   5.326   0.704   5.970  0.6267 -1.2220  0.4299
  109MOL   H18445760   5.324   0.744   5.714  0.0671 -0.3832 -0.3682
  109MOL   H18545761   5.344   0.891   5.795 -1.9267 -1.7104 -0.7138
  109MOL   H18645762   5.566   0.715   5.673 -1.1953 -0.7062 -1.2385
  109MOL   H18745763   5.606   0.844   5.776  0.2291 -2.1963  2.6361
  109MOL   H18845764   5.621   0.923   5.541 -0.5222  3.3086 -1.2767
  109MOL   H18945765   5.494   1.004   5.630 -0.7585 -0.8054 -0.3273
  109MOL   H19045766   5.454   0.866   5.518  1.4707  0.8978 -2.1949
  109MOL   C19145767   5.568   0.306   5.851  0.6471  0.2753  0.2203
  109MOL   C19245768   5.634   0.174   5.821  0.3401  0.3038  0.0588
  109MOL   C19345769   5.696   0.100   5.941  0.2293 -0.2432 -0.2898
  109MOL   O19445770   5.635   0.058   6.040  0.2469  0.0694  0.0591
  109MOL   O19545771   5.828   0.091   5.932  0.0643 -0.2843 -0.6442
  109MOL   C19645772   5.899   0.010   6.028 -0.1600  0.0222 -0.4055
  109MOL   C19745773   6.047   0.012   5.976  0.1780  0.2453  0.0402
  109MOL   C19845774   6.130   7.764   6.046  0.3572 -0.4992 -0.1566
  109MOL   C19945775   6.172   7.812   6.195  0.6911  0.3755  0.9841
  109MOL   H20045776   5.511   0.343   5.766  0.2377  0.3463  0.5252
  109MOL   H20145777   5.486   0.273   5.916  1.8896 -3.4854  0.0284
  109MOL   H20245778   5.720   0.181   5.755  0.1276  0.3540 -0.2121
  109MOL   H20345779   5.853   7.765   6.040  0.6344 -0.0793  2.2298
  109MOL   H20445780   5.888   0.059   6.125  1.1670  0.3557 -0.4120
  109MOL   H20545781   6.047   7.828   5.873  2.3419  0.0359  0.0912
  109MOL   H20645782   6.100   0.107   5.981  0.5448 -0.0609  2.2445
  109MOL   H20745783   6.226   7.754   5.994  1.1566 -0.3835  1.2619
  109MOL   H20845784   6.076   7.670   6.035 -0.9741  0.5191 -2.6961
  109MOL   H20945785   6.236   0.046   6.180  3.0947 -1.4974  0.1655
  109MOL   H21045786   6.219   7.730   6.249 -1.3035 -0.6745  1.1612
  109MOL   H21145787   6.091   7.848   6.258 -0.7639 -0.9943 -0.0859
  109MOL   C21245788   5.530   0.073   5.760  0.0597 -0.1380  0.2520
  109MOL   C21345789   5.598   7.827   5.656  0.2243 -0.2710  0.1609
  109MOL   C21445790   5.499   7.707   5.642 -0.0701  0.0529 -0.2738
  109MOL   O21545791   5.375   7.729   5.644  0.6437  0.1661  0.6953
  109MOL   O21645792   5.568   7.583   5.649 -0.2573 -0.7659  0.2577
  109MOL   C21745793   5.504   7.462   5.626  0.1043 -0.4182 -0.8569
  109MOL   C21845794   5.474   7.384   5.759  0.8841  0.4932 -0.5159
  109MOL   C21945795   5.381   7.266   5.732  0.0568  0.5591 -0.7154
  109MOL   C22045796   5.235   7.317   5.743  0.7902 -0.0014 -0.8480
  109MOL   H22145797   5.458   0.130   5.702  0.0074  0.7592  1.1941
  109MOL   H22245798   5.472   0.027   5.840  0.5932  0.1266  0.7922
  109MOL   H22345799   5.686   7.789   5.707  0.8724  1.4400  0.3792
  109MOL   H22445800   5.585   7.404   5.582  3.0986  0.6387  3.0309
  109MOL   H22545801   5.413   7.484   5.570 -1.0536 -1.0156  0.7309
  109MOL   H22645802   5.568   7.347   5.801  0.6828 -0.2163 -0.6896
  109MOL   H22745803   5.431   7.444   5.839  1.9576 -2.6267  2.5038
  109MOL   H22845804   5.379   7.193   5.813 -0.9011  2.4322  1.0114
  109MOL   H22945805   5.393   7.219   5.635  0.2273  2.3901 -1.6025
  109MOL   H23045806   5.158   7.240   5.743 -0.2791  1.0117  0.9831
  109MOL   H23145807   5.223   7.380   5.655  2.3178  0.8187 -0.4826
  109MOL   H23245808   5.211   7.378   5.831 -0.6899  1.7742 -2.4493
  109MOL   C23345809   5.629   0.035   5.526 -0.0001 -0.2288 -0.0421
  109MOL   C23445810   5.764   7.842   5.462  0.8340  0.4809  0.2813
  109MOL   C23545811   5.890   0.049   5.528 -0.2158  0.3494 -0.4815
  109MOL   O23645812   5.966   7.830   5.591  0.2144 -0.3039  0.6687
  109MOL   O23745813   5.880   0.184   5.521  0.1606 -0.4187  1.2508
  109MOL   C23845814   5.982   0.270   5.573 -0.3765 -0.1840 -0.4592
  109MOL   C23945815   6.118   0.257   5.493 -0.2887 -0.4207 -0.6529
  109MOL   C24045816   6.093   0.278   5.343  0.2768  0.2187 -0.1023
  109MOL   C24145817   6.221   0.242   5.257 -0.7583  0.0278 -0.0483
  109MOL   H24245818   5.641   0.143   5.538  1.4601 -0.4236  0.3097
  109MOL   H24345819   5.545   0.027   5.457 -0.2634  0.1105  0.2377
  109MOL   H24445820   5.774   0.035   5.363  0.5329 -0.3951 -0.1646
  109MOL   H24545821   5.995   0.236   5.676 -1.1944  2.0691  0.4111
  109MOL   H24645822   5.951   0.374   5.567 -4.6548 -1.2578  1.3271
  109MOL   H24745823   6.196   0.327   5.523 -2.4401  2.7685 -2.1484
  109MOL   H24845824   6.156   0.156   5.508  0.0673 -0.5847 -2.5112
  109MOL   H24945825   6.057   0.380   5.328  0.0892  0.3241  1.0444
  109MOL   H25045826   6.013   0.220   5.300  1.3551 -0.3838 -1.3332
  109MOL   H25145827   6.300   0.312   5.285  0.6861 -1.0713 -1.3168
  109MOL   H25245828   6.196   0.246   5.151 -0.2327 -2.4668 -0.2838
  109MOL   H25345829   6.264   0.142   5.265 -0.2014  0.3803  1.4261
  109MOL   C25445830   5.776   7.682   5.447  0.5911  0.0972 -0.3054
  109MOL   C25545831   5.877   7.627   5.341 -0.5696  1.1562  0.0663
  109MOL   C25645832   5.867   7.471   5.332 -0.2623 -0.3873 -0.3017
  109MOL   O25745833   5.766   7.407   5.367 -0.2687 -0.0124  0.4899
  109MOL   O25845834   5.993   7.419   5.306  0.3423 -0.5559 -0.8615
  109MOL   C25945835   6.019   7.283   5.325  0.8164  1.2824  0.5122
  109MOL   C26045836   5.959   7.191   5.208 -0.2923 -0.1626  0.0062
  109MOL   C26145837   6.047   7.183   5.089 -0.5556  0.3970 -0.6569
  109MOL   C26245838   6.167   7.085   5.102  0.7866  0.2408 -0.4847
  109MOL   H26345839   5.678   7.642   5.422  0.6286  0.3749 -0.8831
  109MOL   H26445840   5.799   7.632   5.541  3.2058 -0.3528 -1.1631
  109MOL   H26545841   5.970   7.657   5.389  0.7881 -0.4368 -1.4933
  109MOL   H26645842   5.959   7.246   5.408  1.5712  0.4562  0.7124
  109MOL   H26745843   6.124   7.258   5.346  0.6453 -1.3494 -1.4679
  109MOL   H26845844   5.924   7.100   5.256  1.2422 -0.8961 -0.2130
  109MOL   H26945845   5.861   7.232   5.182 -0.5480 -0.9921 -0.3349
  109MOL   H27045846   6.076   7.280   5.049 -3.4446  0.3102 -3.0540
  109MOL   H27145847   5.983   7.148   5.009 -1.3599  2.4102 -0.9273
  109MOL   H27245848   6.253   7.117   5.161  0.8022  0.7585 -0.7816
  109MOL   H27345849   6.199   7.066   5.000  1.5882 -2.0961  0.1820
  109MOL   H27445850   6.138   6.995   5.156  0.0244 -1.1809 -3.1447
  109MOL   C27545851   5.871   7.700   5.199  0.1285 -0.5610  0.2944
  109MOL   C27645852   5.985   7.664   5.096 -0.1504  0.3881 -0.4202
  109MOL   C27745853   5.974   7.753   4.969 -0.2399  0.4331 -0.1033
  109MOL   O27845854   5.956   0.023   4.975 -0.1907 -0.2920  0.5515
  109MOL   O27945855   5.998   7.693   4.860 -0.1860 -0.0874  0.3935
  109MOL   C28045856   6.002   7.759   4.737 -0.3608 -0.1358 -0.6967
  109MOL   C28145857   6.038   7.663   4.631 -0.1750  0.3418  0.2503
  109MOL   C28245858   5.916   7.570   4.601 -0.4079 -0.3678 -0.1906
  109MOL   C28345859   5.962   7.461   4.504 -0.2331 -0.3746  0.0010
  109MOL   H28445860   5.869   7.808   5.212  0.5257 -0.7398  1.9806
  109MOL   H28545861   5.774   7.680   5.153 -0.3250  0.1026  0.9442
  109MOL   H28645862   5.974   7.558   5.070 -0.6450  1.2428 -4.0195
  109MOL   H28745863   6.079   7.834   4.754  0.9718 -1.3657 -1.2158
  109MOL   H28845864   5.908   7.812   4.721 -0.3050 -0.1607 -1.1241
  109MOL   H28945865   6.070   7.723   4.545  0.5188 -0.8182 -0.3178
  109MOL   H29045866   6.124   7.598   4.649  0.0680  1.1410  2.0263
  109MOL   H29145867   5.830   7.621   4.558  0.2793 -0.6254 -1.9139
  109MOL   H29245868   5.891   7.521   4.695  0.6877 -0.2618  0.1554
  109MOL   H29345869   5.872   7.400   4.490 -1.1835  0.5960  1.6428
  109MOL   H29445870   6.033   7.384   4.535  0.5574  0.3967  0.0994
  109MOL   H29545871   5.993   7.510   4.412 -0.6416 -0.4520 -0.1783
  109MOL   C29645872   6.127   7.681   5.160  0.4469  0.5691 -0.1372
  109MOL   C29745873   6.245   7.664   5.069  0.9020  0.4895 -0.5210
  109MOL   C29845874   6.356   7.763   5.113  0.9214  0.5139  0.4488
  109MOL   O29945875   6.400   7.840   5.029 -0.3685 -0.0349  0.4107
  109MOL   O30045876   6.405   7.738   5.231 -0.0843 -0.4228  0.2364
  109MOL   C30145877   6.519   7.800   5.285 -0.2395  0.3818  0.2511
  109MOL   C30245878   6.652   7.723   5.261 -0.1078  0.3209  0.5770
  109MOL   C30345879   6.698   7.727   5.115 -0.3309  0.2748  0.7699
  109MOL   C30445880   6.808   7.628   5.084  0.2314  0.7479  0.0290
  109MOL   H30545881   6.134   7.605   5.237  1.0744  2.9517  2.2518
  109MOL   H30645882   6.140   7.772   5.219 -2.0073 -0.9381  2.8442
  109MOL   H30745883   6.224   7.691   4.966 -1.4306  1.7913  0.2505
  109MOL   H30845884   6.505   7.825   5.390  0.7381 -1.2446  0.7767
  109MOL   H30945885   6.522   0.042   5.231  1.8950  0.6357  0.7449
  109MOL   H31045886   6.735   7.772   5.312  0.4585  0.6996 -0.6759
  109MOL   H31145887   6.654   7.626   5.310 -3.7255  1.1079  2.4431
  109MOL   H31245888   6.724   7.830   5.092 -0.6754  0.1466 -0.2564
  109MOL   H31345889   6.617   7.707   5.045 -0.8575  0.5224  1.2985
  109MOL   H31445890   6.842   7.622   4.981  1.8057 -0.1447  0.5874
  109MOL   H31545891   6.797   7.529   5.130  1.7158  0.1987 -0.7792
  109MOL   H31645892   6.896   7.674   5.129 -0.0335  0.3715  0.9418
  109MOL   C31745893   6.285   7.511   5.053  0.3091 -0.1051 -0.3737
  109MOL   C31845894   6.398   7.488   4.952 -0.4489 -0.4710 -0.2653
  109MOL   C31945895   6.461   7.347   4.968  0.0747 -0.1182  0.6109
  109MOL   O32045896   6.403   7.248   4.952 -0.0515  0.2780  0.0539
  109MOL   O32145897   6.588   7.353   4.989 -0.4134 -0.5208 -0.8853
  109MOL   C32245898   6.669   7.234   4.963 -0.1336 -0.4573 -0.1954
  109MOL   C32345899   6.814   7.250   5.009 -0.2060  0.2529  0.4456
  109MOL   C32445900   6.905   7.152   4.927  1.1358 -0.3069  0.0294
  109MOL   C32545901   7.050   7.142   4.967 -0.2294  0.2001 -0.4046
  109MOL   H32645902   6.193   7.460   5.026 -1.0358  1.7482  0.6292
  109MOL   H32745903   6.333   7.475   5.144 -0.2307 -0.8264 -0.3718
  109MOL   H32845904   6.473   7.561   4.982 -0.7171 -0.4199  0.2830
  109MOL   H32945905   6.666   7.203   4.859 -0.1993  0.3866 -0.4480
  109MOL   H33045906   6.627   7.151   5.019 -0.8740  0.2724  0.3597
  109MOL   H33145907   6.845   7.355   5.001 -2.8280  0.9358 -1.5030
  109MOL   H33245908   6.814   7.228   5.116 -1.5365 -1.7831  0.0434
  109MOL   H33345909   6.902   7.165   4.819 -0.8954  0.2582  0.1528
  109MOL   H33445910   6.862   7.052   4.939 -2.6586  1.2905  0.2059
  109MOL   H33545911   7.097   7.232   4.928 -1.4573  1.3588  0.7334
  109MOL   H33645912   7.102   7.050   4.942 -1.6534  0.4073 -4.4513
  109MOL   H33745913   7.059   7.159   5.074 -2.1036 -0.2768 -0.1442
  109MOL   C33845914   6.363   7.516   4.800 -0.1133  0.1307  0.2739
  109MOL   C33945915   6.480   7.485   4.704  0.5162 -0.0405 -0.6486
  109MOL   C34045916   6.432   7.478   4.562  0.7821 -0.2325  0.5345
  109MOL   O34145917   6.457   7.382   4.492  0.1811 -0.4082 -0.3571
  109MOL   O34245918   6.375   7.591   4.523 -0.5146 -0.1051 -0.4811
  109MOL   C34345919   6.335   7.600   4.391  0.0131 -0.2399  0.1145
  109MOL   C34445920   6.324   7.746   4.354  0.4027  0.5612 -0.0786
  109MOL   C34545921   6.454   7.823   4.325  0.3643 -0.6652 -0.4462
  109MOL   C34645922   6.417   0.120   4.316  0.4190  0.0073 -0.3028
  109MOL   H34745923   6.325   7.617   4.782 -1.3836 -0.2522  0.7381
  109MOL   H34845924   6.283   7.452   4.763 -1.3221  1.4187  0.6170
  109MOL   H34945925   6.527   7.391   4.731  0.9993  0.0072 -1.2922
  109MOL   H35045926   6.235   7.564   4.365 -1.0914  2.9757 -0.3863
  109MOL   H35145927   6.409   7.555   4.326 -1.2204  0.6677 -1.9619
  109MOL   H35245928   6.272   7.742   4.259  3.4722  1.6571 -1.8610
  109MOL   H35345929   6.266   7.808   4.423 -0.5389  0.1103 -0.4485
  109MOL   H35445930   6.492   7.781   4.232  0.9515  0.7561 -0.8706
  109MOL   H35545931   6.531   7.807   4.400  1.5359 -1.3048 -1.7624
  109MOL   H35645932   6.399   0.166   4.413  4.7389  1.7287 -0.2082
  109MOL   H35745933   6.319   0.130   4.268  1.3022  0.1744 -2.1495
  109MOL   H35845934   6.473   0.187   4.250  1.7088 -2.6660 -2.0084
  109MOL   C35945935   6.588   7.598   4.720  0.5266 -0.4624  0.0984
  109MOL   C36045936   6.712   7.577   4.635 -0.8045  0.0783 -0.1341
  109MOL   C36145937   6.786   7.712   4.616 -0.2725  0.4822  0.2726
  109MOL   O36245938   6.830   7.751   4.505  0.2743  0.1366 -0.0676
  109MOL   O36345939   6.779   7.791   4.718 -0.3232 -0.2504 -0.3011
  109MOL   C36445940   6.825   0.076   4.710 -0.0192  0.3568 -0.1810
  109MOL   C36545941   6.701   0.167   4.735  0.0583  0.8093  0.3886
  109MOL   C36645942   6.657   0.160   4.879 -0.0901 -0.0318  0.2761
  109MOL   C36745943   6.532   0.239   4.913 -0.6572  0.5070  0.6306
  109MOL   H36845944   6.619   7.587   4.824  1.2104 -0.8734 -0.1400
  109MOL   H36945945   6.553   7.700   4.705  0.9716 -0.5813 -1.8765
  109MOL   H37045946   6.694   7.554   4.530  0.7117  0.7634 -0.5574
  109MOL   H37145947   6.863   0.108   4.613 -1.1313 -0.5226 -0.9103
  109MOL   H37245948   6.907   0.095   4.780  0.9880 -0.6359 -1.0727
  109MOL   H37345949   6.724   0.269   4.703  1.8141  0.3571  0.1444
  109MOL   H37445950   6.628   0.138   4.660  2.3289 -1.9331 -0.8593
  109MOL   H37545951   6.732   0.222   4.928 -1.3806  1.2269  0.7168
  109MOL   H37645952   6.661   0.057   4.914  1.8823 -1.3362 -3.4629
  109MOL   H37745953   6.439   0.206   4.867  0.6644 -2.0646 -0.3080
  109MOL   H37845954   6.536   0.344   4.887  1.1437  0.3748  0.3257
  109MOL   H37945955   6.515   0.227   5.020  2.1369  0.6409  1.1191
  109MOL   C38045956   6.809   7.467   4.693 -0.3205  0.2466  0.3471
  109MOL   C38145957   6.890   7.386   4.591 -0.0916  0.3974  0.0422
  109MOL   C38245958   6.808   7.283   4.513  0.0137  0.1975  0.0594
  109MOL   O38345959   6.787   7.300   4.392 -0.4080 -0.1963  0.1243
  109MOL   O38445960   6.765   7.176   4.579 -0.4932 -0.4353  0.0484
  109MOL   C38545961   6.666   7.092   4.523 -0.1928  0.6093 -0.3878
  109MOL   C38645962   6.598   7.022   4.641  0.2203 -0.9555  0.2622
  109MOL   C38745963   6.472   6.958   4.580  0.0952 -0.0295 -1.2925
  109MOL   C38845964   6.409   6.850   4.672 -0.1579  0.0817 -0.2573
  109MOL   H38945965   6.753   7.393   4.751  0.8904 -0.6965  0.3236
  109MOL   H39045966   6.883   7.513   4.758  1.7526  0.9065 -2.4148
  109MOL   H39145967   6.951   7.315   4.647 -0.2914  0.6375  0.5653
  109MOL   H39245968   6.712   7.014   4.463 -0.0340  0.7097 -0.3947
  109MOL   H39345969   6.605   7.156   4.460  2.1976  0.8746 -2.4827
  109MOL   H39445970   6.653   6.947   4.698 -0.1911 -0.9421  0.6854
  109MOL   H39545971   6.558   7.093   4.714  0.1837  0.1300 -0.8044
  109MOL   H39645972   6.498   6.916   4.483 -1.4985 -1.4730 -1.0982
  109MOL   H39745973   6.397   7.033   4.558 -1.1557 -1.0168 -0.4773
  109MOL   H39845974   6.332   6.795   4.619 -1.5964  2.3129 -0.5507
  109MOL   H39945975   6.360   6.889   4.761 -1.5334 -0.5432 -0.7245
  109MOL   H40045976   6.476   6.773   4.711  0.4812  1.1925  0.8985
  109MOL   C40145977   6.991   7.450   4.497  0.5758  0.1478 -0.7809
  109MOL   C40245978   7.112   7.520   4.558 -0.6074  0.3665 -0.2188
  109MOL   C40345979   7.201   7.434   4.643 -0.7542  0.6318 -1.0775
  109MOL   O40445980   7.196   7.443   4.765 -0.2223 -0.5770 -0.1778
  109MOL   O40545981   7.295   7.357   4.578 -0.3479  0.8177  0.2051
  109MOL   C40645982   7.367   7.259   4.652  0.1857 -0.1935 -0.5543
  109MOL   C40745983   7.442   7.173   4.546  0.3414 -0.2239  0.2582
  109MOL   C40845984   7.547   7.239   4.454 -0.2106 -0.3987 -0.3232
  109MOL   C40945985   7.617   7.131   4.368 -0.6711  0.2144 -0.1068
  109MOL   H41045986   6.941   7.521   4.431 -0.5253  0.4884  0.3856
  109MOL   H41145987   7.024   7.367   4.436 -2.0062 -1.5025 -0.0272
  109MOL   H41245988   7.073   7.596   4.625 -2.3560  1.1089 -2.0164
  109MOL   H41345989   7.299   7.196   4.709  2.4859 -1.4870  0.8143
  109MOL   H41445990   7.434   7.299   4.728  1.2563 -0.4417 -1.3608
  109MOL   H41545991   7.496   7.096   4.602 -1.2218 -0.7183  1.1209
  109MOL   H41645992   7.368   7.118   4.488  2.1012 -0.4486 -1.8593
  109MOL   H41745993   7.626   7.295   4.504 -0.4859  0.3071 -0.6564
  109MOL   H41845994   7.485   7.306   4.393 -0.8111 -0.3299  0.3499
  109MOL   H41945995   7.684   7.078   4.437  0.2129 -0.6197 -1.5619
  109MOL   H42045996   7.681   7.181   4.295 -0.6640  1.3920  0.6960
  109MOL   H42145997   7.544   7.063   4.324 -0.7147 -1.1830  2.0742
  109MOL   H42245998   7.171   7.558   4.474 -0.2611 -0.1363 -0.2093
  110MOL     C145999   3.329   0.251   4.244 -0.6594  0.1840  0.7549
  110MOL     C246000   3.341   0.395   4.196 -0.0725 -0.3333 -0.4517
  110MOL     C346001   3.331   0.412   4.049  0.3301  0.3280  0.0477
  110MOL     O446002   3.423   0.461   3.986  0.0998  0.5834 -0.7156
  110MOL     O546003   3.216   0.374   3.997  0.1527  0.3421 -0.0267
  110MOL     C646004   3.198   0.388   3.856  0.2593  0.1532  0.0986
  110MOL     C746005   3.134   0.261   3.804 -0.1246 -0.1476 -0.2956
  110MOL     C846006   3.145   0.258   3.655  0.1974 -0.2243  0.1714
  110MOL     C946007   3.099   0.117   3.606 -0.3622  0.3012 -0.4424
  110MOL    H1046008   3.349   0.241   4.351 -0.4630 -1.8981  0.5386
  110MOL    H1146009   3.228   0.217   4.220  0.0726 -2.7594  1.7739
  110MOL    H1246010   3.437   0.438   4.224 -0.5662 -1.5180  3.4497
  110MOL    H1346011   3.290   0.403   3.798  0.0461  0.9620 -0.0403
  110MOL    H1446012   3.133   0.471   3.828 -0.6368 -1.0692 -1.5755
  110MOL    H1546013   3.185   0.170   3.837  0.4762 -0.5331 -2.2450
  110MOL    H1646014   3.036   0.260   3.852 -0.7014  0.6402 -1.4420
  110MOL    H1746015   3.243   0.289   3.622  0.9376 -2.0750  0.5680
  110MOL    H1846016   3.081   0.340   3.621 -1.8531 -0.7372  2.6358
  110MOL    H1946017   3.128   0.039   3.676  0.0114 -0.4342 -1.4157
  110MOL    H2046018   3.141   0.088   3.510  0.0873  1.3526 -0.5759
  110MOL    H2146019   2.991   0.111   3.600 -0.4681  1.2490  0.3305
  110MOL    H2246020   3.414   0.199   4.199 -1.0359  0.4664 -0.3036
  110MOL    C2346021   3.228   0.475   4.263 -0.4961  0.2102  0.5630
  110MOL    C2446022   3.255   0.502   4.418 -0.5584  0.1168  0.6337
  110MOL    C2546023   3.352   0.616   4.442 -0.0358  0.2692  0.7570
  110MOL    O2646024   3.473   0.595   4.455  0.2626  0.1023 -0.0048
  110MOL    O2746025   3.297   0.730   4.451  0.3380 -0.5024 -0.4075
  110MOL    C2846026   3.377   0.837   4.506 -0.1646  0.1339 -0.1573
  110MOL    C2946027   3.308   0.974   4.502  0.1359 -0.5312 -0.2203
  110MOL    C3046028   3.354   1.073   4.609 -0.1851  0.1629 -0.1986
  110MOL    C3146029   3.262   1.194   4.627 -0.0223  0.5905 -0.0954
  110MOL    H3246030   3.137   0.416   4.273 -1.0276  0.6939 -1.2186
  110MOL    H3346031   3.220   0.570   4.210  1.5567 -0.4399 -0.9670
  110MOL    H3446032   3.321   0.425   4.458  1.7023  0.9988 -1.2775
  110MOL    H3546033   3.475   0.838   4.456  0.6409  0.6110  1.4077
  110MOL    H3646034   3.408   0.812   4.607  1.4359  0.3219 -0.5772
  110MOL    H3746035   3.320   1.003   4.397  1.3327 -1.2470 -0.2825
  110MOL    H3846036   3.199   0.966   4.513 -0.0623  1.7473 -0.2472
  110MOL    H3946037   3.451   1.106   4.571 -1.3948  1.4730 -2.2253
  110MOL    H4046038   3.379   1.029   4.706  0.4531  0.0795 -0.3956
  110MOL    H4146039   3.189   1.162   4.701  1.4999  0.0627  1.2220
  110MOL    H4246040   3.212   1.233   4.539  0.0395 -0.5058 -0.6206
  110MOL    H4346041   3.319   1.270   4.680 -1.8011  2.6511 -1.0742
  110MOL    C4446042   3.126   0.535   4.500  0.1887  0.1185 -0.3828
  110MOL    C4546043   3.021   0.417   4.534 -0.2575  0.8323  0.2152
  110MOL    C4646044   3.105   0.311   4.596 -0.0070  0.0767 -0.5254
  110MOL    O4746045   3.118   0.202   4.545  0.6928  0.0443 -0.0891
  110MOL    O4846046   3.168   0.348   4.711  0.1901  0.4358  0.3959
  110MOL    C4946047   3.270   0.268   4.755  0.5359 -0.1964  0.3430
  110MOL    C5046048   3.349   0.342   4.864 -0.2087 -0.0841  0.3633
  110MOL    C5146049   3.420   0.471   4.815 -0.8798 -0.4307  0.0184
  110MOL    C5246050   3.535   0.449   4.723  0.2262  0.3253  0.0816
  110MOL    H5346051   3.066   0.615   4.457 -0.6760 -1.3800 -2.0329
  110MOL    H5446052   3.151   0.572   4.599  1.0349 -0.7481 -0.2584
  110MOL    H5546053   2.979   0.389   4.437  0.4677 -0.3396  0.2237
  110MOL    H5646054   3.333   0.235   4.672 -2.0368 -2.7742 -0.6615
  110MOL    H5746055   3.217   0.178   4.784  2.0942 -2.2589 -2.8431
  110MOL    H5846056   3.282   0.359   4.948 -2.6173 -1.8155 -1.1180
  110MOL    H5946057   3.421   0.272   4.903 -0.6387  0.9101  3.0380
  110MOL    H6046058   3.460   0.516   4.905 -1.1228 -2.5758  1.2233
  110MOL    H6146059   3.347   0.545   4.779 -1.3206 -1.0809 -0.4350
  110MOL    H6246060   3.613   0.381   4.758 -0.0365  0.6842  1.3804
  110MOL    H6346061   3.580   0.545   4.695 -0.3460  0.5914  0.0631
  110MOL    H6446062   3.501   0.399   4.633 -0.2438 -2.3992  1.7128
  110MOL    C6546063   2.913   0.456   4.631  0.3344  0.4036  0.0211
  110MOL    C6646064   2.784   0.528   4.562 -0.3126 -0.9162 -0.2773
  110MOL    C6746065   2.670   0.434   4.533  0.4907  0.3731 -0.4991
  110MOL    O6846066   2.555   0.446   4.579 -0.0449 -0.3807  0.4877
  110MOL    O6946067   2.708   0.331   4.456 -0.2941  0.1471  0.0035
  110MOL    C7046068   2.631   0.223   4.424  0.5490  0.4356 -0.2885
  110MOL    C7146069   2.657   0.115   4.524  0.1142 -0.1640  0.0067
  110MOL    C7246070   2.616   7.832   4.466  0.3493 -0.4498  0.3797
  110MOL    C7346071   2.466   7.833   4.434 -0.2733 -0.5802  0.5491
  110MOL    H7446072   2.957   0.535   4.692  1.8263 -1.7952  1.8933
  110MOL    H7546073   2.884   0.375   4.698  1.9927 -0.6347 -0.5069
  110MOL    H7646074   2.808   0.563   4.462 -2.9156  1.5242 -0.1206
  110MOL    H7746075   2.638   0.187   4.322 -0.2819  0.1346 -0.2442
  110MOL    H7846076   2.527   0.255   4.428  0.6015  0.5234  0.5525
  110MOL    H7946077   2.762   0.101   4.546  0.2020 -1.3789 -1.1056
  110MOL    H8046078   2.604   0.135   4.617 -0.0323  0.0841 -0.1304
  110MOL    H8146079   2.639   7.752   4.536  0.9423 -3.2655 -2.8693
  110MOL    H8246080   2.669   7.802   4.376  2.0660  1.6518  0.6727
  110MOL    H8346081   2.400   0.003   4.517 -0.0125  3.6886 -0.3162
  110MOL    H8446082   2.436   7.738   4.389  0.2714 -0.3854 -0.2334
  110MOL    H8546083   2.433   0.050   4.357 -5.2342 -1.9935  1.1970
  110MOL    C8646084   2.736   0.654   4.645  0.3161  0.1687 -0.2996
  110MOL    C8746085   2.824   0.780   4.628 -0.1351  0.4726 -0.3222
  110MOL    C8846086   2.817   0.836   4.481 -0.3121 -0.4527  0.2204
  110MOL    O8946087   2.925   0.836   4.416 -0.5783  0.0386 -0.1211
  110MOL    O9046088   2.702   0.883   4.439  0.2414  0.0332  0.0361
  110MOL    C9146089   2.678   0.931   4.303 -0.2343  0.1338 -0.2741
  110MOL    C9246090   2.625   0.820   4.211  0.0956  0.3978  0.4781
  110MOL    C9346091   2.496   0.753   4.265  0.3869 -0.4938 -0.6124
  110MOL    C9446092   2.446   0.646   4.167 -0.4792 -0.1729 -0.0135
  110MOL    H9546093   2.727   0.633   4.751 -1.5080  1.7736 -0.0955
  110MOL    H9646094   2.635   0.683   4.617  0.5148 -1.2463 -2.6213
  110MOL    H9746095   2.929   0.757   4.647 -0.5357 -1.3148 -0.1588
  110MOL    H9846096   2.760   0.984   4.254 -0.8256 -0.7307 -2.2699
  110MOL    H9946097   2.600   1.006   4.312 -1.7299 -1.4082 -0.0347
  110MOL   H10046098   2.603   0.862   4.113 -0.7401  1.8701  1.2846
  110MOL   H10146099   2.703   0.743   4.212 -0.1612  0.1404  0.6513
  110MOL   H10246100   2.421   0.829   4.286 -0.0652 -1.6573  2.2665
  110MOL   H10346101   2.515   0.716   4.366 -1.1902  0.0635 -0.0896
  110MOL   H10446102   2.349   0.613   4.205 -0.9203 -0.8513 -1.6944
  110MOL   H10546103   2.509   0.557   4.168 -2.2478 -1.4916 -2.5830
  110MOL   H10646104   2.437   0.670   4.061 -1.0544  1.1745  0.3319
  110MOL   C10746105   2.790   0.890   4.737  0.1222 -0.3879  0.1898
  110MOL   C10846106   2.906   0.993   4.761  0.1221 -0.0252 -0.2990
  110MOL   C10946107   2.888   1.112   4.670  0.4107  0.1312  0.1005
  110MOL   O11046108   2.968   1.146   4.581 -0.2763 -0.3559  0.3161
  110MOL   O11146109   2.778   1.172   4.690 -0.0412  0.0876 -0.2529
  110MOL   C11246110   2.730   1.266   4.600 -0.1859 -0.2669  0.1034
  110MOL   C11346111   2.658   1.378   4.684 -0.1221 -0.1945 -0.0087
  110MOL   C11446112   2.530   1.330   4.748  0.3836  0.4054 -0.6052
  110MOL   C11546113   2.451   1.451   4.804  0.3999 -0.3084  0.0222
  110MOL   H11646114   2.764   0.834   4.827 -1.1399 -1.1669 -0.6304
  110MOL   H11746115   2.702   0.940   4.698 -0.0658  0.2076  1.3651
  110MOL   H11846116   3.001   0.945   4.738 -0.1689 -0.3430 -0.8390
  110MOL   H11946117   2.672   1.220   4.520 -0.5073  1.5247 -0.7162
  110MOL   H12046118   2.816   1.318   4.558  1.5693 -1.2984  2.2786
  110MOL   H12146119   2.724   1.408   4.765  0.0673  0.7239 -0.5022
  110MOL   H12246120   2.636   1.463   4.619 -0.8813  1.6303  2.5672
  110MOL   H12346121   2.556   1.264   4.831  1.4351  0.2854 -1.0273
  110MOL   H12446122   2.463   1.278   4.678 -1.3255 -1.2213  2.1470
  110MOL   H12546123   2.515   1.524   4.854 -0.3097  0.8663 -0.7701
  110MOL   H12646124   2.378   1.420   4.879 -0.1198  2.0948  0.5394
  110MOL   H12746125   2.392   1.497   4.725 -1.6717 -0.1102  1.6601
  110MOL   C12846126   2.901   1.039   4.910 -0.1057  0.1271  0.7732
  110MOL   C12946127   3.013   1.140   4.939  0.4933 -0.3833  0.4117
  110MOL   C13046128   3.005   1.225   5.068 -0.0519 -0.4433 -0.3856
  110MOL   O13146129   2.918   1.208   5.156  0.1245 -0.4169  0.2826
  110MOL   O13246130   3.102   1.311   5.085  0.0224 -0.0396 -0.3160
  110MOL   C13346131   3.110   1.403   5.195 -1.0721  0.0345 -0.5398
  110MOL   C13446132   3.249   1.463   5.191  0.2995  1.0559 -0.1510
  110MOL   C13546133   3.269   1.585   5.102  0.0470 -0.5223  0.2356
  110MOL   C13646134   3.231   1.565   4.956 -0.1827  0.1727 -0.5757
  110MOL   H13746135   2.911   0.962   4.986  0.5848  0.7504  1.3259
  110MOL   H13846136   2.809   1.094   4.930 -1.6434 -1.8959 -0.5658
  110MOL   H13946137   3.008   1.218   4.862 -0.9669 -1.0729 -0.2054
  110MOL   H14046138   3.081   1.360   5.291 -1.5448 -0.8745 -1.0866
  110MOL   H14146139   3.036   1.482   5.180  0.1150  1.3530  0.3297
  110MOL   H14246140   3.273   1.490   5.294 -0.4308  1.1506 -0.0043
  110MOL   H14346141   3.325   1.388   5.170 -0.2734  0.4494 -0.0537
  110MOL   H14446142   3.376   1.603   5.112  0.1067 -1.1881  0.8300
  110MOL   H14546143   3.217   1.673   5.139  2.3681  0.4396  1.2725
  110MOL   H14646144   3.301   1.498   4.905 -1.7542 -0.8238 -1.4817
  110MOL   H14746145   3.237   1.655   4.896 -0.0387  0.2624 -0.4255
  110MOL   H14846146   3.139   1.512   4.932  0.5288  0.0726 -3.2946
  110MOL   C14946147   3.148   1.070   4.931  0.3983  0.1971  0.7907
  110MOL   C15046148   3.181   0.979   5.054 -0.5558  0.2019  0.5899
  110MOL   C15146149   3.206   0.832   5.010  0.0357  0.4777  0.0122
  110MOL   O15246150   3.321   0.788   4.985  0.0015  0.0111  0.1444
  110MOL   O15346151   3.096   0.759   5.001  0.1947  0.4906 -0.4394
  110MOL   C15446152   3.093   0.619   5.003 -0.1472 -0.6470  0.0250
  110MOL   C15546153   2.945   0.571   5.004 -0.0218  0.7701  0.2908
  110MOL   C15646154   2.927   0.425   5.047 -0.0779  0.3195  0.4391
  110MOL   C15746155   2.790   0.369   5.020  0.0343  0.2124  0.2611
  110MOL   H15846156   3.225   1.147   4.927  2.5515 -1.8586  1.5719
  110MOL   H15946157   3.151   1.010   4.841  1.2916  0.9652  0.2985
  110MOL   H16046158   3.090   0.979   5.114 -0.4814  1.5488  0.6973
  110MOL   H16146159   3.163   0.583   5.078 -0.8661  0.5418  1.2721
  110MOL   H16246160   3.134   0.586   4.908  0.0354  1.1633 -0.5365
  110MOL   H16346161   2.889   0.640   5.067 -0.7694 -2.0611  2.8670
  110MOL   H16446162   2.901   0.588   4.906  1.0639  2.8215  0.1355
  110MOL   H16546163   2.953   0.413   5.152  3.1849 -0.1257 -0.3682
  110MOL   H16646164   3.006   0.363   5.005  0.3171  1.0997  0.0204
  110MOL   H16746165   2.773   0.381   4.913 -0.4759  2.2605  0.5418
  110MOL   H16846166   2.715   0.425   5.077  0.7131  2.7420 -1.2383
  110MOL   H16946167   2.783   0.265   5.049 -0.1726 -0.4135 -1.9258
  110MOL   C17046168   3.294   1.035   5.153  0.4851 -0.2136 -0.0809
  110MOL   C17146169   3.318   0.973   5.293 -0.3709 -0.3738 -0.2088
  110MOL   C17246170   3.456   0.983   5.341  0.6411 -0.7179 -0.7652
  110MOL   O17346171   3.530   1.070   5.301 -0.7612  0.0833 -0.1582
  110MOL   O17446172   3.485   0.896   5.438 -0.3353 -0.0743  0.1786
  110MOL   C17546173   3.612   0.895   5.501 -1.0065 -0.0019 -1.3106
  110MOL   C17646174   3.580   0.901   5.645  0.0786 -0.3158  0.5598
  110MOL   C17746175   3.694   0.879   5.734 -0.4017  0.1279  0.8690
  110MOL   C17846176   3.773   1.012   5.761  0.4847 -0.3428 -0.5998
  110MOL   H17946177   3.292   1.142   5.173 -1.6497 -0.3448  0.4773
  110MOL   H18046178   3.391   1.037   5.103  0.8536 -1.3002  0.5689
  110MOL   H18146179   3.317   0.867   5.270 -0.1601 -0.3124 -0.5171
  110MOL   H18246180   3.666   0.982   5.463  0.0244 -0.5983 -1.2277
  110MOL   H18346181   3.669   0.804   5.479 -2.1943 -0.2650 -3.5322
  110MOL   H18446182   3.545   1.004   5.649 -0.7619 -0.5227 -0.9701
  110MOL   H18546183   3.503   0.829   5.673  0.0853 -0.5714 -0.0608
  110MOL   H18646184   3.755   0.797   5.695 -2.4179 -1.3422  0.6911
  110MOL   H18746185   3.664   0.847   5.834  0.9419 -1.0605  0.9151
  110MOL   H18846186   3.850   0.991   5.835  0.1767  4.6503  1.3284
  110MOL   H18946187   3.716   1.097   5.799  2.4641  1.2594 -1.1123
  110MOL   H19046188   3.820   1.045   5.668  0.3506 -1.1978 -0.9765
  110MOL   C19146189   3.231   1.025   5.409  0.5214  0.1648  1.1279
  110MOL   C19246190   3.078   1.007   5.395  0.0574  0.5592 -0.2365
  110MOL   C19346191   3.038   0.856   5.382 -0.6637  0.6754 -0.0167
  110MOL   O19446192   2.956   0.826   5.301 -0.3007  0.7758 -0.5563
  110MOL   O19546193   3.106   0.777   5.463  0.5274 -0.1764 -0.1687
  110MOL   C19646194   3.068   0.641   5.489 -0.2121  0.2645 -0.1878
  110MOL   C19746195   3.176   0.544   5.434 -0.0239 -0.0840  0.3787
  110MOL   C19846196   3.191   0.417   5.519  0.0869 -1.2445 -0.9723
  110MOL   C19946197   3.249   0.291   5.443  0.0028  0.2084  0.3556
  110MOL   H20046198   3.243   1.134   5.413  2.2261  0.1164 -1.2080
  110MOL   H20146199   3.263   0.988   5.506 -1.6687  0.5969  2.0537
  110MOL   H20246200   3.058   1.048   5.296 -0.5606 -0.4495 -0.5303
  110MOL   H20346201   2.972   0.617   5.445 -0.7059 -0.6035  1.3283
  110MOL   H20446202   3.066   0.633   5.598  0.9164 -1.8201 -0.2810
  110MOL   H20546203   3.151   0.504   5.335  0.5899  1.9862 -0.6329
  110MOL   H20646204   3.272   0.594   5.421 -0.1212  0.1346  0.5055
  110MOL   H20746205   3.097   0.379   5.560 -0.9524  0.2887 -1.8897
  110MOL   H20846206   3.246   0.436   5.611  0.7956  0.8600 -1.7981
  110MOL   H20946207   3.338   0.321   5.389 -1.4019  2.7585 -0.6343
  110MOL   H21046208   3.168   0.266   5.375  1.2939 -0.6397 -0.8985
  110MOL   H21146209   3.276   0.202   5.501  1.5137 -0.0560 -0.7265
  110MOL   C21246210   2.988   1.088   5.489 -0.0785 -0.6634 -0.1242
  110MOL   C21346211   2.937   1.039   5.628 -0.0661 -0.3938  0.1485
  110MOL   C21446212   3.058   1.001   5.719 -0.1167 -0.1461  0.1678
  110MOL   O21546213   3.063   0.885   5.770 -0.3006 -0.3843 -0.7890
  110MOL   O21646214   3.145   1.099   5.728 -0.7306  0.0705 -0.1009
  110MOL   C21746215   3.254   1.067   5.823  0.6012  0.1383 -0.6418
  110MOL   C21846216   3.298   1.201   5.859 -0.0449 -0.2611 -0.2947
  110MOL   C21946217   3.406   1.191   5.968  0.1629 -0.6319 -0.3209
  110MOL   C22046218   3.474   1.325   6.004 -0.0598 -0.3992 -0.1102
  110MOL   H22146219   2.892   1.109   5.440 -0.0089 -0.8895 -0.3574
  110MOL   H22246220   3.028   1.188   5.507 -2.2266  0.3594 -0.8123
  110MOL   H22346221   2.894   0.940   5.615  0.4731 -0.4529 -1.2636
  110MOL   H22446222   3.335   1.015   5.771  1.7654  0.7034  0.5816
  110MOL   H22546223   3.226   1.004   5.907 -0.4004  1.4130 -0.0049
  110MOL   H22646224   3.343   1.255   5.775 -2.2183  0.2635 -1.1411
  110MOL   H22746225   3.217   1.264   5.896 -0.3584 -0.4850 -0.5959
  110MOL   H22846226   3.480   1.127   5.918  1.0298  0.5705 -0.5967
  110MOL   H22946227   3.371   1.144   6.060 -1.0253 -0.7520 -0.8176
  110MOL   H23046228   3.547   1.309   6.084  0.1526  0.0197 -0.2145
  110MOL   H23146229   3.398   1.390   6.047 -0.4402 -1.7144  1.2114
  110MOL   H23246230   3.529   1.361   5.917  2.1427 -2.5373  0.3277
  110MOL   C23346231   2.848   1.147   5.693 -0.0315  0.0890 -0.2013
  110MOL   C23446232   2.817   1.129   5.843  0.6244  0.4687 -0.8961
  110MOL   C23546233   2.759   1.263   5.899 -0.1677 -0.4507 -0.5235
  110MOL   O23646234   2.691   1.333   5.824  0.1664  0.2707 -0.5135
  110MOL   O23746235   2.777   1.284   6.028 -0.5064  0.6537 -0.6688
  110MOL   C23846236   2.736   1.410   6.073 -0.0791 -0.2392 -0.0417
  110MOL   C23946237   2.588   1.435   6.111 -0.8630 -0.1038  0.5289
  110MOL   C24046238   2.560   1.581   6.164 -0.3915  0.5266 -0.5576
  110MOL   C24146239   2.660   1.622   6.275  0.1958 -0.6704  0.1288
  110MOL   H24246240   2.766   1.175   5.627 -1.0713  2.8359  2.1709
  110MOL   H24346241   2.909   1.237   5.693 -0.2836  0.2605 -0.0015
  110MOL   H24446242   2.910   1.112   5.896 -0.0884 -0.2638  0.1396
  110MOL   H24546243   2.764   1.500   6.019  0.9246 -1.3319 -1.3929
  110MOL   H24646244   2.794   1.421   6.165 -0.1186 -1.1790  0.1071
  110MOL   H24746245   2.535   1.424   6.016 -0.7433 -0.3155  0.4871
  110MOL   H24846246   2.551   1.359   6.179  0.1189  1.3455  2.7440
  110MOL   H24946247   2.456   1.585   6.197  0.0375 -0.7591  0.9975
  110MOL   H25046248   2.559   1.649   6.079 -1.9688  0.7958 -0.3274
  110MOL   H25146249   2.644   1.722   6.317 -2.4752 -0.7774 -0.5816
  110MOL   H25246250   2.760   1.614   6.234  1.2514 -0.9044  2.6454
  110MOL   H25346251   2.651   1.550   6.356  0.8207 -1.8268 -0.8132
  110MOL   C25446252   2.709   1.013   5.865 -0.0075  0.2909  0.2314
  110MOL   C25546253   2.751   0.902   5.963 -0.2771  0.1758  0.0544
  110MOL   C25646254   2.746   0.961   6.108 -0.3260  0.6686 -0.3922
  110MOL   O25746255   2.640   0.944   6.170 -0.4835  0.2719  0.1375
  110MOL   O25846256   2.855   1.020   6.151 -0.1978 -0.1569 -0.9573
  110MOL   C25946257   2.856   1.057   6.287  0.6436 -0.5713 -0.2641
  110MOL   C26046258   2.990   1.103   6.330  0.6030  0.0747 -0.4251
  110MOL   C26146259   3.042   1.244   6.288 -0.0779  0.6789 -0.4430
  110MOL   C26246260   3.199   1.255   6.294  0.1143  0.0399 -0.7648
  110MOL   H26346261   2.697   0.969   5.766  0.5540  0.3154  0.1498
  110MOL   H26446262   2.609   1.050   5.888 -0.9059 -1.1169 -1.3207
  110MOL   H26546263   2.856   0.876   5.950 -0.1795  0.4741  0.2320
  110MOL   H26646264   2.827   0.975   6.352  0.4647 -2.2136 -2.3709
  110MOL   H26746265   2.785   1.138   6.304  1.9221  0.5585 -0.1733
  110MOL   H26846266   2.981   1.105   6.439 -1.6874 -0.3419 -0.5816
  110MOL   H26946267   3.056   1.021   6.301  0.9047 -0.2593  1.1415
  110MOL   H27046268   3.005   1.323   6.353 -0.2455 -0.4276  0.8341
  110MOL   H27146269   3.001   1.263   6.189  2.0788  0.8793 -1.3371
  110MOL   H27246270   3.250   1.180   6.232  0.1223 -0.9148  0.3703
  110MOL   H27346271   3.225   1.240   6.399 -1.7340  0.0258 -0.3032
  110MOL   H27446272   3.238   1.353   6.266 -0.0685  1.1829  2.7768
  110MOL   C27546273   2.671   0.776   5.944  0.2118 -0.6554  0.1040
  110MOL   C27646274   2.734   0.680   5.842 -0.3307 -0.5042 -0.2314
  110MOL   C27746275   2.857   0.611   5.903 -0.4504  0.7398 -0.0099
  110MOL   O27846276   2.858   0.585   6.021  0.6993  0.2423 -0.6919
  110MOL   O27946277   2.960   0.579   5.816 -0.3250  0.4076 -0.5331
  110MOL   C28046278   3.069   0.498   5.849 -0.2697 -0.2782  0.3500
  110MOL   C28146279   3.204   0.573   5.847 -0.7515 -0.4945 -0.1099
  110MOL   C28246280   3.213   0.655   5.975  0.2199 -0.3421  0.3230
  110MOL   C28346281   3.353   0.703   6.002 -0.0610 -0.2642 -1.1982
  110MOL   H28446282   2.568   0.803   5.921  0.6820 -0.2319 -1.5483
  110MOL   H28546283   2.664   0.725   6.040  1.7929 -1.3996 -0.1623
  110MOL   H28646284   2.777   0.745   5.766 -0.6450 -2.3425 -1.9956
  110MOL   H28746285   3.083   0.423   5.772  2.3577  0.7660 -0.2583
  110MOL   H28846286   3.052   0.453   5.947 -1.1511 -0.2243  0.2233
  110MOL   H28946287   3.290   0.508   5.827 -0.4152 -0.5037  1.3240
  110MOL   H29046288   3.209   0.650   5.770  0.9242  0.3629  0.8085
  110MOL   H29146289   3.181   0.594   6.059  1.9155 -1.2538  0.3329
  110MOL   H29246290   3.137   0.732   5.970  1.3638  0.7114 -1.6265
  110MOL   H29346291   3.401   0.625   6.062 -0.9437 -0.3433 -0.5855
  110MOL   H29446292   3.355   0.791   6.067  0.6088  0.3125 -1.9817
  110MOL   H29546293   3.409   0.728   5.912  0.7280  1.9366 -0.1379
  110MOL   C29646294   2.627   0.584   5.777 -0.4176 -0.6293 -0.9509
  110MOL   C29746295   2.525   0.668   5.688  0.5652  0.2432  0.0642
  110MOL   C29846296   2.596   0.745   5.571  0.6600  0.2736 -0.2515
  110MOL   O29946297   2.702   0.707   5.521 -0.3970  0.5214 -0.1416
  110MOL   O30046298   2.539   0.866   5.560 -0.3878 -0.7748 -0.1540
  110MOL   C30146299   2.584   0.970   5.485 -0.4917  0.6245 -0.3429
  110MOL   C30246300   2.548   0.955   5.337 -0.7385  0.3131  0.2513
  110MOL   C30346301   2.610   1.081   5.267  0.1660  0.5927 -0.3050
  110MOL   C30446302   2.565   1.088   5.122 -0.5273  0.0912 -0.0080
  110MOL   H30546303   2.561   0.533   5.847 -1.3914  1.1158 -0.5692
  110MOL   H30646304   2.672   0.498   5.727 -0.1255 -0.1222 -1.5619
  110MOL   H30746305   2.470   0.726   5.761  0.8086 -0.1146  0.5347
  110MOL   H30846306   2.693   0.976   5.488 -0.2965 -1.1606 -2.5033
  110MOL   H30946307   2.545   1.059   5.534 -0.5164 -0.8487  2.4183
  110MOL   H31046308   2.598   0.863   5.307 -0.1633  0.1660  1.6182
  110MOL   H31146309   2.444   0.931   5.316 -1.0699  0.6147  1.5127
  110MOL   H31246310   2.718   1.070   5.259  0.3027  2.2115 -0.8781
  110MOL   H31346311   2.588   1.176   5.315 -0.3933  0.1793  0.2484
  110MOL   H31446312   2.580   0.996   5.067 -0.6119  0.5820 -0.8676
  110MOL   H31546313   2.611   1.171   5.068 -1.3881  0.4541 -0.1963
  110MOL   H31646314   2.458   1.102   5.109 -0.3787 -0.3471 -1.8025
  110MOL   C31746315   2.416   0.573   5.639 -0.1705  0.0492  0.0999
  110MOL   C31846316   2.304   0.632   5.543 -0.2960  0.0176 -0.1418
  110MOL   C31946317   2.220   0.509   5.505  0.2845  0.5790 -0.2172
  110MOL   O32046318   2.204   0.470   5.387 -0.4928 -0.7419  0.1348
  110MOL   O32146319   2.156   0.451   5.605 -0.1853  0.1580 -0.5546
  110MOL   C32246320   2.068   0.340   5.577 -0.2829 -0.4878  0.4490
  110MOL   C32346321   1.986   0.308   5.700  0.3000  0.4052 -0.7920
  110MOL   C32446322   2.051   0.257   5.832  0.2611 -0.2083  0.2565
  110MOL   C32546323   2.116   0.115   5.822 -0.2001  0.6476 -0.1382
  110MOL   H32646324   2.370   0.540   5.732 -1.4882  1.8778  0.1303
  110MOL   H32746325   2.469   0.487   5.597  0.0619  0.1464  0.1880
  110MOL   H32846326   2.352   0.674   5.455 -0.3471 -0.0341 -0.1944
  110MOL   H32946327   2.119   0.253   5.536 -2.1626 -1.6653  0.5353
  110MOL   H33046328   1.993   0.371   5.505 -0.1281 -2.0665 -0.4256
  110MOL   H33146329   1.929   0.401   5.714  0.2379  0.2821 -0.2020
  110MOL   H33246330   1.904   0.240   5.675  0.1984  0.2244  0.0117
  110MOL   H33346331   1.971   0.266   5.905 -0.7075 -0.8209 -0.7032
  110MOL   H33446332   2.122   0.330   5.870 -0.1996 -0.0699  0.8472
  110MOL   H33546333   2.172   0.102   5.729  0.4784  0.7489  0.2535
  110MOL   H33646334   2.048   0.033   5.843 -0.8611  1.4577  0.9547
  110MOL   H33746335   2.197   0.102   5.893 -1.6247  0.1015  1.4229
  110MOL   C33846336   2.228   0.755   5.602 -0.5706 -0.4496 -0.0487
  110MOL   C33946337   2.197   0.882   5.502 -0.4477  0.7809  0.4286
  110MOL   C34046338   2.125   0.816   5.385  0.1853 -0.4588  0.6736
  110MOL   O34146339   2.004   0.792   5.378  0.6782 -0.4078 -0.2710
  110MOL   O34246340   2.210   0.787   5.282  0.0274  0.1498  0.1615
  110MOL   C34346341   2.167   0.715   5.177  0.1740 -0.3673  0.5947
  110MOL   C34446342   2.285   0.648   5.108 -0.7233  0.2211 -0.3295
  110MOL   C34546343   2.366   0.737   5.007  0.2514 -0.9493 -0.1824
  110MOL   C34646344   2.473   0.641   4.950  0.1216  0.1693  0.2821
  110MOL   H34746345   2.278   0.782   5.695  1.0328 -3.2771 -0.0427
  110MOL   H34846346   2.133   0.717   5.641  0.2211 -4.2309 -1.5873
  110MOL   H34946347   2.287   0.925   5.459  1.9167 -2.4145  1.9943
  110MOL   H35046348   2.106   0.769   5.103  1.0759 -2.7657 -2.0073
  110MOL   H35146349   2.091   0.649   5.219  0.0028  0.7270  2.0474
  110MOL   H35246350   2.348   0.600   5.182 -2.4929 -2.7889 -0.7197
  110MOL   H35346351   2.251   0.563   5.049  0.6520 -0.1476 -0.6000
  110MOL   H35446352   2.408   0.823   5.059 -2.7236 -0.5127  1.6678
  110MOL   H35546353   2.293   0.777   4.937  0.4691  1.4835  0.9340
  110MOL   H35646354   2.435   0.574   4.873 -0.1473  0.6154  0.0250
  110MOL   H35746355   2.516   0.582   5.031 -1.0249 -0.0741  0.7208
  110MOL   H35846356   2.554   0.698   4.902 -0.3308  0.6414  0.0735
  110MOL   C35946357   2.103   0.979   5.577 -0.2295 -0.3011  0.0044
  110MOL   C36046358   2.128   1.125   5.531  0.7060 -0.0050 -0.5444
  110MOL   C36146359   2.261   1.177   5.584 -0.0695 -0.6167  0.2056
  110MOL   O36246360   2.354   1.206   5.509 -0.0579  0.6648 -0.0179
  110MOL   O36346361   2.264   1.196   5.717  0.0224  0.1221 -0.3678
  110MOL   C36446362   2.387   1.217   5.778  0.0257  0.7971 -0.1919
  110MOL   C36546363   2.364   1.196   5.933 -0.4146 -0.2484  0.6307
  110MOL   C36646364   2.325   1.053   5.973  0.3471  0.8275 -0.1237
  110MOL   C36746365   2.309   1.046   6.119 -0.4374  0.1600 -0.1700
  110MOL   H36846366   2.129   0.976   5.682  1.6015  0.5625 -0.4050
  110MOL   H36946367   1.999   0.947   5.575 -0.4396  0.3931 -0.9388
  110MOL   H37046368   2.053   1.190   5.576  0.0159 -0.4801 -0.9863
  110MOL   H37146369   2.434   1.307   5.739  1.7387 -0.3237 -0.7533
  110MOL   H37246370   2.462   1.146   5.743  0.0427  1.5828 -1.7909
  110MOL   H37346371   2.459   1.218   5.982 -0.2100  2.7417 -0.9978
  110MOL   H37446372   2.301   1.278   5.967  2.2224  1.7543  0.8981
  110MOL   H37546373   2.405   0.987   5.941  0.4697  1.2660 -0.7495
  110MOL   H37646374   2.236   1.019   5.919 -0.8856  0.4913  2.0661
  110MOL   H37746375   2.403   1.024   6.169 -0.2727 -1.5934 -1.2343
  110MOL   H37846376   2.245   0.966   6.156 -0.1499 -0.1782 -0.4121
  110MOL   H37946377   2.281   1.145   6.156  3.0053  1.2596 -0.3125
  110MOL   C38046378   2.112   1.144   5.378 -0.1877  0.1473 -0.3922
  110MOL   C38146379   1.980   1.118   5.311 -0.3276 -0.2417 -0.0737
  110MOL   C38246380   1.884   1.223   5.373  0.5867  0.4301 -0.1539
  110MOL   O38346381   1.815   1.208   5.471  0.5733 -0.7192  0.3848
  110MOL   O38446382   1.908   1.342   5.310  0.1584 -0.1327  0.2484
  110MOL   C38546383   1.811   1.446   5.320  0.0262  0.5237 -0.3947
  110MOL   C38646384   1.838   1.548   5.430  0.2113  0.3061  1.3383
  110MOL   C38746385   1.977   1.614   5.422  1.0239 -0.6209 -0.9990
  110MOL   C38846386   2.100   1.535   5.391  0.5595  0.2965  0.0724
  110MOL   H38946387   2.190   1.087   5.328  1.7832  2.3360  0.0391
  110MOL   H39046388   2.147   1.247   5.364  0.9939 -0.0713  0.8644
  110MOL   H39146389   1.941   1.019   5.334 -0.3967 -0.5273 -1.3765
  110MOL   H39246390   1.715   1.398   5.337  1.1790 -1.4460  0.7761
  110MOL   H39346391   1.814   1.486   5.219  1.2015 -1.2381 -1.0783
  110MOL   H39446392   1.748   1.609   5.418 -0.3046 -0.8010 -0.7417
  110MOL   H39546393   1.818   1.503   5.528  0.6990  0.4125  1.4872
  110MOL   H39646394   1.996   1.650   5.523 -2.4951 -2.6693  0.4822
  110MOL   H39746395   1.969   1.702   5.358 -2.9810 -1.2562 -1.5343
  110MOL   H39846396   2.194   1.588   5.403  0.8937 -0.3579  0.3471
  110MOL   H39946397   2.106   1.516   5.283 -2.0517 -1.1062  0.1169
  110MOL   H40046398   2.094   1.441   5.446 -1.6412  0.4069  0.0819
  110MOL   C40146399   1.970   1.130   5.154 -0.1708 -0.2796 -0.1633
  110MOL   C40246400   1.827   1.096   5.095  0.7908 -1.0385  0.9323
  110MOL   C40346401   1.792   0.946   5.106  0.0018  0.1333 -0.2748
  110MOL   O40446402   1.696   0.920   5.167  0.5596  0.0701  0.4813
  110MOL   O40546403   1.872   0.861   5.042 -0.2857  0.6558  0.1100
  110MOL   C40646404   1.830   0.726   5.032  0.2682  0.2905 -0.2477
  110MOL   C40746405   1.901   0.649   4.920  0.1579 -0.5971  0.4269
  110MOL   C40846406   1.896   0.718   4.781  0.3606  0.2436 -0.0696
  110MOL   C40946407   1.971   0.629   4.671  0.5715 -0.3312 -0.3621
  110MOL   H41046408   2.035   1.053   5.112  1.2189  0.0343  1.3610
  110MOL   H41146409   2.003   1.229   5.124  0.9328 -0.0788  1.6530
  110MOL   H41246410   1.839   1.122   4.990 -1.1948 -1.4967  0.5719
  110MOL   H41346411   1.725   0.725   5.004  0.1111 -0.4902  0.3314
  110MOL   H41446412   1.830   0.671   5.126  0.6945 -1.3633 -1.2063
  110MOL   H41546413   2.005   0.650   4.952  0.5871 -1.4154 -0.9003
  110MOL   H41646414   1.865   0.546   4.915 -0.8063 -0.3212  1.4216
  110MOL   H41746415   1.933   0.820   4.780 -2.0164  1.1300 -1.3997
  110MOL   H41846416   1.790   0.720   4.755  0.3766 -0.1631 -0.1696
  110MOL   H41946417   1.949   0.674   4.574  0.9900 -0.4191 -0.4950
  110MOL   H42046418   1.936   0.526   4.678 -0.6953  0.0409 -1.0423
  110MOL   H42146419   2.077   0.641   4.692  0.1484  1.9413  0.6173
  110MOL   H42246420   1.751   1.159   5.142 -0.7590 -0.9292 -1.5990
  111MOL     C146421   3.084   1.628   6.164 -0.2403  0.1967  0.1971
  111MOL     C246422   3.024   1.758   6.124  0.2369  0.2452 -0.3931
  111MOL     C346423   2.917   1.746   6.007 -0.3129  1.0247 -0.2609
  111MOL     O446424   2.812   1.804   6.019  0.6784 -0.2818  0.2387
  111MOL     O546425   2.960   1.675   5.900 -0.2084 -0.1745 -0.1748
  111MOL     C646426   2.874   1.647   5.780 -0.0989 -0.0232 -0.3648
  111MOL     C746427   2.935   1.532   5.696 -0.1542 -0.4692 -0.2803
  111MOL     C846428   3.074   1.570   5.641 -0.3928 -0.4158  0.3308
  111MOL     C946429   3.142   1.451   5.571  0.3290 -0.5420  0.9703
  111MOL    H1046430   3.182   1.653   6.205  0.1274  0.2697 -0.7199
  111MOL    H1146431   3.027   1.564   6.231  2.5530 -0.9371  1.5631
  111MOL    H1246432   3.112   1.800   6.075  2.1205 -2.8794  0.1426
  111MOL    H1346433   2.853   1.737   5.722  0.5159  1.3142  1.4062
  111MOL    H1446434   2.776   1.625   5.824  1.3631 -0.8778  2.6062
  111MOL    H1546435   2.927   1.448   5.765  4.0765 -2.3483 -1.9247
  111MOL    H1646436   2.864   1.513   5.616  0.0865  1.3953 -0.9753
  111MOL    H1746437   3.149   1.602   5.713  1.6374 -3.7654 -0.1597
  111MOL    H1846438   3.054   1.643   5.563  0.5030 -0.5270 -0.0132
  111MOL    H1946439   3.081   1.420   5.486  2.0872 -3.1497  0.6110
  111MOL    H2046440   3.150   1.363   5.635  0.4057  0.0228  1.7452
  111MOL    H2146441   3.245   1.471   5.542 -0.6476  4.3641  0.5008
  111MOL    H2246442   3.103   1.562   6.080  0.6552 -0.4586  0.9062
  111MOL    C2346443   2.967   1.843   6.237 -0.1180  0.1369 -0.1202
  111MOL    C2446444   3.070   1.848   6.356 -0.4393 -0.2016 -0.4802
  111MOL    C2546445   3.199   1.918   6.320 -0.3437  0.6756  0.1865
  111MOL    O2646446   3.312   1.911   6.380 -0.2138  0.0948 -0.2616
  111MOL    O2746447   3.183   2.004   6.214 -0.0095 -0.1706  0.3222
  111MOL    C2846448   3.277   2.103   6.176 -0.1213 -0.5362  0.8256
  111MOL    C2946449   3.195   2.213   6.119 -0.0705  0.5750 -0.6014
  111MOL    C3046450   3.146   2.177   5.981  0.3506  0.2216  0.2312
  111MOL    C3146451   3.087   2.297   5.911 -0.6956  0.2216  0.1450
  111MOL    H3246452   2.886   1.783   6.278  0.3041 -1.6666 -1.8538
  111MOL    H3346453   2.925   1.941   6.213 -1.3947 -0.0698  1.2013
  111MOL    H3446454   3.109   1.748   6.375 -1.6302 -0.3271  1.3723
  111MOL    H3546455   3.345   2.066   6.099 -2.2464 -0.0328 -1.3610
  111MOL    H3646456   3.337   2.139   6.259 -0.0988 -0.4784  0.7838
  111MOL    H3746457   3.111   2.247   6.179  1.4233  0.1236  1.8017
  111MOL    H3846458   3.267   2.292   6.097  1.1045 -0.1561  0.5490
  111MOL    H3946459   3.082   2.090   5.973  0.2724  0.2293  0.7621
  111MOL    H4046460   3.223   2.141   5.913 -1.0421 -1.5799 -0.4140
  111MOL    H4146461   3.017   2.351   5.974 -2.2599  0.5995 -1.8472
  111MOL    H4246462   3.025   2.273   5.824  0.3958  2.2778 -1.2548
  111MOL    H4346463   3.158   2.372   5.876  0.9073 -1.1286  0.4391
  111MOL    C4446464   3.005   1.898   6.486 -0.2261  0.6156  0.0920
  111MOL    C4546465   2.905   1.805   6.544  0.2615  0.0596  0.0516
  111MOL    C4646466   2.941   1.650   6.546  0.6422  0.1699 -0.2989
  111MOL    O4746467   2.888   1.569   6.471  0.2164  0.5661  0.4668
  111MOL    O4846468   3.062   1.633   6.610 -0.3375  0.3299  0.5357
  111MOL    C4946469   3.130   1.509   6.616 -0.2579 -0.0867  0.0932
  111MOL    C5046470   3.137   1.462   6.759 -0.0666  0.2455 -0.8524
  111MOL    C5146471   3.215   1.321   6.773 -0.0598 -0.6092  0.0893
  111MOL    C5246472   3.211   1.253   6.914  0.1342  0.3014 -0.7118
  111MOL    H5346473   2.957   1.991   6.456 -0.1717  0.3648 -0.7967
  111MOL    H5446474   3.086   1.916   6.556 -1.8830 -0.0578  2.2061
  111MOL    H5546475   2.825   1.800   6.470  1.0610  1.6554 -0.9440
  111MOL    H5646476   3.227   1.521   6.568 -0.2960 -1.3612 -0.3333
  111MOL    H5746477   3.074   1.434   6.560 -0.9342  0.8209 -0.4532
  111MOL    H5846478   3.184   1.537   6.822 -1.5007 -0.5926  1.2585
  111MOL    H5946479   3.033   1.454   6.792  0.2986  0.3524  0.3550
  111MOL    H6046480   3.317   1.331   6.737 -0.5951  0.9059 -1.0710
  111MOL    H6146481   3.165   1.256   6.701  1.0775 -0.8940 -0.4471
  111MOL    H6246482   3.276   1.304   6.986 -0.6069  1.0339 -0.5581
  111MOL    H6346483   3.242   1.149   6.905  0.7347  0.4404 -0.3025
  111MOL    H6446484   3.114   1.251   6.963  0.3919 -1.7115 -0.2668
  111MOL    C6546485   2.849   1.859   6.683 -0.2005 -0.6328  0.2813
  111MOL    C6646486   2.922   1.841   6.820 -0.7338  0.0990  0.1042
  111MOL    C6746487   3.032   1.945   6.821 -0.9528  0.1669  0.0630
  111MOL    O6846488   3.006   2.063   6.830  0.3552 -0.0977  0.4820
  111MOL    O6946489   3.150   1.883   6.815 -0.1227 -0.8016 -0.0341
  111MOL    C7046490   3.270   1.962   6.817  0.1651  0.1458  0.2070
  111MOL    C7146491   3.386   1.870   6.814  0.1991 -0.2047  0.0812
  111MOL    C7246492   3.401   1.791   6.946 -0.8913 -0.1577 -0.1099
  111MOL    C7346493   3.498   1.671   6.926  0.0602  0.3569  0.5697
  111MOL    H7446494   2.751   1.812   6.687 -1.3262  1.6767  0.5959
  111MOL    H7546495   2.824   1.963   6.666  1.9296 -0.6009 -3.3816
  111MOL    H7646496   2.966   1.741   6.825 -0.4933 -0.0139 -3.1315
  111MOL    H7746497   3.283   2.025   6.905 -0.9129 -1.0069  1.2219
  111MOL    H7846498   3.275   2.015   6.723 -0.1797 -0.9003 -0.4084
  111MOL    H7946499   3.376   1.807   6.726  0.7219 -0.0327 -0.1023
  111MOL    H8046500   3.479   1.923   6.790  0.6523 -0.5406  1.0674
  111MOL    H8146501   3.305   1.759   6.986 -0.4529 -0.2616  0.8624
  111MOL    H8246502   3.440   1.852   7.028  0.6460 -1.3487  0.0782
  111MOL    H8346503   3.600   1.706   6.908  0.1041  0.1942  0.5071
  111MOL    H8446504   3.472   1.628   6.829 -1.9630  0.2962  1.1215
  111MOL    H8546505   3.498   1.601   7.009 -0.1981  0.6589  0.8281
  111MOL    C8646506   2.835   1.849   6.937  0.5355 -0.1690 -0.0755
  111MOL    C8746507   2.896   1.794   7.074  0.1354 -0.6924 -0.5115
  111MOL    C8846508   3.003   1.892   7.137 -0.1781  0.0127  0.3278
  111MOL    O8946509   3.122   1.858   7.152  0.2757  0.3481  0.3333
  111MOL    O9046510   2.945   2.014   7.165 -0.7706 -0.5690 -0.0619
  111MOL    C9146511   3.021   2.115   7.229  0.1870 -0.1505  0.7588
  111MOL    C9246512   2.929   2.231   7.261 -0.1142  0.0986  0.1419
  111MOL    C9346513   2.871   2.231   7.395  0.2452  0.3429  0.1354
  111MOL    C9446514   2.761   2.337   7.420  0.0069  0.2385  0.1679
  111MOL    H9546515   2.749   1.788   6.909  0.9059 -0.5934 -0.3030
  111MOL    H9646516   2.802   1.952   6.945 -0.6481 -0.5863  0.6785
  111MOL    H9746517   2.948   1.700   7.054  2.3844  0.8557 -2.2513
  111MOL    H9846518   3.089   2.169   7.163 -0.7429  0.9611  0.6858
  111MOL    H9946519   3.075   2.085   7.319 -0.1681 -1.2637  0.6023
  111MOL   H10046520   2.978   2.328   7.259 -1.4323  0.8477  2.3342
  111MOL   H10146521   2.854   2.226   7.182  1.0182 -0.8585 -0.9028
  111MOL   H10246522   2.949   2.242   7.470 -0.3205  0.0687  0.7763
  111MOL   H10346523   2.828   2.134   7.420 -1.4241  0.8698 -0.5878
  111MOL   H10446524   2.714   2.316   7.516 -1.0397  0.9991 -0.1693
  111MOL   H10546525   2.697   2.337   7.332 -1.1171  0.3532  0.9688
  111MOL   H10646526   2.815   2.430   7.429 -0.5052  0.4264  1.3620
  111MOL   C10746527   2.784   1.769   7.187  0.4457 -0.0626  0.0273
  111MOL   C10846528   2.829   1.700   7.322  0.2793 -0.3837 -0.0097
  111MOL   C10946529   2.777   1.785   7.443  0.2475 -0.6773  0.0621
  111MOL   O11046530   2.852   1.866   7.491  0.6069  0.2941  0.5611
  111MOL   O11146531   2.655   1.757   7.473  0.4250 -0.1274  0.1041
  111MOL   C11246532   2.597   1.833   7.581  0.9411  0.0815  0.3299
  111MOL   C11346533   2.454   1.778   7.619 -0.5269 -0.1090  0.4817
  111MOL   C11446534   2.394   1.870   7.723  0.0130  0.4288 -0.0302
  111MOL   C11546535   2.248   1.837   7.735  0.1153 -0.3878  0.1048
  111MOL   H11646536   2.708   1.699   7.152 -0.6762  0.3247  1.6162
  111MOL   H11746537   2.735   1.863   7.212 -0.8120 -0.5861 -0.4338
  111MOL   H11846538   2.936   1.708   7.340  1.2650 -4.1707 -3.4936
  111MOL   H11946539   2.577   1.932   7.539  0.7428 -0.4702 -0.9230
  111MOL   H12046540   2.659   1.832   7.670  1.5590  2.4127 -0.0410
  111MOL   H12146541   2.394   1.786   7.528  0.2307  1.7659  0.1315
  111MOL   H12246542   2.452   1.673   7.650 -1.7191 -0.2434 -0.0289
  111MOL   H12346543   2.398   1.977   7.701  2.1777  0.7402  1.7145
  111MOL   H12446544   2.442   1.860   7.820  1.0861 -3.4739 -0.8723
  111MOL   H12546545   2.224   1.736   7.767  0.7826 -0.3402  0.7812
  111MOL   H12646546   2.206   1.842   7.635 -0.2882 -3.1558  0.1047
  111MOL   H12746547   2.205   1.917   7.795  0.4404  0.5860 -0.9443
  111MOL   C12846548   2.794   1.545   7.340  0.6167 -0.1467 -0.1988
  111MOL   C12946549   2.861   1.447   7.242  0.2136 -0.5095  0.0009
  111MOL   C13046550   3.012   1.474   7.209  0.0412 -0.4383 -0.5923
  111MOL   O13146551   3.054   1.461   7.098 -0.4934 -0.5400  0.0378
  111MOL   O13246552   3.086   1.500   7.317  0.6643  0.3639  0.4673
  111MOL   C13346553   3.223   1.526   7.316  0.3103  0.5727 -0.4107
  111MOL   C13446554   3.300   1.431   7.402 -0.4792  0.1339 -0.4220
  111MOL   C13546555   3.300   1.290   7.349 -0.1243 -0.5004  0.5071
  111MOL   C13646556   3.398   1.202   7.420 -0.8463  0.2713  0.0512
  111MOL   H13746557   2.685   1.537   7.336  0.6471 -1.2263  0.9914
  111MOL   H13846558   2.831   1.518   7.438  0.8673  2.5194  0.4804
  111MOL   H13946559   2.803   1.444   7.150  0.1200  1.1272 -0.0074
  111MOL   H14046560   3.240   1.625   7.358 -0.0164 -0.3433  1.9665
  111MOL   H14146561   3.269   1.520   7.217 -2.0191 -1.1937 -1.4300
  111MOL   H14246562   3.404   1.462   7.406 -0.7848  1.0647  0.4340
  111MOL   H14346563   3.255   1.440   7.501 -0.3417 -2.0620 -0.1259
  111MOL   H14446564   3.316   1.283   7.241  0.6650 -2.2558  0.7261
  111MOL   H14546565   3.198   1.251   7.347  0.2904 -1.6515  1.4564
  111MOL   H14646566   3.411   1.110   7.363 -2.1520 -1.2447  2.1037
  111MOL   H14746567   3.365   1.176   7.521  0.8287  0.3304  0.6296
  111MOL   H14846568   3.496   1.249   7.421 -0.8069  0.2155 -0.7238
  111MOL   C14946569   2.861   1.301   7.295  0.0181  0.1155 -0.0304
  111MOL   C15046570   2.727   1.225   7.272  0.1747  0.9039  0.0111
  111MOL   C15146571   2.713   1.175   7.128  0.4600  0.0448  0.1214
  111MOL   O15246572   2.616   1.207   7.062  0.1792  0.0217  0.5428
  111MOL   O15346573   2.801   1.087   7.088 -0.1232 -0.3815  0.1822
  111MOL   C15446574   2.792   1.023   6.968 -0.1351  0.0259 -0.5979
  111MOL   C15546575   2.929   1.020   6.894 -0.0628 -0.5983 -0.1938
  111MOL   C15646576   2.928   0.927   6.773 -0.3358 -0.0735 -0.3783
  111MOL   C15746577   3.058   0.906   6.703  0.5560 -0.2022  0.4291
  111MOL   H15846578   2.893   1.303   7.400  1.9677 -0.1445 -0.6010
  111MOL   H15946579   2.945   1.245   7.253 -0.1481 -0.5837  0.5480
  111MOL   H16046580   2.638   1.287   7.277  0.4825  1.2141  2.0260
  111MOL   H16146581   2.713   1.065   6.907 -0.2523  1.1713  0.3302
  111MOL   H16246582   2.763   0.919   6.984 -1.0741  0.4501  0.5379
  111MOL   H16346583   2.969   1.118   6.870  2.4110 -1.7575 -1.0043
  111MOL   H16446584   3.006   0.985   6.963 -0.2595  0.7173  0.6990
  111MOL   H16546585   2.861   0.967   6.697 -0.3729  0.6180  0.0160
  111MOL   H16646586   2.887   0.831   6.806  0.1598  0.5532  2.2004
  111MOL   H16746587   3.135   0.874   6.773  2.3905  0.2388 -1.3429
  111MOL   H16846588   3.090   1.000   6.658 -0.3245 -0.2297 -0.2688
  111MOL   H16946589   3.061   0.819   6.637  0.6433  0.0224  0.1337
  111MOL   C17046590   2.711   1.105   7.364  0.8068 -0.5342 -0.4440
  111MOL   C17146591   2.664   1.157   7.505 -0.4201 -0.1204  0.5625
  111MOL   C17246592   2.517   1.204   7.515 -0.1547  0.2561  0.4008
  111MOL   O17346593   2.427   1.131   7.478  0.4402  0.3708  0.0273
  111MOL   O17446594   2.505   1.323   7.569 -0.2851  0.0522  0.0740
  111MOL   C17546595   2.379   1.380   7.581  0.1189 -0.4036  0.4692
  111MOL   C17646596   2.360   1.474   7.449 -0.1319  0.8107 -0.2832
  111MOL   C17746597   2.228   1.542   7.442 -0.4903 -0.3712  0.5049
  111MOL   C17846598   2.203   1.616   7.310 -0.6637  0.2502  0.1788
  111MOL   H17946599   2.803   1.045   7.361 -0.3499 -2.2948 -2.4600
  111MOL   H18046600   2.630   1.039   7.331 -0.8120  0.0914  2.1607
  111MOL   H18146601   2.730   1.240   7.529  1.7621 -1.6333  0.0136
  111MOL   H18246602   2.362   1.447   7.665  1.2000  1.0390 -0.4278
  111MOL   H18346603   2.303   1.303   7.588  0.7807 -1.0624  0.3882
  111MOL   H18446604   2.442   1.545   7.443  0.4670 -0.0324 -2.1591
  111MOL   H18546605   2.351   1.406   7.365 -2.4928 -1.4544  1.6767
  111MOL   H18646606   2.217   1.617   7.520  2.8868 -0.0336  0.7101
  111MOL   H18746607   2.148   1.470   7.460  1.2248 -2.6322 -0.6964
  111MOL   H18846608   2.219   1.544   7.229  0.7420  0.8085 -0.0666
  111MOL   H18946609   2.282   1.690   7.292  0.9242 -1.4143  0.2130
  111MOL   H19046610   2.115   1.680   7.308 -1.1037 -0.3282  1.0555
  111MOL   C19146611   2.679   1.048   7.613  0.3224 -0.3487 -0.1862
  111MOL   C19246612   2.814   1.019   7.680 -0.3926 -0.5576  0.2652
  111MOL   C19346613   2.875   1.149   7.733 -0.4961 -0.3569 -0.2449
  111MOL   O19446614   2.964   1.209   7.674  0.3704 -0.1540 -0.2059
  111MOL   O19546615   2.822   1.185   0.001  0.2705  0.3483 -0.4585
  111MOL   C19646616   2.859   1.312   0.051  0.0424  0.9071 -0.1932
  111MOL   C19746617   2.737   1.368   0.123  0.3857  0.7048  0.2072
  111MOL   C19846618   2.644   1.445   0.029  0.2999  0.1114  0.1975
  111MOL   C19946619   2.699   1.585   7.836  0.5187 -0.1866 -0.0840
  111MOL   H20046620   2.640   0.950   7.585  0.1301 -0.0680 -0.8917
  111MOL   H20146621   2.627   1.077   7.704  1.3029  1.8931 -0.3163
  111MOL   H20246622   2.887   0.987   7.604 -2.2950  2.1556 -2.8603
  111MOL   H20346623   2.902   1.377   7.829  1.7185  0.0841  0.0306
  111MOL   H20446624   2.936   1.293   0.126  0.8959  2.0845 -0.7584
  111MOL   H20546625   2.675   1.293   0.172 -2.2665  1.2963 -2.1008
  111MOL   H20646626   2.768   1.425   0.210 -4.0119  1.5995  1.3301
  111MOL   H20746627   2.552   1.467   0.085 -0.3497  1.1108 -1.2352
  111MOL   H20846628   2.623   1.385   7.794  2.7927 -0.1880 -0.2280
  111MOL   H20946629   2.722   1.661   0.058  1.5195  0.6445 -1.2054
  111MOL   H21046630   2.636   1.627   7.758 -0.3491 -0.1341  0.6400
  111MOL   H21146631   2.788   1.567   7.776  1.5349  1.6248  0.8319
  111MOL   C21246632   2.808   0.905   7.795 -0.4307 -0.0499 -0.2282
  111MOL   C21346633   2.934   0.815   7.788 -0.4802  0.0262 -0.1477
  111MOL   C21446634   3.035   0.858   0.050 -0.4098  0.0574  0.0206
  111MOL   O21546635   3.066   0.782   0.140  0.0733 -0.8404 -0.8158
  111MOL   O21646636   3.079   0.988   0.032 -0.5126 -0.6006 -0.3335
  111MOL   C21746637   3.175   1.035   0.127 -0.0866  0.0149 -0.6990
  111MOL   C21846638   3.234   1.176   0.090 -0.0682 -0.5379  0.6302
  111MOL   C21946639   3.355   1.164   7.846  0.8120 -0.0019  0.7642
  111MOL   C22046640   3.412   1.298   7.803  0.5290  0.5591  0.3545
  111MOL   H22146641   2.721   0.839   7.788  1.0409 -1.9061 -1.4349
  111MOL   H22246642   2.795   0.946   0.042 -0.4383 -0.9787  0.1582
  111MOL   H22346643   2.997   0.827   7.700 -0.6836 -0.1393 -0.3177
  111MOL   H22446644   3.259   0.969   0.143 -0.1359 -0.4055 -2.0876
  111MOL   H22546645   3.128   1.046   0.225 -0.8249  0.6588 -1.1125
  111MOL   H22646646   3.148   1.234   0.058 -0.7204 -0.9976  1.5392
  111MOL   H22746647   3.279   1.220   0.179  1.0224  0.4004 -0.3622
  111MOL   H22846648   3.307   1.116   7.760  1.1600 -0.3894  0.7852
  111MOL   H22946649   3.444   1.105   0.016  0.4005 -1.7728 -1.9305
  111MOL   H23046650   3.505   1.268   7.754 -0.0814  0.1752 -0.5928
  111MOL   H23146651   3.431   1.356   0.040  0.1805  0.4346  0.5090
  111MOL   H23246652   3.332   1.344   7.744  0.3700  0.0630  0.1771
  111MOL   C23346653   2.900   0.659   7.795  0.4932 -0.5305 -0.7492
  111MOL   C23446654   2.846   0.615   7.656  0.6192 -0.7268 -0.1014
  111MOL   C23546655   2.955   0.606   7.551 -0.1643 -0.2934 -0.1192
  111MOL   O23646656   3.068   0.565   7.591  0.0396 -0.1490  0.2610
  111MOL   O23746657   2.909   0.629   7.428  0.7481 -1.1197 -0.2101
  111MOL   C23846658   2.987   0.588   7.313 -0.7556 -0.3699  0.1489
  111MOL   C23946659   3.084   0.699   7.264  0.3644 -0.6198  0.9333
  111MOL   C24046660   3.179   0.641   7.159  0.2634 -0.4654  0.2794
  111MOL   C24146661   3.283   0.752   7.135 -0.2438 -0.1072 -0.4782
  111MOL   H24246662   2.819   0.650   0.015  1.6474  0.3758  0.6498
  111MOL   H24346663   2.983   0.599   7.833  0.6847  0.2408  0.0755
  111MOL   H24446664   2.773   0.690   7.624 -0.2269 -1.0534  1.0129
  111MOL   H24546665   2.926   0.540   7.237  0.6566  0.0589 -1.2917
  111MOL   H24646666   3.042   0.499   7.346 -1.4705 -0.2003  1.8337
  111MOL   H24746667   3.020   0.778   7.225  0.9224 -0.5888  0.0606
  111MOL   H24846668   3.132   0.747   7.350 -1.0095  0.0428  1.3474
  111MOL   H24946669   3.137   0.621   7.061 -1.8553 -0.5077  1.1613
  111MOL   H25046670   3.223   0.548   7.196 -2.5361 -2.0961 -0.3300
  111MOL   H25146671   3.371   0.714   7.188 -1.3572 -0.8141  0.8929
  111MOL   H25246672   3.265   0.852   7.176 -3.0324 -0.6105 -0.3971
  111MOL   H25346673   3.305   0.773   7.030 -2.9462  2.1400 -0.6571
  111MOL   C25446674   2.767   0.481   7.650 -0.8939 -0.5872 -0.8745
  111MOL   C25546675   2.662   0.475   7.540 -0.2204 -0.0303  0.0528
  111MOL   C25646676   2.648   0.334   7.476  0.0711 -0.0491  0.2835
  111MOL   O25746677   2.630   0.317   7.353 -0.1209 -0.0353 -0.5911
  111MOL   O25846678   2.651   0.229   7.567 -0.3174 -0.0167  0.3128
  111MOL   C25946679   2.641   0.098   7.507  0.8863  0.0120 -0.1966
  111MOL   C26046680   2.731   7.842   7.569  0.3109 -0.4657 -0.0538
  111MOL   C26146681   2.701   7.701   7.519 -0.4711 -0.0032 -0.6104
  111MOL   C26246682   2.771   7.592   7.599  0.0718  0.9856 -0.5962
  111MOL   H26346683   2.715   0.463   7.744  0.1261  0.5654 -0.0639
  111MOL   H26446684   2.835   0.398   7.634  0.5076  0.2549  0.5493
  111MOL   H26546685   2.698   0.525   7.449 -2.8789  0.7603 -0.6232
  111MOL   H26646686   2.672   0.097   7.402 -1.5053  0.0448 -0.9246
  111MOL   H26746687   2.540   0.059   7.501  1.2062 -1.1781  1.8958
  111MOL   H26846688   2.836   7.853   7.542  0.8291 -0.6223  1.8319
  111MOL   H26946689   2.726   7.852   7.677 -0.6893 -0.2922 -0.1110
  111MOL   H27046690   2.724   7.701   7.413  1.4206  0.7807 -0.2194
  111MOL   H27146691   2.593   7.689   7.521 -0.7095  1.6690 -2.0196
  111MOL   H27246692   2.741   7.593   7.703  1.4163  1.8990 -0.2076
  111MOL   H27346693   2.876   7.622   7.596  0.3111  0.0653 -2.0041
  111MOL   H27446694   2.764   7.491   7.558  0.3378  0.7465 -0.0607
  111MOL   C27546695   2.533   0.531   7.603 -0.0587  0.4252 -0.1655
  111MOL   C27646696   2.438   0.599   7.504 -0.3490  0.0918 -0.3510
  111MOL   C27746697   2.296   0.605   7.552 -0.4416  0.9493  0.4537
  111MOL   O27846698   2.261   0.603   7.670  0.7394 -0.4478  0.4823
  111MOL   O27946699   2.210   0.618   7.449 -0.3865  0.1207  0.5952
  111MOL   C28046700   2.073   0.601   7.481 -0.4815 -0.2904  0.0209
  111MOL   C28146701   1.998   0.733   7.503 -0.6945  0.4016  0.2309
  111MOL   C28246702   1.846   0.732   7.518 -0.2623 -0.2660 -0.2048
  111MOL   C28346703   1.758   0.759   7.388 -0.2920 -0.3579  0.4380
  111MOL   H28446704   2.558   0.612   7.671 -1.6832  0.4094  0.4662
  111MOL   H28546705   2.481   0.456   7.663 -0.7587  2.2533  1.5460
  111MOL   H28646706   2.434   0.532   7.417 -2.7109 -0.8159  0.4061
  111MOL   H28746707   2.065   0.531   7.564 -0.3347  2.5883  2.5333
  111MOL   H28846708   2.029   0.552   7.394 -1.4432  1.3376 -0.4281
  111MOL   H28946709   2.042   0.768   7.597  0.1504  0.0589 -0.0286
  111MOL   H29046710   2.025   0.799   7.421 -0.7331  0.2446  0.0934
  111MOL   H29146711   1.822   0.807   7.593 -1.7633  0.9483 -1.8454
  111MOL   H29246712   1.806   0.644   7.566 -1.4225  0.1682 -0.3537
  111MOL   H29346713   1.661   0.799   7.416 -0.3641 -0.1173 -0.1485
  111MOL   H29446714   1.739   0.678   7.317 -3.2768  0.8324 -0.2133
  111MOL   H29546715   1.805   0.839   7.330 -0.6831 -0.0886  0.4939
  111MOL   C29646716   2.494   0.731   7.458  0.0345  0.1640  0.3012
  111MOL   C29746717   2.481   0.771   7.312 -0.2108 -0.2638  0.2544
  111MOL   C29846718   2.532   0.655   7.211 -0.1762  0.0348  0.5448
  111MOL   O29946719   2.647   0.652   7.171  0.1836 -0.0754  0.0511
  111MOL   O30046720   2.443   0.564   7.173  0.1282 -0.1273  0.3006
  111MOL   C30146721   2.486   0.454   7.090 -0.4740  0.0186 -0.2141
  111MOL   C30246722   2.367   0.363   7.073  0.4103  0.1134 -0.2889
  111MOL   C30346723   2.339   0.281   7.197 -0.8348  0.2246  0.2894
  111MOL   C30446724   2.197   0.228   7.196 -0.3707 -0.8932 -0.3727
  111MOL   H30546725   2.602   0.727   7.468  0.2266  1.8487 -0.8999
  111MOL   H30646726   2.470   0.815   7.524 -0.2615  0.4733 -0.1968
  111MOL   H30746727   2.545   0.858   7.293 -0.4568  0.0081  0.6626
  111MOL   H30846728   2.556   0.391   7.145 -0.8252  1.1377  1.5801
  111MOL   H30946729   2.529   0.493   6.998  0.3909  0.1089  0.2222
  111MOL   H31046730   2.289   0.432   7.042  0.9733 -0.0336 -2.1095
  111MOL   H31146731   2.376   0.299   6.985  0.5270  0.1610 -0.3115
  111MOL   H31246732   2.356   0.340   7.287  1.1301 -0.3899  0.3627
  111MOL   H31346733   2.416   0.205   7.215  1.8304  3.3868  2.8278
  111MOL   H31446734   2.156   0.197   7.100 -1.7628 -0.6437  0.1421
  111MOL   H31546735   2.119   0.300   7.218 -0.0930 -0.4671 -0.7820
  111MOL   H31646736   2.191   0.147   7.269 -0.4897  0.7754  1.4919
  111MOL   C31746737   2.341   0.827   7.280 -1.0250  1.1398  0.5235
  111MOL   C31846738   2.347   0.947   7.178 -0.2068 -0.3872  0.0245
  111MOL   C31946739   2.393   0.914   7.033 -0.0904  0.0207  0.2006
  111MOL   O32046740   2.499   0.950   6.982 -0.1006  0.9395 -0.1963
  111MOL   O32146741   2.302   0.845   6.973 -0.1347  0.1697 -0.3154
  111MOL   C32246742   2.308   0.804   6.834  0.1504  0.5478  0.5904
  111MOL   C32346743   2.378   0.670   6.835 -0.1439 -0.4336  0.4477
  111MOL   C32446744   2.368   0.611   6.691  0.2030  0.1712  0.3090
  111MOL   C32546745   2.445   0.482   6.674 -0.0637 -0.1561  0.1558
  111MOL   H32646746   2.295   0.872   7.368 -2.5179  1.2501 -0.2937
  111MOL   H32746747   2.282   0.739   7.255  2.5752 -0.9395 -1.0367
  111MOL   H32846748   2.424   1.014   7.218  1.6477 -0.8027 -2.7287
  111MOL   H32946749   2.375   0.872   6.782  2.4993  0.5259  3.4821
  111MOL   H33046750   2.215   0.791   6.778  0.2383  0.6889  0.4124
  111MOL   H33146751   2.482   0.680   6.864 -0.3807 -1.7256  1.8322
  111MOL   H33246752   2.333   0.597   6.903 -2.7488 -1.4956 -2.3044
  111MOL   H33346753   2.416   0.681   6.621  0.5781 -1.8959 -1.5523
  111MOL   H33446754   2.266   0.600   6.655  0.4707 -5.2481  0.8401
  111MOL   H33546755   2.550   0.495   6.702  0.2443  1.8158 -1.7820
  111MOL   H33646756   2.442   0.440   6.574 -0.6860  1.3775 -0.4889
  111MOL   H33746757   2.403   0.413   6.746  1.4840 -0.2614  0.9802
  111MOL   C33846758   2.217   1.024   7.192  0.2659  0.0171 -0.4089
  111MOL   C33946759   2.174   1.135   7.092  0.3543 -0.4435 -0.3593
  111MOL   C34046760   2.024   1.150   7.102  0.1028  0.1588  0.1177
  111MOL   O34146761   1.957   1.127   7.004 -0.0514 -0.2711  0.1258
  111MOL   O34246762   1.978   1.177   7.221  0.3816 -0.0616 -0.0533
  111MOL   C34346763   1.839   1.147   7.242 -0.0197 -0.6748  0.1401
  111MOL   C34446764   1.823   1.140   7.395  0.0488 -0.2686  0.7182
  111MOL   C34546765   1.809   1.280   7.466  0.2382  0.2694  0.0376
  111MOL   C34646766   1.722   1.268   7.587 -0.0930 -0.2186  0.1442
  111MOL   H34746767   2.202   1.054   7.296 -0.6875  1.7665 -1.0286
  111MOL   H34846768   2.142   0.947   7.178  1.1288 -0.7572 -0.8510
  111MOL   H34946769   2.194   1.111   6.988  1.5245  2.5728 -0.8713
  111MOL   H35046770   1.816   1.052   7.193  1.6142 -1.5612  1.0400
  111MOL   H35146771   1.773   1.226   7.206 -1.9581 -1.8136  1.1149
  111MOL   H35246772   1.737   1.081   7.424  0.6543 -0.6494  1.7528
  111MOL   H35346773   1.911   1.095   7.440  1.5185  0.3080 -1.4706
  111MOL   H35446774   1.768   1.359   7.403 -0.5082 -0.2452 -0.1262
  111MOL   H35546775   1.910   1.309   7.494  0.3702  0.0380 -0.1924
  111MOL   H35646776   1.625   1.227   7.559  0.5397 -2.3857  1.0222
  111MOL   H35746777   1.703   1.371   7.618 -1.0184  0.2690 -1.9675
  111MOL   H35846778   1.759   1.202   7.666 -2.9718  0.0820  1.8255
  111MOL   C35946779   2.250   1.266   7.118 -0.5115  0.0255  0.5705
  111MOL   C36046780   2.295   1.343   6.988 -0.0668  0.4502 -0.2097
  111MOL   C36146781   2.180   1.416   6.917  0.8029 -0.5870 -0.0930
  111MOL   O36246782   2.143   1.528   6.956 -0.0272  0.1409 -0.7562
  111MOL   O36346783   2.134   1.361   6.808 -0.3589  0.1198  0.2728
  111MOL   C36446784   2.052   1.438   6.717 -0.3369 -0.8577 -0.7396
  111MOL   C36546785   1.969   1.353   6.620 -0.2637 -0.1551 -0.1676
  111MOL   C36646786   2.027   1.233   6.541 -0.3752  0.2401  0.1871
  111MOL   C36746787   2.152   1.256   6.457 -1.3395  0.2791 -0.2704
  111MOL   H36846788   2.332   1.239   7.183 -0.8041  0.2098  1.0210
  111MOL   H36946789   2.183   1.333   7.174 -1.3044 -0.0818 -0.2309
  111MOL   H37046790   2.339   1.275   6.914 -1.5663 -0.3005 -0.4413
  111MOL   H37146791   2.127   1.497   6.665  1.9775 -2.1936  1.0234
  111MOL   H37246792   1.997   1.513   6.775  0.3623 -1.0016  0.1203
  111MOL   H37346793   1.894   1.299   6.678 -1.4477  0.9946 -0.6111
  111MOL   H37446794   1.905   1.406   6.550 -3.1296 -3.4654 -0.1950
  111MOL   H37546795   1.949   1.202   6.472  0.8869  1.2182 -1.7065
  111MOL   H37646796   2.057   1.152   6.608  1.3625  0.2787 -0.5008
  111MOL   H37746797   2.241   1.281   6.514 -1.7049  0.3544  0.2714
  111MOL   H37846798   2.143   1.332   6.379 -1.0889 -0.2325 -0.7983
  111MOL   H37946799   2.179   1.170   6.395 -1.2267  0.0070  0.1552
  111MOL   C38046800   2.407   1.441   7.026  0.1501  0.1618  0.5078
  111MOL   C38146801   2.485   1.505   6.898  0.4456 -0.0016  0.7938
  111MOL   C38246802   2.428   1.634   6.851 -0.0900  0.0058  0.3342
  111MOL   O38346803   2.377   1.718   6.931 -0.3367  0.6048 -0.1292
  111MOL   O38446804   2.436   1.643   6.713 -0.0282 -0.1687  0.0867
  111MOL   C38546805   2.410   1.772   6.661 -0.3770  0.6175  0.2418
  111MOL   C38646806   2.401   1.768   6.502 -0.2334  0.7898  0.1686
  111MOL   C38746807   2.295   1.859   6.440 -0.1380 -0.7456  0.0812
  111MOL   C38846808   2.278   1.834   6.291 -0.8129 -0.3479 -0.6681
  111MOL   H38946809   2.480   1.406   7.099  3.5270 -1.7940 -3.5388
  111MOL   H39046810   2.365   1.521   7.086  0.6370  2.0238 -1.5415
  111MOL   H39146811   2.466   1.437   6.815  0.9699  1.1755 -0.3061
  111MOL   H39246812   2.481   1.850   6.688  0.4726  0.4208 -1.3221
  111MOL   H39346813   2.309   1.800   6.692 -0.6889 -1.8563  1.5252
  111MOL   H39446814   2.501   1.792   6.466  1.3687 -1.4148  2.8912
  111MOL   H39546815   2.382   1.663   6.478 -0.4063  1.2863 -1.9368
  111MOL   H39646816   2.308   1.968   6.444 -0.2605 -0.8056  3.2175
  111MOL   H39746817   2.198   1.846   6.489  0.7085  0.1641  2.0661
  111MOL   H39846818   2.215   1.911   6.247 -0.5692  1.9385  2.8029
  111MOL   H39946819   2.224   1.741   6.277  1.0233 -1.9754  2.4953
  111MOL   H40046820   2.370   1.839   6.234  0.0935  1.3478  0.8902
  111MOL   C40146821   2.635   1.509   6.919  0.4776 -0.0120 -0.3567
  111MOL   C40246822   2.712   1.523   6.784  0.0550  0.2648 -0.9289
  111MOL   C40346823   2.714   1.398   6.695 -0.4928 -0.2993 -0.3918
  111MOL   O40446824   2.816   1.329   6.682  0.2891  0.3197  0.2813
  111MOL   O40546825   2.596   1.384   6.624  0.8135 -0.3515 -0.8354
  111MOL   C40646826   2.575   1.282   6.536 -0.0377 -0.3378 -0.5713
  111MOL   C40746827   2.492   1.174   6.596 -0.5357  0.5242  0.4086
  111MOL   C40846828   2.451   1.076   6.490 -0.9273 -1.1191  0.3738
  111MOL   C40946829   2.398   0.944   6.534  0.0245 -0.2758  0.3973
  111MOL   H41046830   2.679   1.417   6.957  1.4486 -0.2094 -1.9031
  111MOL   H41146831   2.646   1.594   6.987 -1.0742  0.4084 -0.6140
  111MOL   H41246832   2.816   1.536   6.813 -0.4357  0.7287  0.6828
  111MOL   H41346833   2.672   1.249   6.499  0.3855 -1.4685  1.5102
  111MOL   H41446834   2.525   1.322   6.447  0.6030  2.2619  0.2035
  111MOL   H41546835   2.548   1.120   6.671 -2.1772 -1.9849 -0.1242
  111MOL   H41646836   2.406   1.211   6.652  0.3610  1.9900  0.8595
  111MOL   H41746837   2.546   1.045   6.444 -0.4569  0.6182  0.1345
  111MOL   H41846838   2.395   1.113   6.404 -0.2270 -2.3487 -0.6410
  111MOL   H41946839   2.465   0.898   6.606 -0.1489 -0.0547  0.7019
  111MOL   H42046840   2.373   0.879   6.451 -1.9088  1.0177 -0.0832
  111MOL   H42146841   2.306   0.968   6.588 -0.2884  2.9125 -1.4416
  111MOL   H42246842   2.688   1.617   6.735 -2.3504 -0.3649 -1.0569
  112MOL     C146843   1.210   0.631   6.976 -0.0976 -0.6308 -0.6893
  112MOL     C246844   1.264   0.747   6.890  0.1292  0.6712  0.2813
  112MOL     C346845   1.309   0.696   6.748 -0.1848  0.0095 -0.2523
  112MOL     O446846   1.427   0.669   6.721 -0.6510  0.3282 -0.1514
  112MOL     O546847   1.204   0.678   6.664  0.1073  0.1932 -0.7405
  112MOL     C646848   1.226   0.652   6.528 -0.3383 -0.4338 -0.0035
  112MOL     C746849   1.108   0.673   6.436  0.8352 -0.1685  0.3557
  112MOL     C846850   0.987   0.574   6.447 -0.2864  0.0441  0.5287
  112MOL     C946851   0.872   0.600   6.349 -0.3150  0.4544 -0.0473
  112MOL    H1046852   1.257   0.535   6.954  1.3982 -0.0900  0.0385
  112MOL    H1146853   1.230   0.644   7.083  0.6121  1.0371 -1.0174
  112MOL    H1246854   1.351   0.783   6.945 -0.0573  0.2315  0.8747
  112MOL    H1346855   1.260   0.549   6.513  1.0595 -0.1769  1.2895
  112MOL    H1446856   1.304   0.721   6.495 -1.2541  1.6604  2.1090
  112MOL    H1546857   1.072   0.775   6.447 -1.7138 -1.0552  0.3715
  112MOL    H1646858   1.145   0.673   6.333  1.2208  0.1667  0.4930
  112MOL    H1746859   0.954   0.562   6.550 -2.3737 -0.3921 -0.1830
  112MOL    H1846860   1.026   0.473   6.428  0.2682  0.0425  1.6514
  112MOL    H1946861   0.804   0.515   6.350  0.0861  0.1385  2.2628
  112MOL    H2046862   0.898   0.597   6.243  0.5795 -1.0537  0.2042
  112MOL    H2146863   0.809   0.680   6.386 -0.1880  1.2096 -1.4375
  112MOL    H2246864   1.103   0.619   6.959 -0.4500 -1.0975  1.6186
  112MOL    C2346865   1.162   0.864   6.894  0.0881 -0.8796 -0.1231
  112MOL    C2446866   1.200   1.010   6.843  0.6360  0.1196  0.3814
  112MOL    C2546867   1.088   1.073   6.761  0.7446  0.0566 -0.1373
  112MOL    O2646868   1.037   1.175   6.806 -0.0117 -0.0988 -0.2774
  112MOL    O2746869   1.062   1.005   6.648 -0.1038 -0.2689  0.1141
  112MOL    C2846870   0.951   1.036   6.568 -0.1357  0.0151  0.7445
  112MOL    C2946871   0.844   0.936   6.606  0.1938 -0.2188 -0.0953
  112MOL    C3046872   0.718   0.976   6.526 -0.5748 -0.8532 -0.4329
  112MOL    C3146873   0.588   0.908   6.550  0.1191  0.3272  0.7891
  112MOL    H3246874   1.132   0.876   6.998  0.4854 -1.9870  0.1262
  112MOL    H3346875   1.074   0.816   6.851  0.1358 -3.0882  2.1252
  112MOL    H3446876   1.267   1.004   6.757  1.2972 -2.1393  1.0025
  112MOL    H3546877   0.976   1.018   6.464 -0.6725 -1.7123  0.9102
  112MOL    H3646878   0.913   1.138   6.572 -2.8537 -0.9797  1.1645
  112MOL    H3746879   0.872   0.832   6.590  0.9762  0.0768 -0.6504
  112MOL    H3846880   0.818   0.937   6.712  1.7506  1.1367  0.2856
  112MOL    H3946881   0.740   0.954   6.421 -0.9290 -2.0530 -0.2559
  112MOL    H4046882   0.710   1.085   6.534 -1.0551 -0.9097 -0.1455
  112MOL    H4146883   0.602   0.804   6.521  1.1655  0.2046  1.7220
  112MOL    H4246884   0.499   0.937   6.493 -1.2501 -2.1412  1.5959
  112MOL    H4346885   0.562   0.907   6.656  0.0813  2.2363  0.8108
  112MOL    C4446886   1.263   1.093   6.957 -0.2376  0.4163 -0.3072
  112MOL    C4546887   1.386   1.041   7.022  0.1894  0.1384 -0.2390
  112MOL    C4646888   1.516   1.026   6.942  0.0608  0.2211 -0.0977
  112MOL    O4746889   1.540   1.095   6.841  0.1893  0.0286  0.1972
  112MOL    O4846890   1.592   0.925   6.989  0.4239 -0.5782  0.1730
  112MOL    C4946891   1.697   0.870   6.904  0.6001  0.0931 -0.7350
  112MOL    C5046892   1.812   0.812   6.989 -0.4166 -0.3043 -0.0444
  112MOL    C5146893   1.897   0.710   6.905 -0.4513  0.5000  0.1684
  112MOL    C5246894   2.012   0.663   6.998  0.0053 -0.1869 -0.0613
  112MOL    H5346895   1.196   1.097   7.043  0.1203  2.9088 -0.1112
  112MOL    H5446896   1.272   1.196   6.924 -1.0779  0.3138 -0.8589
  112MOL    H5546897   1.360   0.941   7.057  0.6664  0.3780  0.8424
  112MOL    H5646898   1.739   0.954   6.850 -0.1013  1.4049  0.7024
  112MOL    H5746899   1.663   0.800   6.827 -0.9715 -0.6805  0.6187
  112MOL    H5846900   1.870   0.895   7.029 -2.4819  0.6107  1.1494
  112MOL    H5946901   1.773   0.771   7.082  2.0034  0.5619  1.4012
  112MOL    H6046902   1.943   0.754   6.816 -1.9024 -1.1217 -1.4208
  112MOL    H6146903   1.843   0.618   6.882  0.3425 -0.3209  1.5067
  112MOL    H6246904   2.085   0.600   6.946  0.0654  0.4220 -0.7148
  112MOL    H6346905   1.956   0.608   7.074 -0.7241  1.5574  0.6949
  112MOL    H6446906   2.063   0.744   7.051 -1.2421  0.3066  0.4030
  112MOL    C6546907   1.431   1.123   7.149 -0.0677 -0.1966  0.5417
  112MOL    C6646908   1.326   1.123   7.264 -0.3583 -0.4202  0.1151
  112MOL    C6746909   1.304   0.986   7.318  0.3959  0.1048 -0.3655
  112MOL    O6846910   1.391   0.928   7.385  0.0326  0.0585  0.0839
  112MOL    O6946911   1.184   0.936   7.286 -0.1636 -0.2231 -0.1641
  112MOL    C7046912   1.154   0.809   7.332 -0.1713 -0.9632  0.4276
  112MOL    C7146913   1.014   0.759   7.303  0.0464 -0.2912  0.1739
  112MOL    C7246914   0.915   0.816   7.404 -0.2236 -0.3358  0.2286
  112MOL    C7346915   0.784   0.731   7.397  0.4914  0.1448 -0.1907
  112MOL    H7446916   1.438   1.223   7.105 -2.0824 -0.6098 -0.7950
  112MOL    H7546917   1.530   1.094   7.184  0.4758 -2.0356 -2.3180
  112MOL    H7646918   1.235   1.168   7.225  0.0826  0.1985 -0.2136
  112MOL    H7746919   1.178   0.802   7.438  0.3669  0.2841  0.3977
  112MOL    H7846920   1.218   0.734   7.285 -3.2859 -1.9672 -2.3933
  112MOL    H7946921   0.987   0.800   7.206 -2.7779 -0.5584  0.8076
  112MOL    H8046922   1.020   0.650   7.300 -0.7460 -0.4071  2.2205
  112MOL    H8146923   0.884   0.917   7.377  2.1840  0.1307 -0.8701
  112MOL    H8246924   0.947   0.817   7.508  0.0647 -0.7580  0.1464
  112MOL    H8346925   0.711   0.780   7.461  0.8222  1.5068 -0.8333
  112MOL    H8446926   0.799   0.634   7.445  1.2785 -0.4842 -1.6533
  112MOL    H8546927   0.745   0.708   7.298 -2.8867 -1.3492  1.4115
  112MOL    C8646928   1.381   1.221   7.370  0.1602 -0.0506 -0.4923
  112MOL    C8746929   1.297   1.245   7.505  0.2032  0.6601 -0.4618
  112MOL    C8846930   1.357   1.346   7.604 -0.4678  0.7267  0.3103
  112MOL    O8946931   1.324   1.353   7.720 -0.3288  0.5097 -0.6195
  112MOL    O9046932   1.440   1.437   7.541 -0.6872 -0.0207  0.5118
  112MOL    C9146933   1.483   1.555   7.609 -0.5865 -1.2455  0.0292
  112MOL    C9246934   1.567   1.635   7.509  0.2494  0.5633 -0.3512
  112MOL    C9346935   1.485   1.697   7.397 -0.9851  0.4143  0.4626
  112MOL    C9446936   1.561   1.802   7.312  0.1431  0.3095  0.1360
  112MOL    H9546937   1.418   1.317   7.332  0.1774  0.4335  0.7249
  112MOL    H9646938   1.480   1.187   7.400  0.1719 -0.2651 -0.7768
  112MOL    H9746939   1.289   1.153   7.562 -1.0282  1.5328  0.8285
  112MOL    H9846940   1.534   1.531   7.703 -1.1551 -2.2560  0.0844
  112MOL    H9946941   1.395   1.616   7.631  1.9255  2.4959  0.1619
  112MOL   H10046942   1.632   1.708   7.556  0.5769  0.0525  0.0018
  112MOL   H10146943   1.636   1.566   7.461 -0.3104  0.3834 -0.9098
  112MOL   H10246944   1.391   1.738   7.435 -2.2918  0.1177 -2.3026
  112MOL   H10346945   1.464   1.614   7.329  0.4688 -1.0015  1.7049
  112MOL   H10446946   1.624   1.744   7.245 -1.4344  0.1458 -1.2354
  112MOL   H10546947   1.626   1.870   7.369 -0.6276 -0.4253  1.9062
  112MOL   H10646948   1.481   1.857   7.262  0.1499  0.5593  0.3915
  112MOL   C10746949   1.151   1.299   7.469  0.1669  0.6973  0.5869
  112MOL   C10846950   1.049   1.309   7.591 -0.7985 -0.4511 -0.3590
  112MOL   C10946951   0.910   1.359   7.529  0.0910 -0.2610 -0.6888
  112MOL   O11046952   0.894   1.478   7.497  1.0766  0.1267  0.7333
  112MOL   O11146953   0.825   1.259   7.498 -0.5920 -0.1264 -0.1562
  112MOL   C11246954   0.698   1.286   7.437 -0.6016 -0.3251 -0.4405
  112MOL   C11346955   0.581   1.210   7.501 -0.0484  0.2355 -0.0508
  112MOL   C11446956   0.455   1.235   7.416 -0.2356  0.5214  0.2050
  112MOL   C11546957   0.336   1.148   7.457 -0.1485 -0.1593  0.0939
  112MOL   H11646958   1.112   1.235   7.389 -1.2933  0.9545  1.0776
  112MOL   H11746959   1.176   1.403   7.444 -1.5168  0.2962 -3.1996
  112MOL   H11846960   1.086   1.389   7.654  2.1474 -1.8045 -0.2882
  112MOL   H11946961   0.695   1.245   7.336 -0.6252 -0.1631 -0.5042
  112MOL   H12046962   0.681   1.393   7.427  0.7165  0.0931  1.4416
  112MOL   H12146963   0.598   1.103   7.507 -0.0593  0.2367  0.0118
  112MOL   H12246964   0.566   1.255   7.599  1.0549 -0.4689  0.4527
  112MOL   H12346965   0.479   1.193   7.318  1.4325 -2.5912  1.8832
  112MOL   H12446966   0.434   1.342   7.415 -1.2518  0.3334  1.0596
  112MOL   H12546967   0.255   1.156   7.384  0.8826 -0.5170 -1.1037
  112MOL   H12646968   0.291   1.185   7.549 -0.0657  1.7538 -0.6093
  112MOL   H12746969   0.374   1.046   7.468  0.5855  0.0758 -0.2815
  112MOL   C12846970   1.034   1.171   7.661 -1.2293 -0.5171  0.4019
  112MOL   C12946971   0.936   1.174   7.781  0.4600 -0.0006  0.1311
  112MOL   C13046972   0.872   1.042   7.799  0.1452  0.5795  0.3113
  112MOL   O13146973   0.750   1.025   7.784  0.6901  0.2847  0.2462
  112MOL   O13246974   0.953   0.951   7.846  0.4300  0.2521 -0.1519
  112MOL   C13346975   0.903   0.825   0.054  0.1119  0.7050 -0.3766
  112MOL   C13446976   0.918   0.712   7.802  0.1115  0.3180  0.5059
  112MOL   C13546977   0.908   0.573   0.014  0.0809  1.1745 -0.6811
  112MOL   C13646978   0.905   0.466   7.752 -0.0705 -0.2360  0.1254
  112MOL   H13746979   1.136   1.156   7.698 -1.0394  1.1421  0.5900
  112MOL   H13846980   1.012   1.093   7.588 -1.5573 -0.5972  0.5858
  112MOL   H13946981   0.847   1.229   7.750 -0.3462 -1.1869  0.3449
  112MOL   H14046982   0.803   0.845   0.092 -0.4284 -0.7739 -1.0087
  112MOL   H14146983   0.958   0.792   0.142  1.5084 -0.9251 -1.8438
  112MOL   H14246984   0.847   0.712   7.720  0.4908  1.0326  0.1791
  112MOL   H14346985   1.007   0.730   7.742  0.6625  0.1388  1.2578
  112MOL   H14446986   0.813   0.565   0.067  1.0808 -4.8556  0.4977
  112MOL   H14546987   0.987   0.563   0.088 -0.8187 -0.2092  0.1319
  112MOL   H14646988   0.859   0.371   7.777 -0.7262  0.7206  2.6431
  112MOL   H14746989   1.011   0.449   7.733  0.3464 -0.6318  2.6799
  112MOL   H14846990   0.859   0.494   7.657  0.7598  0.3032 -0.1174
  112MOL   C14946991   0.992   1.235   0.057  0.1824  0.2420 -0.7405
  112MOL   C15046992   0.903   1.349   0.121  0.6160  0.2160 -0.7099
  112MOL   C15146993   0.768   1.297   0.190 -0.6417  0.4388  0.0538
  112MOL   O15246994   0.657   1.319   0.140 -1.3258  0.3901 -0.3051
  112MOL   O15346995   0.786   1.210   0.295  0.6001 -0.0948 -0.6104
  112MOL   C15446996   0.674   1.142   0.358  0.7656 -0.4439 -0.1831
  112MOL   C15546997   0.676   0.990   0.328 -0.5743  0.1528  0.2721
  112MOL   C15646998   0.571   0.919   0.418 -0.6368 -0.1717  0.5100
  112MOL   C15746999   0.570   0.768   0.378 -0.2147  0.2145  0.2754
  112MOL   H15847000   1.086   1.281   0.027  0.4321 -0.2766 -0.7610
  112MOL   H15947001   1.001   1.156   0.131 -1.1944 -0.4137 -1.2669
  112MOL   H16047002   0.863   1.418   0.047 -0.4740  0.2819 -0.0630
  112MOL   H16147003   0.575   1.182   0.337  0.6922 -1.8010 -2.5923
  112MOL   H16247004   0.695   1.146   0.465  0.7809  0.8149 -0.2302
  112MOL   H16347005   0.654   0.981   0.221  1.4985 -0.7104 -0.0940
  112MOL   H16447006   0.775   0.954   0.356 -0.6974  0.8029  1.5758
  112MOL   H16547007   0.473   0.958   0.391  0.1664  1.0871 -0.6817
  112MOL   H16647008   0.597   0.947   0.520  0.9500 -1.2288  0.4262
  112MOL   H16747009   0.533   0.742   0.279  1.4600  0.1366 -0.3430
  112MOL   H16847010   0.510   0.716   0.452 -0.0174  0.8940  0.9114
  112MOL   H16947011   0.674   0.734   0.380 -0.5182 -0.6638  1.5947
  112MOL   C17047012   0.974   1.441   0.226  0.6412  0.0573  0.3994
  112MOL   C17147013   1.065   1.558   0.167 -0.5631  0.3529  0.6239
  112MOL   C17247014   0.992   1.655   0.077  0.0058 -0.1925  0.4018
  112MOL   O17347015   0.912   1.738   0.124  0.8097  0.5964 -0.3381
  112MOL   O17447016   1.042   1.660   7.802 -0.2661  0.4342 -0.5100
  112MOL   C17547017   0.975   1.726   7.695 -0.2062 -0.0219  0.0212
  112MOL   C17647018   1.073   1.744   7.583  0.1716 -1.1626  0.1067
  112MOL   C17747019   0.999   1.814   7.468 -0.1861  0.1252 -0.0562
  112MOL   C17847020   1.082   1.799   7.341 -0.2820  0.9793  0.2537
  112MOL   H17947021   1.022   1.371   0.294  2.3180  1.3546  0.5867
  112MOL   H18047022   0.899   1.500   0.279  1.5909  1.8137 -0.1677
  112MOL   H18147023   1.142   1.512   0.105 -0.8282  0.6012  0.1054
  112MOL   H18247024   0.949   1.826   7.732  1.5981  0.1820  0.7772
  112MOL   H18347025   0.885   1.677   7.660  0.0677  0.5541 -1.5337
  112MOL   H18447026   1.173   1.778   7.607 -0.4102  1.6190 -1.1592
  112MOL   H18547027   1.096   1.642   7.551 -0.0605 -2.3742  3.6293
  112MOL   H18647028   0.985   1.919   7.495  0.8835 -0.2698  2.0935
  112MOL   H18747029   0.902   1.767   7.454 -0.4929  0.1563  1.7956
  112MOL   H18847030   1.065   1.696   7.307 -0.3904  1.0292  0.1549
  112MOL   H18947031   1.190   1.803   7.349  0.0577 -1.4647 -2.0880
  112MOL   H19047032   1.039   1.863   7.264 -0.8302  0.0958 -0.1852
  112MOL   C19147033   1.150   1.626   0.280  0.0678  0.1995 -0.3053
  112MOL   C19247034   1.283   1.688   0.231  0.3792  0.0178  0.0507
  112MOL   C19347035   1.266   1.823   0.166  0.4580 -0.1765 -0.0648
  112MOL   O19447036   1.183   1.904   0.204 -0.3122  0.4324  0.1582
  112MOL   O19547037   1.347   1.855   0.071 -0.4659 -0.0157 -0.9457
  112MOL   C19647038   1.327   1.964   7.841 -0.2505  0.6748 -0.5606
  112MOL   C19747039   1.462   1.995   7.769  0.5271  0.5210  0.3843
  112MOL   C19847040   1.575   2.054   0.010 -0.3197 -0.0320  0.2199
  112MOL   C19947041   1.691   2.113   7.785  0.6931 -0.3178  0.7016
  112MOL   H20047042   1.174   1.546   0.349 -2.9470  1.5327  2.3866
  112MOL   H20147043   1.098   1.692   0.349  1.0184 -0.4360  1.0271
  112MOL   H20247044   1.325   1.626   0.151 -0.6073  0.5875 -0.9187
  112MOL   H20347045   1.300   2.042   0.060 -4.3676 -1.3782  0.2305
  112MOL   H20447046   1.240   1.946   7.778  0.3056  1.3240 -1.5475
  112MOL   H20547047   1.502   1.910   7.713 -0.2601  0.9602 -0.8605
  112MOL   H20647048   1.449   2.067   7.689  1.8682 -0.0393 -0.3463
  112MOL   H20747049   1.613   1.967   0.065  0.3040 -0.1816 -0.4416
  112MOL   H20847050   1.534   2.128   0.079 -0.2093  0.0619  0.1854
  112MOL   H20947051   1.784   2.137   7.837 -0.0532 -0.3322  2.0653
  112MOL   H21047052   1.651   2.208   7.749 -0.2747 -0.5621  1.1052
  112MOL   H21147053   1.707   2.043   7.703 -0.6086 -0.4468  0.5517
  112MOL   C21247054   1.380   1.693   0.349  0.2222 -0.3325 -0.2116
  112MOL   C21347055   1.523   1.750   0.325  0.6707  0.3031 -0.3274
  112MOL   C21447056   1.536   1.898   0.368 -0.0488  0.1515  0.5138
  112MOL   O21547057   1.617   1.969   0.310  0.0832 -0.0391  0.0958
  112MOL   O21647058   1.448   1.934   0.463 -0.6664 -0.3253 -0.1283
  112MOL   C21747059   1.447   2.071   0.505 -0.1803 -0.0980  0.0485
  112MOL   C21847060   1.336   2.146   0.417  0.0659  0.3355 -0.4429
  112MOL   C21947061   1.281   2.280   0.464 -0.8490  0.0291  0.6299
  112MOL   C22047062   1.161   2.329   0.376 -0.2849  0.4574  0.3954
  112MOL   H22147063   1.400   1.590   0.377  2.0758  0.3892  1.3181
  112MOL   H22247064   1.324   1.730   0.435  1.0321  2.3261 -0.7873
  112MOL   H22347065   1.549   1.762   0.220  0.6870 -0.4914 -0.4156
  112MOL   H22447066   1.548   2.111   0.495  0.0651 -1.1894 -2.1119
  112MOL   H22547067   1.438   2.083   0.613  2.0226 -0.9440  0.3588
  112MOL   H22647068   1.368   2.152   0.313  1.9326  0.2818  0.1026
  112MOL   H22747069   1.248   2.082   0.408 -0.2535  0.8473 -1.0101
  112MOL   H22847070   1.364   2.348   0.447  0.6811 -1.9779 -0.0595
  112MOL   H22947071   1.268   2.277   0.572  1.0909  1.3712  0.9305
  112MOL   H23047072   1.113   2.407   0.437  0.2607  0.0983  1.2962
  112MOL   H23147073   1.079   2.261   0.354 -0.3684  1.2470 -1.8138
  112MOL   H23247074   1.203   2.373   0.286 -3.1376  0.7767 -0.8181
  112MOL   C23347075   1.636   1.667   0.387 -0.1913  0.2890 -0.4772
  112MOL   C23447076   1.662   1.532   0.327 -0.0460  0.2956  1.1041
  112MOL   C23547077   1.693   1.541   0.181 -0.0353  0.0595 -0.2120
  112MOL   O23647078   1.603   1.532   0.098 -0.3101  0.0836  0.5071
  112MOL   O23747079   1.826   1.567   0.154  0.2511 -0.0634 -0.6652
  112MOL   C23847080   1.876   1.547   0.025  0.3086 -0.3106 -0.2970
  112MOL   C23947081   1.854   1.669   7.795  0.0605 -0.3197 -0.1664
  112MOL   C24047082   1.913   1.665   7.654 -0.0396 -0.4656 -0.0088
  112MOL   C24147083   1.910   1.800   7.587 -0.2020 -0.2592 -0.1472
  112MOL   H24247084   1.610   1.660   0.492  1.3048  2.0425  0.0386
  112MOL   H24347085   1.723   1.731   0.373  0.2781 -0.3879 -0.6729
  112MOL   H24447086   1.571   1.471   0.333 -1.4890  2.4436  1.7287
  112MOL   H24547087   1.830   1.459   7.833  0.5056  0.2029 -1.5240
  112MOL   H24647088   1.982   1.521   0.032 -0.0228 -1.3201  1.1805
  112MOL   H24747089   1.747   1.686   7.786  0.1743  1.2222  1.3097
  112MOL   H24847090   1.906   1.751   7.844  1.2634 -0.1035 -1.7376
  112MOL   H24947091   1.850   1.589   7.607  0.0413 -0.1638 -0.6080
  112MOL   H25047092   2.015   1.627   7.660 -0.5049 -1.8850 -0.7828
  112MOL   H25147093   1.817   1.826   7.538  0.8171  1.2351 -1.3438
  112MOL   H25247094   1.986   1.787   7.510  0.3185 -1.4565  0.5494
  112MOL   H25347095   1.940   1.879   7.657  0.5272 -0.1651 -0.5604
  112MOL   C25447096   1.776   1.455   0.405  0.1215  0.5185 -0.0568
  112MOL   C25547097   1.730   1.381   0.530 -0.4221 -0.1529 -0.5920
  112MOL   C25647098   1.707   1.475   0.649 -0.1536 -0.9036 -0.1552
  112MOL   O25747099   1.597   1.515   0.674  0.0485  0.0165 -0.1113
  112MOL   O25847100   1.819   1.532   0.688 -0.6593 -0.2233  0.1362
  112MOL   C25947101   1.812   1.651   0.775 -0.2624 -0.0613 -0.0079
  112MOL   C26047102   1.842   1.774   0.682 -0.6224 -0.3569  0.4425
  112MOL   C26147103   1.845   1.900   0.767 -0.5732 -0.3585 -0.0374
  112MOL   C26247104   1.831   2.028   0.672  0.3733  0.8796 -0.0104
  112MOL   H26347105   1.868   1.513   0.405  0.9219 -0.6116 -3.5919
  112MOL   H26447106   1.805   1.374   0.338  0.6121 -0.9116  1.8645
  112MOL   H26547107   1.812   1.319   0.566 -2.0311 -1.4104  1.0304
  112MOL   H26647108   1.885   1.633   0.854 -0.1840 -1.4618 -0.3766
  112MOL   H26747109   1.727   1.666   0.840  0.2165  0.0819  0.5879
  112MOL   H26847110   1.925   1.760   0.613  0.6383 -1.0134  2.0754
  112MOL   H26947111   1.755   1.769   0.616 -0.8254 -1.7255  0.7953
  112MOL   H27047112   1.938   1.900   0.823 -2.3689 -2.7619  3.1060
  112MOL   H27147113   1.773   1.906   0.849  1.0320 -3.3908  1.6714
  112MOL   H27247114   1.859   2.113   0.735 -0.0608  1.5819 -0.7727
  112MOL   H27347115   1.730   2.051   0.641 -0.4848 -1.6687  0.7025
  112MOL   H27447116   1.888   2.018   0.580 -0.0793  2.8730 -0.5129
  112MOL   C27547117   1.638   1.262   0.506  1.3661 -0.6322  0.1437
  112MOL   C27647118   1.577   1.189   0.631  0.7663 -0.1304 -0.2602
  112MOL   C27747119   1.446   1.249   0.673 -0.0597  0.5762  0.8358
  112MOL   O27847120   1.430   1.292   0.784  0.6083 -1.1710 -0.1186
  112MOL   O27947121   1.350   1.242   0.580  0.3001  0.1882 -0.3060
  112MOL   C28047122   1.213   1.285   0.612 -0.1991 -0.3862 -0.6843
  112MOL   C28147123   1.112   1.161   0.627  0.0229  0.0076 -0.0482
  112MOL   C28247124   1.116   1.082   0.763 -0.0947  0.4363 -0.5522
  112MOL   C28347125   1.036   0.946   0.754 -0.0267 -0.5365  0.2745
  112MOL   H28447126   1.705   1.191   0.458  0.5672 -0.5717 -1.0903
  112MOL   H28547127   1.568   1.290   0.427  0.6983 -2.3950  0.0874
  112MOL   H28647128   1.647   1.211   0.712 -2.1301  0.2759  2.1902
  112MOL   H28747129   1.180   1.340   0.524 -2.8438 -2.4283 -1.0326
  112MOL   H28847130   1.213   1.356   0.694 -0.1270 -0.3304 -0.7323
  112MOL   H28947131   1.011   1.192   0.602  0.2883 -0.9320 -2.3774
  112MOL   H29047132   1.127   1.086   0.550  1.5124  0.0148  0.2067
  112MOL   H29147133   1.076   1.146   0.842  3.7327  4.1176 -1.3925
  112MOL   H29247134   1.219   1.059   0.790 -0.5134 -1.9672 -0.9212
  112MOL   H29347135   1.041   0.893   0.849 -3.0346  0.2872  0.9499
  112MOL   H29447136   1.065   0.897   0.661 -0.4892  0.5917 -0.4787
  112MOL   H29547137   0.932   0.978   0.745 -0.3039 -0.6099  2.7378
  112MOL   C29647138   1.570   1.032   0.626  0.2756  0.5965 -0.3944
  112MOL   C29747139   1.641   0.947   0.737 -0.3704  0.9637 -0.2652
  112MOL   C29847140   1.585   0.981   0.873  0.2506  0.0244  0.6837
  112MOL   O29947141   1.480   0.923   0.913 -0.2053  0.0389 -0.2933
  112MOL   O30047142   1.639   1.085   0.931  0.2264 -0.1148 -0.1290
  112MOL   C30147143   1.594   1.125   1.059  0.0806  0.1338  0.3512
  112MOL   C30247144   1.671   1.246   1.113 -0.1925 -0.8050  0.0424
  112MOL   C30347145   1.639   1.373   1.030 -0.2689 -0.3425 -1.0591
  112MOL   C30447146   1.669   1.495   1.105  0.1159  0.4656  0.0528
  112MOL   H30547147   1.584   1.002   0.522 -0.7105 -1.1350 -0.0524
  112MOL   H30647148   1.466   1.004   0.642 -0.3780  3.0149 -0.1918
  112MOL   H30747149   1.746   0.977   0.737 -0.9089  2.9125 -1.3241
  112MOL   H30847150   1.607   1.043   1.130  0.6954  0.7020  0.9016
  112MOL   H30947151   1.487   1.144   1.053 -0.1692 -1.2893  0.0389
  112MOL   H31047152   1.649   1.261   1.218 -0.3316 -1.2878  0.0833
  112MOL   H31147153   1.779   1.231   1.116 -0.1841 -0.5065  1.2046
  112MOL   H31247154   1.531   1.367   1.015 -0.6270  0.5845  0.9472
  112MOL   H31347155   1.698   1.371   0.938  0.3028  2.5758 -0.8087
  112MOL   H31447156   1.772   1.521   1.127 -0.0678 -1.6970  4.0425
  112MOL   H31547157   1.604   1.507   1.192  2.5164  0.9913  1.8413
  112MOL   H31647158   1.640   1.566   1.028 -0.6443 -0.6097 -0.6581
  112MOL   C31747159   1.640   0.790   0.721  0.1992  0.0888 -0.1861
  112MOL   C31847160   1.783   0.744   0.669 -0.0757 -0.0405  0.6766
  112MOL   C31947161   1.890   0.746   0.779  0.0262 -1.0358 -0.2825
  112MOL   O32047162   1.948   0.644   0.808 -0.1986 -0.1471 -0.7248
  112MOL   O32147163   1.913   0.863   0.841 -0.2567  0.4009  0.1186
  112MOL   C32247164   2.027   0.880   0.922 -0.8138 -0.7077  0.3188
  112MOL   C32347165   2.023   1.018   0.985  0.1753 -0.1223 -0.7641
  112MOL   C32447166   2.084   1.133   0.894 -0.6389  0.0746  0.6787
  112MOL   C32547167   1.990   1.167   0.776 -0.5216  0.0779 -0.2494
  112MOL   H32647168   1.561   0.763   0.651 -0.6834  0.3964  0.6969
  112MOL   H32747169   1.607   0.737   0.810  0.6869  0.3248  0.1395
  112MOL   H32847170   1.812   0.822   0.598 -0.2553 -0.4210  0.1882
  112MOL   H32947171   2.118   0.852   0.869 -0.0765  1.6214  0.2974
  112MOL   H33047172   2.018   0.817   1.011 -1.4322  1.0524  1.5348
  112MOL   H33147173   1.916   1.027   1.007 -0.1477 -3.2182 -0.8058
  112MOL   H33247174   2.081   1.015   1.077 -0.6359  1.1352 -0.1940
  112MOL   H33347175   2.184   1.103   0.862  0.1785  1.6316  1.7434
  112MOL   H33447176   2.108   1.223   0.950 -0.7964  1.0554 -0.8125
  112MOL   H33547177   1.889   1.180   0.814 -0.5319  1.8899 -0.8664
  112MOL   H33647178   1.986   1.088   0.701  0.2957 -2.9334  2.7529
  112MOL   H33747179   2.017   1.255   0.717 -0.2054 -0.6573 -1.2173
  112MOL   C33847180   1.768   0.611   0.593 -0.4011  0.2578 -0.2331
  112MOL   C33947181   1.693   0.607   0.456 -0.0179  0.3789  0.4091
  112MOL   C34047182   1.746   0.717   0.364 -0.1805  0.6510 -0.7193
  112MOL   O34147183   1.680   0.819   0.341 -0.1133  0.3117  0.0228
  112MOL   O34247184   1.856   0.688   0.313 -1.0398  0.3132 -0.1221
  112MOL   C34347185   1.918   0.756   0.208 -0.5709 -0.3949  0.8092
  112MOL   C34447186   2.027   0.673   0.137  0.0642 -0.0379 -0.0800
  112MOL   C34547187   1.987   0.522   0.109 -0.1808 -0.1903  0.7659
  112MOL   C34647188   2.101   0.440   0.048 -0.7635  0.0257  0.2233
  112MOL   H34747189   1.731   0.531   0.657 -0.1960  2.6845  3.0598
  112MOL   H34847190   1.869   0.569   0.586 -0.7290 -0.8310  1.2964
  112MOL   H34947191   1.592   0.643   0.473 -0.9453 -2.0281  0.2237
  112MOL   H35047192   1.951   0.857   0.235  1.2290 -1.1826  1.6014
  112MOL   H35147193   1.852   0.773   0.123 -0.8211  0.6552  1.2023
  112MOL   H35247194   2.058   0.732   0.050 -1.3893  0.9653  0.0732
  112MOL   H35347195   2.110   0.666   0.207 -2.4441 -1.2050  2.8392
  112MOL   H35447196   1.905   0.514   0.038  1.0325  1.9316 -0.9494
  112MOL   H35547197   1.961   0.469   0.200 -0.5032 -1.5744 -0.1221
  112MOL   H35647198   2.084   0.333   0.058 -0.1412 -0.2750 -1.6953
  112MOL   H35747199   2.195   0.468   0.096 -0.7558  0.4023 -0.0095
  112MOL   H35847200   2.110   0.460   7.794 -0.4928 -1.2680  0.0021
  112MOL   C35947201   1.678   0.463   0.394 -0.3609  0.1384 -0.1819
  112MOL   C36047202   1.545   0.452   0.320 -0.7383 -0.3042  0.4885
  112MOL   C36147203   1.557   0.460   0.166 -0.2437 -0.1203  0.3800
  112MOL   O36247204   1.525   0.368   0.089  0.2443 -1.0137 -0.7668
  112MOL   O36347205   1.618   0.565   0.116  0.3437  0.7080  0.2952
  112MOL   C36447206   1.645   0.591   7.829  0.1013  0.2820  0.2848
  112MOL   C36547207   1.542   0.689   7.765 -0.0081 -0.1126 -0.3130
  112MOL   C36647208   1.410   0.619   7.751 -0.2239  0.0581  0.2033
  112MOL   C36747209   1.315   0.699   7.664  0.1494  0.0629  0.1720
  112MOL   H36847210   1.680   0.381   0.466 -1.4855  0.7221  0.5234
  112MOL   H36947211   1.765   0.447   0.330  1.6808 -0.2763  2.5574
  112MOL   H37047212   1.494   0.546   0.338  2.0764  1.4533 -0.3250
  112MOL   H37147213   1.652   0.498   7.772 -1.6596  0.2690  0.0611
  112MOL   H37247214   1.741   0.641   7.817 -0.2198  0.9939  0.6500
  112MOL   H37347215   1.535   0.781   7.824  1.9505 -0.2174  0.1241
  112MOL   H37447216   1.580   0.690   7.663  1.2844 -1.1383  0.1405
  112MOL   H37547217   1.382   0.606   0.002  1.7488  0.1477  0.7623
  112MOL   H37647218   1.420   0.520   7.706  1.3963  1.7091 -3.2199
  112MOL   H37747219   1.290   0.793   7.714 -1.7815 -1.5281  2.2797
  112MOL   H37847220   1.231   0.630   7.655 -0.0349  0.4150 -0.8718
  112MOL   H37947221   1.366   0.713   7.569 -1.6880  0.8718 -0.7015
  112MOL   C38047222   1.466   0.333   0.371 -0.5609 -0.1548  0.6157
  112MOL   C38147223   1.408   0.343   0.514  0.2955 -0.1677  0.2427
  112MOL   C38247224   1.318   0.463   0.534 -0.4821 -0.3713  0.9589
  112MOL   O38347225   1.352   0.556   0.605  0.2122  0.1389 -0.5811
  112MOL   O38447226   1.208   0.472   0.452  0.5025  0.4247 -0.4354
  112MOL   C38547227   1.109   0.570   0.474 -0.2000  0.2358  0.2912
  112MOL   C38647228   1.117   0.681   0.362  0.3009 -0.7186  0.6282
  112MOL   C38747229   1.227   0.787   0.386  0.1784 -0.5015  0.3375
  112MOL   C38847230   1.214   0.905   0.287 -0.2738 -0.3378 -0.3320
  112MOL   H38947231   1.527   0.244   0.356  0.2803  0.3596  0.9557
  112MOL   H39047232   1.388   0.302   0.302  0.2241  0.5093 -0.5821
  112MOL   H39147233   1.494   0.342   0.581 -0.5722  0.0542  1.3707
  112MOL   H39247234   1.117   0.626   0.567 -2.8545  2.4695 -0.7329
  112MOL   H39347235   1.009   0.527   0.476  1.2832 -3.4407 -1.0355
  112MOL   H39447236   1.109   0.637   0.263  0.6237  1.6544 -0.4888
  112MOL   H39547237   1.035   0.749   0.382  2.1869  1.5316  0.9152
  112MOL   H39647238   1.321   0.735   0.366 -0.4757 -0.7007 -2.3359
  112MOL   H39747239   1.213   0.823   0.488  0.8728 -2.2866  1.0841
  112MOL   H39847240   1.283   0.988   0.298  1.9586 -2.0823 -0.8377
  112MOL   H39947241   1.116   0.945   0.260  0.3132  1.3242 -0.0340
  112MOL   H40047242   1.253   0.866   0.193 -2.4393 -1.6515 -0.7286
  112MOL   C40147243   1.337   0.207   0.554  0.0714  0.3801  0.2997
  112MOL   C40247244   1.419   0.077   0.546 -0.0955 -0.7144 -0.6072
  112MOL   C40347245   1.536   0.078   0.641 -0.2461  0.2813  0.3289
  112MOL   O40447246   1.644   0.033   0.610  0.0766  0.6785  0.1220
  112MOL   O40547247   1.504   0.142   0.755 -0.1743 -0.4207  0.4481
  112MOL   C40647248   1.608   0.158   0.853  0.2972 -0.0241 -0.4573
  112MOL   C40747249   1.673   0.296   0.855  0.2820  0.2793 -0.1630
  112MOL   C40847250   1.595   0.396   0.945  0.5508  0.0525  0.0477
  112MOL   C40947251   1.463   0.454   0.881 -0.2385 -0.5457  0.5320
  112MOL   H41047252   1.244   0.196   0.498 -1.2130 -0.7709  2.5937
  112MOL   H41147253   1.303   0.233   0.654  0.4413 -0.0090  0.5293
  112MOL   H41247254   1.471   0.052   0.454  0.5369 -0.1265 -0.4103
  112MOL   H41347255   1.689   0.087   0.836 -0.0975 -0.2435 -1.4609
  112MOL   H41447256   1.565   0.128   0.949 -2.6183  0.5759 -1.5156
  112MOL   H41547257   1.772   0.285   0.900 -0.2406 -0.5315  0.8018
  112MOL   H41647258   1.694   0.337   0.756  0.8011  0.2935 -0.0489
  112MOL   H41747259   1.666   0.477   0.965 -0.1833  0.3678  1.4602
  112MOL   H41847260   1.559   0.353   1.038  0.8182  1.5960  0.8927
  112MOL   H41947261   1.402   0.504   0.957 -0.4175  0.9191 -0.5404
  112MOL   H42047262   1.396   0.385   0.829 -3.1323  2.8790 -0.5697
  112MOL   H42147263   1.489   0.538   0.816 -1.7702 -0.7375 -0.3696
  112MOL   H42247264   1.367   7.841   0.582 -0.4267 -0.3039 -0.0485
  113MOL     C147265   1.471   5.891   6.956 -0.2627 -0.6876  0.0307
  113MOL     C247266   1.399   5.951   6.837  0.5457 -0.0843  0.2541
  113MOL     C347267   1.310   5.843   6.772  0.1348  0.1573 -0.2103
  113MOL     O447268   1.316   5.824   6.651  0.1160  0.0218 -0.2001
  113MOL     O547269   1.220   5.784   6.852  0.0459  0.2032 -0.1265
  113MOL     C647270   1.150   5.666   6.805  0.5541 -0.1341  0.6493
  113MOL     C747271   1.010   5.699   6.748 -0.0802 -0.6159  0.4225
  113MOL     C847272   0.911   5.590   6.717  0.5326 -0.3924 -0.3109
  113MOL     C947273   0.784   5.638   6.644  0.3018 -0.7255  0.7073
  113MOL    H1047274   1.481   5.784   6.940  2.1053 -0.2490 -1.7959
  113MOL    H1147275   1.570   5.934   6.973 -0.4499 -0.8066  1.4742
  113MOL    H1247276   1.473   5.978   6.762 -0.6997  1.7177 -0.3620
  113MOL    H1347277   1.149   5.593   6.886 -0.6308 -0.1099  0.6738
  113MOL    H1447278   1.207   5.615   6.727  0.6429  1.7613 -0.5334
  113MOL    H1547279   0.962   5.757   6.827  0.3171  1.1028 -0.5652
  113MOL    H1647280   1.021   5.770   6.666 -0.0138  0.5568  1.4260
  113MOL    H1747281   0.869   5.550   6.810  0.3147 -0.6325 -0.5107
  113MOL    H1847282   0.951   5.511   6.654  0.1291  0.2830 -1.4338
  113MOL    H1947283   0.721   5.694   6.713  0.0352  0.4203 -0.4474
  113MOL    H2047284   0.703   5.572   6.614 -0.8111  0.9811 -0.1061
  113MOL    H2147285   0.815   5.691   6.554 -0.1261 -2.4305 -0.4469
  113MOL    H2247286   1.417   5.894   7.050  1.1975 -0.0832  0.8612
  113MOL    C2347287   1.320   6.079   6.879 -0.2524 -0.3856 -0.4982
  113MOL    C2447288   1.395   6.186   6.958 -0.3351  0.6158 -0.0375
  113MOL    C2547289   1.504   6.245   6.872 -0.1707  0.7394 -0.1092
  113MOL    O2647290   1.481   6.330   6.792 -0.3756 -0.5038  0.1451
  113MOL    O2747291   1.625   6.193   6.897  0.3743 -0.3101 -0.0056
  113MOL    C2847292   1.749   6.243   6.840  0.3911 -0.5690  0.5329
  113MOL    C2947293   1.865   6.150   6.862  0.1602  0.9038 -0.4178
  113MOL    C3047294   1.940   6.169   6.994  0.1768 -1.2406 -0.2153
  113MOL    C3147295   2.067   6.085   7.000 -0.3761  0.3984  0.4540
  113MOL    H3247296   1.243   6.048   6.949 -0.1530 -0.8712 -0.6007
  113MOL    H3347297   1.274   6.130   6.794  0.5795  1.1568 -0.0550
  113MOL    H3447298   1.442   6.128   7.037  1.1404  1.1608 -0.4979
  113MOL    H3547299   1.765   6.339   6.889 -0.1875  0.0534 -0.4932
  113MOL    H3647300   1.718   6.243   6.736  0.9693 -5.2727  0.2376
  113MOL    H3747301   1.823   6.050   6.862  2.2921 -0.0642 -2.4635
  113MOL    H3847302   1.944   6.157   6.786  0.1851  0.9945 -0.3840
  113MOL    H3947303   1.874   6.150   7.079  0.9786 -0.5182  0.5792
  113MOL    H4047304   1.978   6.271   6.998 -0.2804 -1.0832  0.2833
  113MOL    H4147305   2.025   5.985   7.016  0.6142  0.1925  1.7795
  113MOL    H4247306   2.121   6.112   7.091  0.2107 -0.3413  0.3266
  113MOL    H4347307   2.129   6.092   6.910 -0.9273  2.6990  0.2306
  113MOL    C4447308   1.307   6.296   7.029  0.1072  0.4723  0.0379
  113MOL    C4547309   1.247   6.251   7.164  0.6364 -0.6472  0.4777
  113MOL    C4647310   1.357   6.254   7.267 -0.1795  0.3950  0.2247
  113MOL    O4747311   1.382   6.364   7.315  0.7436 -0.7093 -0.2132
  113MOL    O4847312   1.416   6.145   7.293 -0.9540  0.0213  0.1945
  113MOL    C4947313   1.535   6.141   7.371  0.5086 -0.5939 -0.8863
  113MOL    C5047314   1.652   6.098   7.282 -0.8137  0.2877 -0.1171
  113MOL    C5147315   1.781   6.063   7.357  0.0523  0.0516  0.0657
  113MOL    C5247316   1.854   6.178   7.417 -0.1035 -0.2756  0.4693
  113MOL    H5347317   1.226   6.326   6.963 -0.2270  2.3483  1.2643
  113MOL    H5447318   1.372   6.377   7.060 -0.3883  0.6137  0.7239
  113MOL    H5547319   1.219   6.147   7.143  2.4259 -1.2676  1.0746
  113MOL    H5647320   1.510   6.076   7.454 -1.2850  1.4481  0.2191
  113MOL    H5747321   1.552   6.240   7.413  1.2354 -0.5685 -1.2259
  113MOL    H5847322   1.622   6.010   7.226  0.5277  0.6018 -1.3581
  113MOL    H5947323   1.682   6.186   7.225 -0.7681  0.5795  0.3498
  113MOL    H6047324   1.846   6.003   7.293  1.3252  0.2207  1.1797
  113MOL    H6147325   1.751   6.006   7.445 -0.8505 -0.4742 -0.5728
  113MOL    H6247326   1.793   6.247   7.476  0.0796 -0.9542  1.4654
  113MOL    H6347327   1.908   6.238   7.344 -0.3238 -0.9411 -0.2547
  113MOL    H6447328   1.932   6.149   7.487  2.3780  4.7553 -0.0044
  113MOL    C6547329   1.128   6.354   7.194 -0.3967 -0.0740  0.2183
  113MOL    C6647330   1.011   6.278   7.263 -0.2523 -0.0056  0.1633
  113MOL    C6747331   0.948   6.169   7.171 -0.1585  0.1506  0.5422
  113MOL    O6847332   0.959   6.056   7.203  0.1701 -1.0963 -0.4906
  113MOL    O6947333   0.895   6.229   7.062 -0.0596  0.3155  0.9847
  113MOL    C7047334   0.834   6.132   6.966  0.4782  0.1916  0.2077
  113MOL    C7147335   0.681   6.141   6.988 -0.6932  1.1699  0.0912
  113MOL    C7247336   0.616   6.273   6.949 -1.1091  0.6093 -0.1054
  113MOL    C7347337   0.466   6.253   6.918  0.2787  0.6555 -0.4151
  113MOL    H7447338   1.084   6.391   7.101 -1.8193 -3.1473 -0.4087
  113MOL    H7547339   1.158   6.438   7.256 -0.4642 -1.2360  1.8539
  113MOL    H7647340   0.931   6.350   7.281  1.7663  1.7398  2.4965
  113MOL    H7747341   0.868   6.029   6.967 -0.3545 -0.0805  1.4289
  113MOL    H7847342   0.858   6.165   6.865  1.6620 -0.0547  0.3980
  113MOL    H7947343   0.644   6.055   6.933 -0.4551  0.8535  0.4239
  113MOL    H8047344   0.660   6.119   7.092 -2.2709 -1.0663 -0.6677
  113MOL    H8147345   0.663   6.319   6.861  0.3913 -0.7905 -0.0541
  113MOL    H8247346   0.625   6.349   7.026 -3.4767  2.5225 -1.6383
  113MOL    H8347347   0.455   6.179   6.838 -1.1150  1.9623 -1.4514
  113MOL    H8447348   0.409   6.341   6.889 -1.9506 -0.8564 -0.8352
  113MOL    H8547349   0.427   6.212   7.011 -1.2719 -0.6082 -1.5843
  113MOL    C8647350   1.057   6.231   7.405 -0.0390 -0.1332  0.1067
  113MOL    C8747351   1.095   6.346   7.509 -0.4316  0.1280 -0.4996
  113MOL    C8847352   0.967   6.428   7.530 -0.0229  0.1594 -0.7764
  113MOL    O8947353   0.978   6.548   7.510 -0.6690  0.3963  0.3159
  113MOL    O9047354   0.852   6.351   7.562 -0.0765 -0.0574  0.2281
  113MOL    C9147355   0.735   6.413   7.520  0.4439 -0.1446 -0.1833
  113MOL    C9247356   0.624   6.306   7.501  0.1143 -0.0349 -0.4856
  113MOL    C9347357   0.626   6.237   7.358  1.3536  0.1697  0.9911
  113MOL    C9447358   0.495   6.159   7.345 -0.2007  0.6827  0.5009
  113MOL    H9547359   1.140   6.162   7.393 -0.6110 -0.7794 -0.2075
  113MOL    H9647360   0.984   6.168   7.457  0.1114 -0.1625  0.2799
  113MOL    H9747361   1.174   6.411   7.471  0.5550  0.1487  1.5279
  113MOL    H9847362   0.755   6.457   7.422 -0.4403 -0.1593 -0.3764
  113MOL    H9947363   0.695   6.484   7.592  2.5846  0.7595  0.1486
  113MOL   H10047364   0.634   6.227   7.576  0.0183  0.7521  0.3540
  113MOL   H10147365   0.529   6.356   7.515  0.5196  0.5476  0.1791
  113MOL   H10247366   0.716   6.176   7.357  0.2750 -1.4909  2.0804
  113MOL   H10347367   0.625   6.316   7.283  0.1967 -1.6326 -0.9530
  113MOL   H10447368   0.468   6.109   7.438 -0.1200 -1.3612 -0.5459
  113MOL   H10547369   0.500   6.087   7.264 -0.6603  1.0497  0.1372
  113MOL   H10647370   0.417   6.229   7.313 -0.1780  0.5782  0.2159
  113MOL   C10747371   1.138   6.284   7.644 -0.3390  0.3410  0.5317
  113MOL   C10847372   1.194   6.378   7.751 -0.4559 -0.4479 -0.0027
  113MOL   C10947373   1.180   6.307   0.031 -0.0265 -0.2254 -0.1882
  113MOL   O11047374   1.081   6.332   0.104  0.4198 -0.7562  0.0925
  113MOL   O11147375   1.274   6.207   0.038 -0.7840  0.1656  0.1254
  113MOL   C11247376   1.282   6.107   0.138  0.4251 -0.5726  0.1196
  113MOL   C11347377   1.204   5.979   0.101  0.3572  0.6022  0.1814
  113MOL   C11447378   1.053   5.990   0.118 -0.2076  0.3388 -0.3608
  113MOL   C11547379   0.993   5.861   0.066  0.0025  0.8089  0.5225
  113MOL   H11647380   1.205   6.202   7.619  0.3727  1.3051 -0.8371
  113MOL   H11747381   1.049   6.229   7.674  0.2953  0.3099  2.3651
  113MOL   H11847382   1.128   6.464   7.748 -1.7999 -1.4949 -0.5975
  113MOL   H11947383   1.240   6.157   0.225 -0.2136  0.3333 -0.6922
  113MOL   H12047384   1.387   6.078   0.150  0.7268 -0.2942 -1.6612
  113MOL   H12147385   1.228   5.947   7.853 -0.8034 -0.6218  0.2721
  113MOL   H12247386   1.239   5.912   0.179  1.7576 -0.4240 -1.2999
  113MOL   H12347387   1.021   6.077   0.060  1.3625  0.1322 -1.5488
  113MOL   H12447388   1.012   6.019   0.215 -2.1703  2.0445 -1.6355
  113MOL   H12547389   0.899   5.834   0.113  0.0455 -0.7679 -0.2747
  113MOL   H12647390   1.057   5.775   0.087 -0.1584  0.2647 -1.1614
  113MOL   H12747391   0.968   5.875   7.814  1.5645 -1.9687 -0.2704
  113MOL   C12847392   1.339   6.429   7.728  0.6776  0.5226 -0.2662
  113MOL   C12947393   1.353   6.574   7.771  0.1025 -0.1736 -0.2589
  113MOL   C13047394   1.390   6.590   0.067 -0.2111 -0.5326 -0.6113
  113MOL   O13147395   1.464   6.512   0.124  0.3419 -0.1973 -0.5045
  113MOL   O13247396   1.342   6.704   0.118  0.1751  0.5614  0.0457
  113MOL   C13347397   1.407   6.763   0.236 -0.3080  0.0424  0.3286
  113MOL   C13447398   1.382   6.909   0.243  0.1195  0.4788 -0.3369
  113MOL   C13547399   1.469   6.984   0.144 -0.0979  0.1069 -0.3602
  113MOL   C13647400   1.448   7.132   0.161 -0.3866 -0.1242 -0.3828
  113MOL   H13747401   1.349   6.427   7.619 -0.7785  0.6297 -0.4136
  113MOL   H13847402   1.412   6.354   7.757  1.2669 -0.0297 -3.0029
  113MOL   H13947403   1.263   6.630   7.744  1.7735  3.5201  1.5509
  113MOL   H14047404   1.514   6.741   0.239 -0.0661  1.1432  0.0239
  113MOL   H14147405   1.368   6.710   0.322 -2.6904  0.4234 -0.4786
  113MOL   H14247406   1.277   6.937   0.230 -0.1670  0.1390  1.1885
  113MOL   H14347407   1.420   6.945   0.338 -0.7355 -0.5536  0.4023
  113MOL   H14447408   1.450   6.956   0.041  1.8168  0.3821 -0.8082
  113MOL   H14547409   1.574   6.959   0.161 -0.3904 -1.0398 -0.1446
  113MOL   H14647410   1.341   7.155   0.165 -0.1255  0.8925  2.0133
  113MOL   H14747411   1.503   7.181   0.081 -2.8484  1.4639 -1.1422
  113MOL   H14847412   1.488   7.165   0.257 -1.3619 -0.5031  0.1647
  113MOL   C14947413   1.464   6.664   7.690 -0.6730 -0.1259 -0.5550
  113MOL   C15047414   1.614   6.612   7.683 -0.3311  0.1664  0.0303
  113MOL   C15147415   1.634   6.528   7.555  0.4955  0.4012  0.7618
  113MOL   O15247416   1.621   6.405   7.573  0.2933  0.1191  0.2264
  113MOL   O15347417   1.637   6.591   7.448  0.2887 -0.1958 -0.1701
  113MOL   C15447418   1.654   6.515   7.330  0.2230 -0.2255 -0.0130
  113MOL   C15547419   1.785   6.570   7.265  0.4066  0.1477 -0.5297
  113MOL   C15647420   1.808   6.514   7.128  0.0855  0.1335  0.4617
  113MOL   C15747421   1.703   6.564   7.028  0.7289  0.6610  0.3082
  113MOL   H15847422   1.473   6.765   7.730  0.4522 -0.9586  1.3425
  113MOL   H15947423   1.424   6.677   7.589  0.7667 -1.1854 -1.2899
  113MOL   H16047424   1.635   6.561   7.777  0.3385  0.7444  0.1917
  113MOL   H16147425   1.568   6.526   7.264 -0.9523 -0.1464  1.4985
  113MOL   H16247426   1.667   6.410   7.354  0.8686  0.2338  1.7132
  113MOL   H16347427   1.774   6.676   7.245 -2.3071  0.0854  0.4774
  113MOL   H16447428   1.868   6.552   7.333 -1.5554 -3.3331  1.1121
  113MOL   H16547429   1.794   6.406   7.133 -0.5827  0.1401 -0.9713
  113MOL   H16647430   1.908   6.534   7.089 -0.0115 -1.9600 -0.9331
  113MOL   H16747431   1.718   6.522   6.928  3.6949  0.9979  0.5460
  113MOL   H16847432   1.700   6.672   7.014  1.5756  0.8105  1.2582
  113MOL   H16947433   1.602   6.531   7.050  0.3787 -0.6919 -3.0157
  113MOL   C17047434   1.711   6.729   7.683 -0.7670 -0.3776  0.0596
  113MOL   C17147435   1.855   6.685   7.704 -0.0548 -0.1708 -0.2002
  113MOL   C17247436   1.951   6.783   7.629  0.0246 -0.6770 -0.0474
  113MOL   O17347437   1.972   6.900   7.671  0.0339  0.1033  0.8401
  113MOL   O17447438   1.993   6.740   7.515 -0.1313 -0.1656 -0.3090
  113MOL   C17547439   2.071   6.821   7.429  0.2061 -0.1684  0.1634
  113MOL   C17647440   2.161   6.742   7.335 -0.3218 -0.0719  0.6448
  113MOL   C17747441   2.249   6.826   7.252 -0.8572  0.2781  0.0904
  113MOL   C17847442   2.327   6.763   7.135  0.0404 -0.5855  0.5899
  113MOL   H17947443   1.696   6.804   7.761  1.0653 -1.0712  1.1242
  113MOL   H18047444   1.700   6.795   7.597 -1.8626 -0.1949  0.3327
  113MOL   H18147445   1.886   6.593   7.653  1.1531  0.5059 -0.7127
  113MOL   H18247446   2.137   6.894   7.475 -1.0312 -0.7583  2.9547
  113MOL   H18347447   1.995   6.878   7.375 -0.3243 -0.7620  0.2854
  113MOL   H18447448   2.215   6.659   7.380  1.3619 -0.3255 -1.7707
  113MOL   H18547449   2.094   6.688   7.267 -1.9320  2.4165  0.1644
  113MOL   H18647450   2.313   6.885   7.318  1.3310  0.6940 -2.3143
  113MOL   H18747451   2.188   6.899   7.199  0.4662  0.2012 -1.6011
  113MOL   H18847452   2.409   6.694   7.152  0.4991 -0.4180 -0.8643
  113MOL   H18947453   2.379   6.844   7.083  0.5284 -1.3353 -0.0885
  113MOL   H19047454   2.254   6.727   7.064 -0.3634  0.9381  0.2015
  113MOL   C19147455   1.890   6.680   0.007 -0.3761  0.6619  0.4714
  113MOL   C19247456   2.026   6.602   0.032  0.8823 -0.4193 -0.2892
  113MOL   C19347457   2.162   6.680   0.004 -0.0095 -0.6367 -0.1996
  113MOL   O19447458   2.228   6.657   7.758  0.0878 -0.2633  0.4044
  113MOL   O19547459   2.201   6.759   0.109  0.0144  0.3376 -0.0616
  113MOL   C19647460   2.318   6.835   0.096 -0.3636 -0.4876 -0.2337
  113MOL   C19747461   2.284   6.974   0.039 -0.0874 -0.1962 -0.0828
  113MOL   C19847462   2.170   7.051   0.100 -0.0795  0.2958 -0.0979
  113MOL   C19947463   2.166   7.191   0.032 -1.1306 -0.5150  0.3588
  113MOL   H20047464   1.807   6.635   0.061 -2.1886  1.9100 -1.2209
  113MOL   H20147465   1.894   6.777   0.058 -0.4001  0.4443  0.8933
  113MOL   H20247466   2.026   6.518   7.816  2.2809  0.9026 -1.9457
  113MOL   H20347467   2.385   6.779   0.032  1.0749  1.3254 -0.3701
  113MOL   H20447468   2.364   6.852   0.194  1.5933 -0.3926 -1.1494
  113MOL   H20547469   2.371   7.038   0.050  1.2118 -1.7566 -1.0240
  113MOL   H20647470   2.264   6.960   7.786  0.2941  0.7699 -0.2779
  113MOL   H20747471   2.188   7.063   0.207  0.4752  0.9005 -0.2518
  113MOL   H20847472   2.072   7.005   0.099 -0.1241  0.2874  2.0627
  113MOL   H20947473   2.261   7.242   0.021 -1.1959 -0.4855 -0.0838
  113MOL   H21047474   2.091   7.250   0.084 -0.6222  2.2665 -1.9648
  113MOL   H21147475   2.125   7.179   7.785 -0.4256 -0.6888  0.0842
  113MOL   C21247476   2.029   6.531   0.174 -0.2780  0.3034  0.4947
  113MOL   C21347477   2.070   6.377   0.186 -0.6136  0.1884  0.4642
  113MOL   C21447478   2.185   6.331   0.098 -0.0074  0.5783 -0.0147
  113MOL   O21547479   2.176   6.231   0.024 -0.5404 -0.2100 -0.2432
  113MOL   O21647480   2.288   6.409   0.103 -0.3891 -0.6154 -0.3631
  113MOL   C21747481   2.412   6.377   0.042  1.2507 -0.3068 -0.1699
  113MOL   C21847482   2.505   6.495   0.067  0.5123 -0.6155 -0.2168
  113MOL   C21947483   2.647   6.443   0.044 -0.1726 -0.4209 -0.3661
  113MOL   C22047484   2.749   6.551   0.058  0.4971  0.9932  0.1329
  113MOL   H22147485   1.922   6.527   0.194 -0.6214  0.0732 -1.3499
  113MOL   H22247486   2.081   6.588   0.252  1.5255 -2.1319  1.1326
  113MOL   H22347487   1.982   6.321   0.155 -1.7132  2.2230 -0.2066
  113MOL   H22447488   2.395   6.374   7.788 -1.5604 -0.7744  0.2598
  113MOL   H22547489   2.435   6.277   0.077  0.0699  0.5765  3.3772
  113MOL   H22647490   2.489   6.580   0.001  2.0243 -0.4803 -0.4367
  113MOL   H22747491   2.498   6.532   0.170  0.6945 -1.1403 -0.0122
  113MOL   H22847492   2.654   6.397   7.798 -1.3366 -0.6401 -0.3555
  113MOL   H22947493   2.674   6.357   0.105  0.8372  1.7780  2.4057
  113MOL   H23047494   2.716   6.629   7.842  0.3236 -0.5199 -1.5270
  113MOL   H23147495   2.848   6.514   0.030  0.4710  1.0908 -0.0907
  113MOL   H23247496   2.757   6.584   0.162  1.8195 -2.0522  1.0569
  113MOL   C23347497   2.077   6.325   0.326 -0.2117 -0.5735 -0.1196
  113MOL   C23447498   2.118   6.182   0.346  0.3937  0.1499  0.1325
  113MOL   C23547499   2.140   6.166   0.498  0.1582 -0.2926  0.3687
  113MOL   O23647500   2.246   6.124   0.542 -0.2059 -0.4355 -0.9318
  113MOL   O23747501   2.042   6.207   0.573  0.1075  0.0606 -0.5502
  113MOL   C23847502   2.044   6.177   0.716 -0.0262  0.6602  0.2775
  113MOL   C23947503   2.036   6.028   0.752  0.4720  0.1903  0.2200
  113MOL   C24047504   1.912   5.968   0.684  0.6896  0.2561  0.2484
  113MOL   C24147505   1.882   5.821   0.727  0.8457 -0.4218 -0.5004
  113MOL   H24247506   1.980   6.332   0.375  0.4644 -0.2073  1.1687
  113MOL   H24347507   2.140   6.396   0.378  1.2062 -0.5957 -1.7703
  113MOL   H24447508   2.208   6.163   0.287 -0.8747  1.2240 -2.2244
  113MOL   H24547509   1.979   6.233   0.783 -0.5046 -0.7753  1.0386
  113MOL   H24647510   2.141   6.210   0.752  0.6767  0.1272 -1.0837
  113MOL   H24747511   2.125   5.966   0.741 -0.7911 -1.9446  1.6780
  113MOL   H24847512   2.010   6.032   0.857 -1.2432 -0.7494 -0.1548
  113MOL   H24947513   1.917   5.968   0.575 -1.6397  0.8522  0.1304
  113MOL   H25047514   1.828   6.033   0.708  0.5453  0.0659  0.2597
  113MOL   H25147515   1.876   5.816   0.836  1.9336  0.3963 -0.3995
  113MOL   H25247516   1.966   5.762   0.692  1.8518  1.1002 -0.6980
  113MOL   H25347517   1.795   5.783   0.673 -0.8057  2.8472 -0.2536
  113MOL   C25447518   2.007   6.087   0.294 -0.5482 -0.3888 -0.3779
  113MOL   C25547519   2.057   5.959   0.229  0.4864 -0.3151 -0.3450
  113MOL   C25647520   2.154   5.883   0.324 -0.0466  0.5940  0.6454
  113MOL   O25747521   2.118   5.795   0.403 -0.4444  0.0536 -0.0285
  113MOL   O25847522   2.289   5.910   0.295  0.1045 -0.0912  0.0287
  113MOL   C25947523   2.387   5.836   0.363  0.0341  0.2565 -0.5073
  113MOL   C26047524   2.510   5.834   0.276 -0.4799  0.0234  0.0352
  113MOL   C26147525   2.622   5.741   0.338  0.1744 -0.4555  0.1866
  113MOL   C26247526   2.669   5.792   0.474 -0.5418  0.7653 -0.1649
  113MOL   H26347527   1.955   6.133   0.210  0.3073  0.6486 -0.3519
  113MOL   H26447528   1.928   6.059   0.364 -1.5241 -0.0346 -1.3219
  113MOL   H26547529   2.128   5.994   0.154  0.6449  2.4471  1.0310
  113MOL   H26647530   2.350   5.738   0.393  0.6987  0.4499  0.9763
  113MOL   H26747531   2.411   5.898   0.450  1.0339 -0.5897 -0.1737
  113MOL   H26847532   2.481   5.795   0.178 -0.3597 -0.7296  0.2907
  113MOL   H26947533   2.557   5.928   0.251 -1.3998  0.3164 -0.6309
  113MOL   H27047534   2.706   5.737   0.269 -0.2930  1.7834 -0.5571
  113MOL   H27147535   2.588   5.638   0.344 -0.4816 -0.2061  0.8217
  113MOL   H27247536   2.689   5.899   0.467 -2.2535  0.9671 -2.5076
  113MOL   H27347537   2.756   5.741   0.515 -1.5006 -1.2537 -0.5614
  113MOL   H27447538   2.595   5.772   0.552 -0.9668  1.8288 -0.2949
  113MOL   C27547539   1.943   5.875   0.167  0.5835  0.6146  0.0169
  113MOL   C27647540   1.975   5.794   0.037  0.3671 -0.2644  0.2161
  113MOL   C27747541   2.033   5.873   7.766  0.1093  0.3414  0.2993
  113MOL   O27847542   1.959   5.906   7.671  0.1303 -0.6247  0.2491
  113MOL   O27947543   2.165   5.907   7.778  0.5635  0.6447  0.7750
  113MOL   C28047544   2.222   5.992   7.672  0.3643 -1.2655  0.1868
  113MOL   C28147545   2.358   6.024   7.719 -0.2302  0.5429 -0.6590
  113MOL   C28247546   2.454   5.907   7.720  0.2344  0.2136  0.5327
  113MOL   C28347547   2.604   5.949   7.728 -0.3989 -0.2221  0.2382
  113MOL   H28447548   1.857   5.932   0.132  0.1545  2.0641  3.1576
  113MOL   H28547549   1.885   5.812   0.235  2.2096 -0.3615  0.5114
  113MOL   H28647550   1.876   5.768   0.000  0.5595 -0.8406  0.1126
  113MOL   H28747551   2.171   6.087   7.654  2.8812  0.0152 -0.2706
  113MOL   H28847552   2.227   5.934   7.580  3.0044 -0.7763 -0.0071
  113MOL   H28947553   2.403   6.099   7.654  0.1039 -0.4218 -1.5600
  113MOL   H29047554   2.342   6.056   7.822 -0.5599  0.1732 -0.5931
  113MOL   H29147555   2.447   5.849   7.628  0.6943  0.4064  0.3748
  113MOL   H29247556   2.428   5.837   7.800 -1.0564  0.7432  0.5877
  113MOL   H29347557   2.613   6.028   7.802 -0.6332  0.5212 -0.5153
  113MOL   H29447558   2.646   5.975   7.631 -0.3254  1.1193  0.6246
  113MOL   H29547559   2.675   5.869   7.747 -0.1107  0.1568  0.7515
  113MOL   C29647560   2.064   5.672   0.078  0.1656 -1.7170  0.1651
  113MOL   C29747561   1.996   5.561   0.167 -0.1729  0.1794  0.2565
  113MOL   C29847562   1.895   5.467   0.101  0.4887 -0.1461  0.4926
  113MOL   O29947563   1.874   5.355   0.145  0.3685  0.3256 -0.1193
  113MOL   O30047564   1.848   5.515   7.837  0.0076  0.3411  0.2283
  113MOL   C30147565   1.745   5.446   7.768 -0.0226  0.1585 -0.3114
  113MOL   C30247566   1.722   5.516   7.627 -0.0775 -0.5743 -0.1055
  113MOL   C30347567   1.642   5.653   7.629 -0.6365  0.2666  0.8535
  113MOL   C30447568   1.644   5.723   7.494  0.3695  0.3451 -0.4825
  113MOL   H30547569   2.167   5.702   0.099  0.3890 -1.6862 -0.9674
  113MOL   H30647570   2.078   5.620   7.837  0.0744  0.1894 -0.9217
  113MOL   H30747571   1.945   5.610   0.250  1.2147 -1.5155  2.1442
  113MOL   H30847572   1.662   5.439   7.838  0.3790 -1.3439  0.0316
  113MOL   H30947573   1.778   5.344   7.750  0.2119  0.1659  0.0733
  113MOL   H31047574   1.814   5.522   7.569  0.8303  0.3761  1.3990
  113MOL   H31147575   1.664   5.444   7.570  0.1858  1.0042 -2.3963
  113MOL   H31247576   1.690   5.722   7.698  1.0517 -0.6647  0.6200
  113MOL   H31347577   1.540   5.631   7.662 -1.1823 -0.1369 -1.0072
  113MOL   H31447578   1.620   5.650   7.417  0.1183 -0.1335  0.0445
  113MOL   H31547579   1.735   5.777   7.468  1.7889 -2.2162 -0.9322
  113MOL   H31647580   1.556   5.788   7.494 -0.8512 -1.2766 -0.4999
  113MOL   C31747581   2.108   5.480   0.248 -0.6490  0.3037  0.6286
  113MOL   C31847582   2.203   5.386   0.172  0.4033  0.4103  0.9381
  113MOL   C31947583   2.318   5.469   0.114 -0.2109 -0.1103  0.2556
  113MOL   O32047584   2.385   5.551   0.190  0.1472 -0.5894 -0.0589
  113MOL   O32147585   2.337   5.435   7.844 -0.1174 -0.4196 -0.0695
  113MOL   C32247586   2.441   5.495   7.769 -0.0641 -0.6200 -0.3672
  113MOL   C32347587   2.560   5.400   7.747 -0.0701  0.7596 -0.1352
  113MOL   C32447588   2.682   5.470   7.683  0.1473  0.4230 -0.2142
  113MOL   C32547589   2.796   5.372   7.666 -0.4442 -0.0012  0.1920
  113MOL   H32647590   2.061   5.423   0.329 -1.3504 -0.4052 -0.2580
  113MOL   H32747591   2.165   5.562   0.292 -0.4533  1.9142 -2.5312
  113MOL   H32847592   2.159   5.342   0.083 -1.0996 -1.6946  2.6669
  113MOL   H32947593   2.474   5.592   7.804 -1.1716 -0.2458 -0.3663
  113MOL   H33047594   2.400   5.513   7.670 -1.1254  1.3722  0.4071
  113MOL   H33147595   2.577   5.363   7.849 -1.9879 -0.5853 -0.2736
  113MOL   H33247596   2.533   5.318   7.681  1.0812  2.0286 -2.2201
  113MOL   H33347597   2.703   5.562   7.738  0.5850  0.8162 -1.0200
  113MOL   H33447598   2.653   5.496   7.581  0.9090 -1.3387 -0.8985
  113MOL   H33547599   2.859   5.361   7.754 -0.5924  0.0640  0.3070
  113MOL   H33647600   2.870   5.410   7.596 -1.2298  1.3440  0.0781
  113MOL   H33747601   2.767   5.276   7.623  0.3409 -0.4824  0.7328
  113MOL   C33847602   2.257   5.271   0.266  1.0476  0.1699  0.3098
  113MOL   C33947603   2.158   5.160   0.292  0.1321  0.6417  0.3784
  113MOL   C34047604   2.113   5.086   0.162 -0.6541  0.3199 -0.4096
  113MOL   O34147605   2.164   5.114   0.056 -0.3981 -0.7768  0.2460
  113MOL   O34247606   2.012   4.999   0.173 -0.8624 -0.7018 -0.1165
  113MOL   C34347607   1.950   4.949   0.054 -1.2341  0.3553 -0.0972
  113MOL   C34447608   1.845   5.043   7.851 -1.3159 -0.0298 -0.4668
  113MOL   C34547609   1.784   4.996   7.719 -0.4204 -0.3569 -0.5831
  113MOL   C34647610   1.654   5.075   7.687  0.2478 -0.7988 -0.2041
  113MOL   H34747611   2.264   5.325   0.360 -0.9402  2.1409 -0.6297
  113MOL   H34847612   2.357   5.234   0.245 -0.4006 -3.1653 -0.9480
  113MOL   H34947613   2.076   5.218   0.334 -0.1029 -0.9093  2.1449
  113MOL   H35047614   1.893   4.864   0.091 -0.9299  0.0487 -0.3276
  113MOL   H35147615   2.020   4.912   7.832 -0.0288  0.7060  0.8356
  113MOL   H35247616   1.770   5.046   0.077 -0.4102 -0.3898  0.4119
  113MOL   H35347617   1.895   5.139   7.836 -0.0580 -0.8272 -1.5217
  113MOL   H35447618   1.756   4.891   7.715 -0.7185 -0.2223 -2.5983
  113MOL   H35547619   1.856   5.019   7.640  1.9415 -0.7101  1.3920
  113MOL   H35647620   1.662   5.183   7.698  0.0623 -0.8449  0.3908
  113MOL   H35747621   1.580   5.039   7.758  0.3760  0.1915  0.4345
  113MOL   H35847622   1.629   5.052   7.583 -0.8811 -1.8894  0.2915
  113MOL   C35947623   2.213   5.060   0.396 -0.5936 -0.5859 -0.2457
  113MOL   C36047624   2.195   5.117   0.542 -0.2743  0.7425  0.0892
  113MOL   C36147625   2.054   5.088   0.599  0.0410 -0.0147 -0.0326
  113MOL   O36247626   1.982   4.991   0.577 -0.7262 -0.0057 -0.1130
  113MOL   O36347627   2.022   5.180   0.686 -0.1584 -0.3311  0.1108
  113MOL   C36447628   1.885   5.182   0.741 -0.3928 -0.0100 -0.5704
  113MOL   C36547629   1.792   5.265   0.648 -0.0037  0.2669 -0.1033
  113MOL   C36647630   1.851   5.403   0.616 -0.1397  0.1929  0.0952
  113MOL   C36747631   1.768   5.484   0.518 -0.6369 -0.1057  0.1659
  113MOL   H36847632   2.313   5.027   0.368  0.2002  0.1116  1.6491
  113MOL   H36947633   2.152   4.971   0.384 -0.5953 -0.7837  1.1685
  113MOL   H37047634   2.204   5.225   0.535  0.3092  0.8021  1.6042
  113MOL   H37147635   1.883   5.239   0.834  0.2956 -0.1334 -0.4758
  113MOL   H37247636   1.849   5.079   0.747  0.7588 -0.2919  1.9100
  113MOL   H37347637   1.779   5.218   0.551 -0.2298 -1.2645  0.6526
  113MOL   H37447638   1.698   5.270   0.701  0.5562 -1.3075  1.0816
  113MOL   H37547639   1.956   5.396   0.589 -0.2344 -0.7016 -0.0465
  113MOL   H37647640   1.853   5.448   0.715 -0.5880 -1.3595  0.8213
  113MOL   H37747641   1.742   5.420   0.433  0.8949  1.0269 -1.2009
  113MOL   H37847642   1.820   5.576   0.488 -0.9384 -0.4462 -1.4577
  113MOL   H37947643   1.673   5.519   0.559 -0.2672  0.2929  0.6894
  113MOL   C38047644   2.299   5.073   0.642 -0.2658  0.3952  1.1321
  113MOL   C38147645   2.445   5.082   0.600  0.2661 -0.3321  0.4436
  113MOL   C38247646   2.485   5.230   0.577  0.0886  0.6377  0.4250
  113MOL   O38347647   2.444   5.327   0.641 -0.0970  0.0456  0.2238
  113MOL   O38447648   2.566   5.244   0.471 -0.9759 -0.0204  0.9822
  113MOL   C38547649   2.623   5.375   0.430  0.6734  0.6945 -0.8003
  113MOL   C38647650   2.698   5.362   0.296  0.2375 -0.8826  0.0398
  113MOL   C38747651   2.791   5.473   0.246  0.5941 -0.0976  0.6375
  113MOL   C38847652   2.925   5.424   0.207  0.5762  0.3942 -0.3354
  113MOL   H38947653   2.281   4.969   0.668 -1.4470  0.2820 -0.1109
  113MOL   H39047654   2.271   5.119   0.737  0.0504  0.1770  1.3328
  113MOL   H39147655   2.457   5.032   0.504  0.9057  1.2738 -0.3356
  113MOL   H39247656   2.692   5.407   0.508  0.9596 -0.1635 -0.6985
  113MOL   H39347657   2.537   5.441   0.417  1.7509  2.3058  0.1115
  113MOL   H39447658   2.769   5.279   0.296  0.8871 -0.3563 -1.5078
  113MOL   H39547659   2.627   5.327   0.222 -0.9004 -0.1541  0.7655
  113MOL   H39647660   2.808   5.534   0.335 -0.0383  0.6599  0.2476
  113MOL   H39747661   2.736   5.527   0.169 -0.4671 -1.4844  0.4106
  113MOL   H39847662   2.978   5.360   0.276  0.1798 -0.5046 -0.8581
  113MOL   H39947663   2.997   5.503   0.187  1.1281 -0.1353 -0.4167
  113MOL   H40047664   2.923   5.379   0.108 -1.4087 -0.3674  0.0173
  113MOL   C40147665   2.554   4.998   0.676  0.0863 -0.5140 -0.4035
  113MOL   C40247666   2.533   4.968   0.820 -0.4020 -0.2811  0.3774
  113MOL   C40347667   2.650   4.908   0.896  0.0755 -0.4137 -0.7351
  113MOL   O40447668   2.636   4.795   0.942 -0.0530  0.2129 -0.0369
  113MOL   O40547669   2.752   4.996   0.897  0.0518 -0.5905 -0.2020
  113MOL   C40647670   2.881   4.964   0.946  0.2469 -0.4674 -0.2017
  113MOL   C40747671   2.896   5.022   1.085 -0.1074 -0.8627  0.1863
  113MOL   C40847672   2.786   4.966   1.191  0.6575  0.1481  0.2007
  113MOL   C40947673   2.799   5.030   1.332  0.0189 -0.2429  0.2759
  113MOL   H41047674   2.642   5.063   0.679 -0.6869  0.7097 -2.6897
  113MOL   H41147675   2.584   4.910   0.619  1.2140 -0.3771 -0.0468
  113MOL   H41247676   2.477   4.875   0.813 -0.3207 -0.3443  0.5771
  113MOL   H41347677   2.966   5.000   0.887  1.9684 -0.6636  2.0753
  113MOL   H41447678   2.901   4.859   0.968 -1.0601 -0.8538 -0.8584
  113MOL   H41547679   2.993   4.994   1.124 -1.5215 -2.3160  2.8322
  113MOL   H41647680   2.895   5.131   1.084  0.8908 -0.8416  1.1520
  113MOL   H41747681   2.790   4.857   1.181  2.8007  0.2617 -0.2490
  113MOL   H41847682   2.686   4.989   1.153  0.1419  0.7009  1.8511
  113MOL   H41947683   2.896   5.030   1.383 -0.5301 -2.0173  1.3599
  113MOL   H42047684   2.744   4.970   1.405  2.0317 -1.3700  0.9091
  113MOL   H42147685   2.783   5.136   1.313 -1.1266 -0.9032 -2.7616
  113MOL   H42247686   2.482   5.052   0.867 -0.5797 -1.1785  1.8072
  114MOL     C147687   4.449   6.271   5.050 -0.1581 -0.1834  0.4727
  114MOL     C247688   4.587   6.211   5.080  0.1347 -1.8960 -0.5822
  114MOL     C347689   4.607   6.204   5.227  0.5243 -0.3578  0.5172
  114MOL     O447690   4.684   6.276   5.288  0.2992  0.0684  0.5489
  114MOL     O547691   4.517   6.125   5.293  0.3595  0.3101  0.3498
  114MOL     C647692   4.523   6.108   5.430 -0.4335  0.0692 -0.4205
  114MOL     C747693   4.640   6.020   5.462 -1.2256  0.3567  0.1360
  114MOL     C847694   4.637   5.947   5.593 -0.5816  0.4054  0.6793
  114MOL     C947695   4.758   5.853   5.610 -0.8006 -0.2727 -0.1980
  114MOL    H1047696   4.375   6.192   5.063 -0.7294  0.1479 -0.6156
  114MOL    H1147697   4.418   6.351   5.117 -3.1515  1.0430 -2.2347
  114MOL    H1247698   4.668   6.280   5.056  0.4697 -2.1716 -0.2419
  114MOL    H1347699   4.432   6.056   5.460 -0.0956  1.0715  2.4685
  114MOL    H1447700   4.538   6.203   5.481  3.3332 -0.4550 -0.3519
  114MOL    H1547701   4.646   5.949   5.380  1.9029  2.0042 -1.1469
  114MOL    H1647702   4.735   6.074   5.467  0.4589 -2.0825 -3.4581
  114MOL    H1747703   4.548   5.885   5.598  0.0968 -0.8146 -1.6730
  114MOL    H1847704   4.635   6.023   5.671 -0.2409  1.2775 -0.1387
  114MOL    H1947705   4.853   5.906   5.604 -0.2293 -1.2494  0.1132
  114MOL    H2047706   4.768   5.775   5.534  2.0225 -1.1655  1.0134
  114MOL    H2147707   4.753   5.797   5.703 -0.3879 -0.7029 -0.4259
  114MOL    H2247708   4.436   6.322   4.954 -4.0684 -0.6770  0.6566
  114MOL    C2347709   4.604   6.083   4.999 -0.2470 -0.4744 -0.4803
  114MOL    C2447710   4.746   6.029   4.968  0.0203  0.2665  0.2323
  114MOL    C2547711   4.809   6.108   4.849  0.2255 -0.3989  0.5253
  114MOL    O2647712   4.836   6.045   4.744 -0.3056  0.1974 -0.7619
  114MOL    O2747713   4.849   6.233   4.878  0.0608  0.3070 -0.5071
  114MOL    C2847714   4.888   6.321   4.773 -0.5394 -0.0644  0.0490
  114MOL    C2947715   5.040   6.318   4.780  0.6147 -0.0250 -0.2843
  114MOL    C3047716   5.111   6.435   4.707  0.4042  0.1598 -0.0584
  114MOL    C3147717   5.255   6.394   4.683 -0.3774  0.1101 -0.3975
  114MOL    H3247718   4.558   6.102   4.902 -0.8069  2.1744  0.2616
  114MOL    H3347719   4.548   6.001   5.044 -0.0495 -1.3920 -1.8766
  114MOL    H3447720   4.732   5.924   4.945  1.8980 -0.4685  2.3176
  114MOL    H3547721   4.847   6.420   4.791 -0.0856  0.5060 -1.8813
  114MOL    H3647722   4.856   6.293   4.672 -0.3596  0.0950 -0.0523
  114MOL    H3747723   5.073   6.325   4.884  0.9523  2.8269 -0.5307
  114MOL    H3847724   5.069   6.218   4.749 -1.1013 -0.4723 -0.4909
  114MOL    H3947725   5.100   6.524   4.769  0.7717 -0.2792  0.6412
  114MOL    H4047726   5.062   6.465   4.614  1.1774  2.3751  0.2116
  114MOL    H4147727   5.302   6.465   4.616 -1.4934  2.7642  1.5754
  114MOL    H4247728   5.254   6.292   4.644 -0.0301 -0.8369  1.9809
  114MOL    H4347729   5.312   6.402   4.775 -1.3833  0.2681  0.2201
  114MOL    C4447730   4.846   6.020   5.089 -0.4727  0.1245  0.2043
  114MOL    C4547731   4.982   5.959   5.048  0.3312  0.4924  0.2048
  114MOL    C4647732   5.092   5.956   5.152  0.2392  0.0520  0.2370
  114MOL    O4747733   5.206   5.925   5.122  0.5000  0.2958  0.2582
  114MOL    O4847734   5.051   5.988   5.276  0.2189  0.7927  0.4373
  114MOL    C4947735   5.141   5.971   5.385 -0.3258  0.1181  0.0556
  114MOL    C5047736   5.125   5.824   5.432 -0.3490  0.8250  0.2750
  114MOL    C5147737   5.182   5.796   5.573 -0.3909 -0.2714  0.0475
  114MOL    C5247738   5.144   5.656   5.633 -0.7376 -0.3685  0.5699
  114MOL    H5347739   4.806   5.955   5.167  2.3447 -0.2201  1.4323
  114MOL    H5447740   4.854   6.120   5.131  0.1250  1.2213 -2.4097
  114MOL    H5547741   5.028   6.020   4.970 -0.7154  0.6932 -0.2642
  114MOL    H5647742   5.106   6.041   5.461 -1.8065  0.6530 -1.0823
  114MOL    H5747743   5.245   5.998   5.371 -1.1961  3.9585  0.4406
  114MOL    H5847744   5.019   5.803   5.436 -0.9623  3.6019 -0.2416
  114MOL    H5947745   5.175   5.761   5.358  1.5520  2.0192  0.5079
  114MOL    H6047746   5.138   5.868   5.641 -1.0910 -0.0789 -0.6094
  114MOL    H6147747   5.290   5.807   5.583 -0.3411  0.2795 -1.0245
  114MOL    H6247748   5.172   5.579   5.561 -0.7423  1.2899 -1.2346
  114MOL    H6347749   5.036   5.643   5.641 -0.7466 -1.4445 -1.0157
  114MOL    H6447750   5.189   5.635   5.730 -0.2833  2.4125  1.0024
  114MOL    C6547751   4.982   5.816   4.991 -0.2057 -0.4854  0.1699
  114MOL    C6647752   4.955   5.693   5.090 -0.4503  0.6146  0.7604
  114MOL    C6747753   4.821   5.690   5.164 -0.5509 -0.2507  0.1028
  114MOL    O6847754   4.810   5.713   5.282 -0.0297 -0.7305 -0.0398
  114MOL    O6947755   4.723   5.682   5.072  0.3718 -0.6281  0.3014
  114MOL    C7047756   4.584   5.702   5.110 -0.2397 -0.3870  0.6431
  114MOL    C7147757   4.484   5.719   4.997 -0.0796 -0.0959 -0.5476
  114MOL    C7247758   4.340   5.712   5.054 -0.1221  0.1970  0.6418
  114MOL    C7347759   4.290   5.817   5.148 -0.4519  0.5910  0.0553
  114MOL    H7447760   5.066   5.802   4.923  1.0531  1.4302  1.2476
  114MOL    H7547761   4.909   5.789   4.916 -0.8053  2.1050 -0.2370
  114MOL    H7647762   5.022   5.694   5.176 -0.0159  2.0713  0.4195
  114MOL    H7747763   4.583   5.797   5.163 -2.2434  0.3795 -0.6725
  114MOL    H7847764   4.549   5.630   5.185  2.5685 -3.6067 -1.0125
  114MOL    H7947765   4.498   5.805   4.931  2.4600 -0.6061 -0.7232
  114MOL    H8047766   4.496   5.639   4.923  1.1025 -0.3870 -0.0452
  114MOL    H8147767   4.351   5.616   5.104  0.5254  0.5595  1.2051
  114MOL    H8247768   4.267   5.692   4.976 -0.2610 -1.3885  1.1642
  114MOL    H8347769   4.306   5.793   5.253 -3.8095 -0.4870  0.4028
  114MOL    H8447770   4.181   5.825   5.141 -0.5765 -0.4415  0.6215
  114MOL    H8547771   4.325   5.919   5.134 -2.4669  0.9290 -2.8144
  114MOL    C8647772   4.985   5.561   5.005 -0.6603  0.3693  0.2514
  114MOL    C8747773   5.112   5.487   5.066  0.5577 -0.1783 -0.1103
  114MOL    C8847774   5.120   5.343   5.017  0.2304  0.0897 -0.4584
  114MOL    O8947775   5.193   5.301   4.929  0.1481  0.1089 -0.2564
  114MOL    O9047776   5.033   5.261   5.087  0.1748 -0.0585 -0.7728
  114MOL    C9147777   5.025   5.117   5.078 -0.1562  0.0563 -0.3388
  114MOL    C9247778   5.095   5.036   5.191  0.4774 -0.0930  0.3181
  114MOL    C9347779   5.018   4.899   5.196  0.2671  0.4716 -0.4172
  114MOL    C9447780   5.082   4.807   5.302 -0.2329 -0.1876  0.1000
  114MOL    H9547781   5.003   5.581   4.900  1.7211  0.5355  0.6680
  114MOL    H9647782   4.901   5.492   4.992 -1.3319  1.2966 -0.4601
  114MOL    H9747783   5.083   5.486   5.172 -0.0743  1.9049 -0.2412
  114MOL    H9847784   5.066   5.083   4.983  1.3382 -2.6304  1.2070
  114MOL    H9947785   4.921   5.085   5.067 -0.0835 -2.0099  3.7698
  114MOL   H10047786   5.201   5.030   5.165  1.2786  0.3611  3.2188
  114MOL   H10147787   5.085   5.078   5.291 -0.0898 -2.6254  1.3647
  114MOL   H10247788   5.028   4.852   5.098  2.1411 -3.1426  1.4108
  114MOL   H10347789   4.911   4.895   5.220  1.0903 -0.9917  3.2619
  114MOL   H10447790   5.181   4.764   5.289  0.1169  0.4584  0.5840
  114MOL   H10547791   5.021   4.720   5.325  0.9883 -1.1265 -0.1490
  114MOL   H10647792   5.101   4.862   5.394 -0.0517  0.1736 -0.1520
  114MOL   C10747793   5.249   5.551   5.035  0.0861  0.1582 -0.2480
  114MOL   C10847794   5.372   5.484   5.103 -0.3464  0.0008  0.3327
  114MOL   C10947795   5.492   5.557   5.041  0.1351  0.2922  0.0887
  114MOL   O11047796   5.538   5.665   5.086 -0.2575  0.5027  0.4324
  114MOL   O11147797   5.534   5.502   4.918 -0.2518  0.3234 -0.0403
  114MOL   C11247798   5.647   5.550   4.851  0.0321 -0.1156  0.0489
  114MOL   C11347799   5.774   5.470   4.874 -0.0442  0.0782  0.5967
  114MOL   C11447800   5.802   5.446   5.023 -0.4310 -0.6669 -0.5543
  114MOL   C11547801   5.937   5.386   5.054 -0.7755 -0.2985  0.8399
  114MOL   H11647802   5.252   5.653   5.073  0.3445  0.1687 -0.2967
  114MOL   H11747803   5.268   5.551   4.927 -0.6220 -2.3242 -0.4219
  114MOL   H11847804   5.385   5.379   5.080  0.0101 -0.7328  3.6247
  114MOL   H11947805   5.654   5.656   4.873 -2.3973  0.2208 -0.6475
  114MOL   H12047806   5.621   5.537   4.746  0.9764  0.0316 -0.1991
  114MOL   H12147807   5.761   5.377   4.819 -0.6472  1.1074 -1.0402
  114MOL   H12247808   5.855   5.522   4.824 -1.5028 -0.4960 -2.5045
  114MOL   H12347809   5.723   5.382   5.062 -0.5598  0.3745  0.9238
  114MOL   H12447810   5.791   5.536   5.084  0.9120 -2.1943  2.0244
  114MOL   H12547811   5.951   5.292   5.001  0.9729  1.3858 -1.8283
  114MOL   H12647812   5.950   5.370   5.161 -2.2130 -2.2953  0.7588
  114MOL   H12747813   6.019   5.441   5.007 -1.7872 -1.1045 -1.9802
  114MOL   C12847814   5.359   5.507   5.263  0.0064  0.5183  0.8809
  114MOL   C12947815   5.467   5.456   5.362  0.5876  0.3847  0.2450
  114MOL   C13047816   5.455   5.299   5.370  0.1305 -0.3005 -0.0960
  114MOL   O13147817   5.392   5.246   5.458 -0.5131 -0.0549 -0.0937
  114MOL   O13247818   5.524   5.231   5.268 -0.0683 -0.4956 -0.1306
  114MOL   C13347819   5.566   5.092   5.293  0.0668 -1.2084  0.2453
  114MOL   C13447820   5.479   4.989   5.237  0.1076  0.4490  0.3061
  114MOL   C13547821   5.565   4.863   5.219  0.4571 -0.4495  0.4434
  114MOL   C13647822   5.483   4.729   5.210  0.5008 -0.4422  0.5831
  114MOL   H13747823   5.264   5.474   5.303 -1.0717  2.2553 -0.1673
  114MOL   H13847824   5.337   5.612   5.281 -1.1982 -0.0066  2.6135
  114MOL   H13947825   5.426   5.499   5.453  0.1447  0.0724  0.1945
  114MOL   H14047826   5.569   5.067   5.399  2.5442  1.5504  0.9138
  114MOL   H14147827   5.671   5.083   5.263  0.3698  1.6551  0.2594
  114MOL   H14247828   5.389   4.979   5.298 -0.1104  1.7937  0.2359
  114MOL   H14347829   5.447   5.017   5.136 -1.5683 -1.1110  0.3908
  114MOL   H14447830   5.635   4.845   5.301  1.6934  1.3440 -0.1720
  114MOL   H14547831   5.635   4.870   5.135 -0.1602 -1.9648 -0.2130
  114MOL   H14647832   5.429   4.712   5.303 -0.7307  0.5219  0.0472
  114MOL   H14747833   5.552   4.645   5.208  2.4436  1.1620 -2.0343
  114MOL   H14847834   5.413   4.726   5.127  0.5362  1.8173  0.4376
  114MOL   C14947835   5.609   5.510   5.348 -0.0585 -0.1444  0.1341
  114MOL   C15047836   5.709   5.495   5.465  0.3031 -0.3106 -0.2383
  114MOL   C15147837   5.857   5.532   5.417  0.0490  0.6346  0.0799
  114MOL   O15247838   5.952   5.455   5.437 -0.1564  0.0644  0.1576
  114MOL   O15347839   5.869   5.651   5.371  0.2341  0.4128 -0.3046
  114MOL   C15447840   5.991   5.701   5.344  0.1559  0.4415  0.1354
  114MOL   C15547841   6.023   5.714   5.193  0.1580  0.0049 -0.1246
  114MOL   C15647842   5.941   5.831   5.140  0.4795 -0.5127  0.7798
  114MOL   C15747843   5.989   5.876   5.001  0.7552  0.1711  0.3793
  114MOL   H15847844   5.598   5.615   5.320  0.8767 -0.2535 -0.6564
  114MOL   H15947845   5.652   5.468   5.257  0.3585  0.8786 -0.1543
  114MOL   H16047846   5.719   5.389   5.490  0.2120 -0.1733  0.3997
  114MOL   H16147847   6.079   5.658   5.392  1.4393  2.3103 -0.4655
  114MOL   H16247848   6.008   5.801   5.386 -2.2438  1.3408 -0.9596
  114MOL   H16347849   6.128   5.734   5.171 -0.5561  1.2676 -2.5075
  114MOL   H16447850   5.989   5.619   5.152 -0.2378  0.2824 -0.4321
  114MOL   H16547851   5.958   5.918   5.204  1.6270  0.2146 -0.4937
  114MOL   H16647852   5.837   5.798   5.139 -0.4054  2.0876  1.5806
  114MOL   H16747853   5.928   5.962   4.972  0.2632  0.0903  1.1755
  114MOL   H16847854   5.961   5.806   4.923  0.6917 -2.0999  2.3989
  114MOL   H16947855   6.094   5.904   4.996  0.8342 -0.2034 -0.1306
  114MOL   C17047856   5.685   5.586   5.587  0.5778  0.1918  0.1189
  114MOL   C17147857   5.718   5.525   5.721  0.3391 -0.3841  0.3698
  114MOL   C17247858   5.743   5.632   5.825 -0.4015 -0.4854 -0.4088
  114MOL   O17347859   5.659   5.692   5.896  0.4398  0.0290 -0.3002
  114MOL   O17447860   5.875   5.669   5.824  0.2473  0.1415  0.3818
  114MOL   C17547861   5.930   5.751   5.919 -1.0221 -0.6250 -0.1536
  114MOL   C17647862   5.975   5.887   5.857  0.0857  0.6651 -0.7544
  114MOL   C17747863   6.092   5.879   5.763 -0.5614  0.2390 -0.2189
  114MOL   C17847864   6.127   6.017   5.703  0.0391 -0.1459 -0.1872
  114MOL   H17947865   5.577   5.604   5.586  0.6662  0.7521 -2.2371
  114MOL   H18047866   5.730   5.684   5.575  1.3461 -0.2934 -0.9848
  114MOL   H18147867   5.808   5.464   5.712  0.7310  0.2260  0.0832
  114MOL   H18247868   5.994   5.698   5.990  0.2685  2.4532  1.0424
  114MOL   H18347869   5.852   5.792   5.983 -0.9076 -0.3792 -0.1729
  114MOL   H18447870   5.887   5.916   5.800 -0.5040 -1.5252 -0.9826
  114MOL   H18547871   6.000   5.959   5.935  1.1350 -1.2440  0.7047
  114MOL   H18647872   6.066   5.799   5.694  0.7096 -1.7621  1.5346
  114MOL   H18747873   6.177   5.846   5.824  0.3565 -0.3469 -1.7829
  114MOL   H18847874   6.212   6.005   5.636  0.2526 -3.5414  0.5868
  114MOL   H18947875   6.150   6.075   5.791 -0.2447 -1.6536  0.9005
  114MOL   H19047876   6.042   6.060   5.650 -0.2932 -0.9920 -0.3531
  114MOL   C19147877   5.616   5.425   5.769  0.9336  0.2642 -0.2910
  114MOL   C19247878   5.651   5.342   5.894 -0.1917  0.4341  0.0164
  114MOL   C19347879   5.525   5.285   5.964  0.5648 -0.5666 -0.6634
  114MOL   O19447880   5.503   5.165   5.973  0.6673  0.0132 -0.6235
  114MOL   O19547881   5.430   5.374   6.000 -0.4539  0.1693  0.5310
  114MOL   C19647882   5.300   5.327   6.024 -0.7571 -0.3686 -0.0373
  114MOL   C19747883   5.221   5.441   6.100 -0.1587  0.3784  1.0054
  114MOL   C19847884   5.183   5.560   6.009 -0.4131 -0.2019  0.5694
  114MOL   C19947885   5.082   5.653   6.075  0.6590  0.2530 -1.1202
  114MOL   H20047886   5.593   5.353   5.690 -1.3592  2.8662 -2.1380
  114MOL   H20147887   5.515   5.466   5.777  0.5496 -0.8397  0.7024
  114MOL   H20247888   5.679   5.413   5.971  0.3319  1.9007 -1.4974
  114MOL   H20347889   5.309   5.242   6.091 -0.0527 -0.3948 -0.1609
  114MOL   H20447890   5.258   5.290   5.930 -1.2256  1.8550 -0.7537
  114MOL   H20547891   5.132   5.394   6.143  0.4992 -1.3337  0.5271
  114MOL   H20647892   5.288   5.471   6.181  1.5702  0.4654 -0.4310
  114MOL   H20747893   5.145   5.515   5.918 -2.8375 -0.8043  1.8412
  114MOL   H20847894   5.280   5.605   5.985  0.2085 -0.7868  1.8902
  114MOL   H20947895   5.145   5.712   6.142  0.0766  0.3033 -0.6098
  114MOL   H21047896   5.003   5.601   6.130  2.6702 -0.2653  1.3981
  114MOL   H21147897   5.045   5.720   5.998  1.1078  1.3689 -0.3867
  114MOL   C21247898   5.769   5.239   5.876  0.2981  0.3074  0.2879
  114MOL   C21347899   5.744   5.106   5.798  0.6539  0.4930 -0.5264
  114MOL   C21447900   5.829   5.107   5.672  0.6102  0.0615  0.0707
  114MOL   O21547901   5.783   5.092   5.557 -0.4516  0.2514 -0.0653
  114MOL   O21647902   5.957   5.118   5.702 -0.1531  0.1353 -0.2727
  114MOL   C21747903   6.053   5.122   5.593 -0.9243  0.0656  0.3652
  114MOL   C21847904   6.132   4.990   5.572  0.3871 -0.0794  0.0097
  114MOL   C21947905   6.208   4.956   5.701 -0.0995  0.0266  0.3132
  114MOL   C22047906   6.283   4.824   5.684 -0.4316 -0.1940 -0.1043
  114MOL   H22147907   5.813   5.210   5.971 -3.3256 -0.8822  1.7250
  114MOL   H22247908   5.854   5.295   5.838  0.7206  0.1905  1.0494
  114MOL   H22347909   5.641   5.104   5.762  0.1816 -1.5035  0.8247
  114MOL   H22447910   6.133   5.194   5.610  0.1087 -1.3341  1.5256
  114MOL   H22547911   5.997   5.155   5.505 -1.1127  0.4677  0.6325
  114MOL   H22647912   6.073   4.907   5.534  0.0856 -0.5577  1.4805
  114MOL   H22747913   6.215   5.003   5.502  0.9535 -1.4866  0.3944
  114MOL   H22847914   6.137   4.940   5.782 -1.3822  0.0274 -0.7909
  114MOL   H22947915   6.261   5.040   5.745 -0.6445  0.3951  0.2574
  114MOL   H23047916   6.229   4.746   5.630  1.0880 -1.4098  0.1025
  114MOL   H23147917   6.330   4.804   5.780  0.8882  0.3222 -0.6211
  114MOL   H23247918   6.370   4.835   5.620  0.7072  2.5939  1.8449
  114MOL   C23347919   5.778   4.981   5.881  0.0500 -0.1040 -0.5345
  114MOL   C23447920   5.731   4.838   5.829  0.5203 -0.7263  0.1942
  114MOL   C23547921   5.579   4.837   5.804 -0.4931 -0.5951  0.1260
  114MOL   O23647922   5.501   4.794   5.883 -0.0724 -0.2013 -0.2700
  114MOL   O23747923   5.551   4.898   5.686 -0.1952 -0.4681  0.2457
  114MOL   C23847924   5.415   4.887   5.649  0.2842  0.0840  0.2417
  114MOL   C23947925   5.330   5.016   5.692 -0.7879 -0.3085 -0.2724
  114MOL   C24047926   5.180   5.019   5.653  0.0014 -0.1775  0.4807
  114MOL   C24147927   5.097   5.133   5.723 -0.0852 -0.1544 -0.0511
  114MOL   H24247928   5.743   4.994   5.983  3.1847 -1.4056  0.7745
  114MOL   H24347929   5.886   4.977   5.894 -0.1588 -0.6129  1.0956
  114MOL   H24447930   5.737   4.769   5.913 -1.3870 -0.3016  0.6869
  114MOL   H24547931   5.371   4.798   5.692 -0.5016 -1.0130 -2.7535
  114MOL   H24647932   5.410   4.868   5.542 -0.6269 -1.8593  0.6241
  114MOL   H24747933   5.322   5.008   5.800 -0.5670 -3.1222 -0.4216
  114MOL   H24847934   5.382   5.110   5.674 -2.0443  0.3395 -0.5356
  114MOL   H24947935   5.148   4.919   5.682  0.7677 -0.0639  1.7836
  114MOL   H25047936   5.177   5.040   5.546  2.0211  2.1835  0.8321
  114MOL   H25147937   5.132   5.233   5.697  0.9819 -0.3013  0.7725
  114MOL   H25247938   5.099   5.112   5.830  0.8145 -1.9584 -0.3974
  114MOL   H25347939   5.000   5.128   5.674  0.0309  0.8073 -0.3969
  114MOL   C25447940   5.806   4.784   5.707  0.1231 -0.0343 -0.2374
  114MOL   C25547941   5.772   4.640   5.670  0.3653  0.1738  0.4995
  114MOL   C25647942   5.822   4.614   5.527  0.2636 -0.1079  0.0054
  114MOL   O25747943   5.741   4.555   5.452 -0.0866 -0.2145  0.4869
  114MOL   O25847944   5.947   4.657   5.487 -0.6243  0.0419 -0.0981
  114MOL   C25947945   5.994   4.617   5.358 -0.0066  0.5254  0.3598
  114MOL   C26047946   5.939   4.693   5.240  0.0181  0.0289  0.7698
  114MOL   C26147947   5.977   4.843   5.245 -0.2174 -0.0188  0.3309
  114MOL   C26247948   5.962   4.909   5.106 -0.4570  0.4473  0.1085
  114MOL   H26347949   5.914   4.794   5.712  0.0220  2.3946 -1.9089
  114MOL   H26447950   5.778   4.841   5.618 -0.8060 -1.1369 -0.6706
  114MOL   H26547951   5.664   4.625   5.676  0.4978 -0.9846  0.1470
  114MOL   H26647952   5.968   4.511   5.350  1.3407  0.2729 -0.8482
  114MOL   H26747953   6.103   4.623   5.364  0.1127  2.0424 -2.6051
  114MOL   H26847954   5.968   4.634   5.153 -3.0128 -0.5412  0.1029
  114MOL   H26947955   5.831   4.684   5.234  0.1691 -0.8373 -0.8559
  114MOL   H27047956   6.081   4.845   5.276 -0.6870  3.6067  1.8684
  114MOL   H27147957   5.929   4.901   5.323 -2.7069 -0.0750 -1.0979
  114MOL   H27247958   6.043   4.872   5.043 -0.8264 -0.8801  0.4060
  114MOL   H27347959   5.974   5.017   5.101 -1.3999  0.5436 -0.1183
  114MOL   H27447960   5.866   4.881   5.063 -0.8016  0.5125  0.8430
  114MOL   C27547961   5.837   4.543   5.775 -0.2619  0.0678  0.3666
  114MOL   C27647962   5.981   4.549   5.832 -0.1361 -0.4595 -0.7955
  114MOL   C27747963   6.008   4.658   5.944 -0.4199  0.3944  0.2125
  114MOL   O27847964   6.108   4.735   5.946 -0.4009 -0.4110  0.0583
  114MOL   O27947965   5.918   4.643   6.040  0.0713  0.6336 -0.4514
  114MOL   C28047966   5.915   4.716   6.154 -0.0371  0.4192 -0.2424
  114MOL   C28147967   5.932   4.615   6.271  0.6445  0.4172  0.0617
  114MOL   C28247968   5.942   4.681   6.415 -0.1660 -0.5689 -0.0545
  114MOL   C28347969   5.953   4.585   6.534 -0.0282 -0.2345  0.4247
  114MOL   H28447970   5.820   4.445   5.730 -0.9433 -0.6414  2.1356
  114MOL   H28547971   5.771   4.537   5.861 -2.3266 -0.7405 -1.2406
  114MOL   H28647972   6.048   4.591   5.757  0.7034 -0.2658  0.0510
  114MOL   H28747973   5.825   4.775   6.166  1.0222  1.8699  0.7568
  114MOL   H28847974   5.995   4.791   6.157  1.0540 -0.6988 -0.7598
  114MOL   H28947975   5.849   4.544   6.267 -0.3116  1.5910 -1.2030
  114MOL   H29047976   6.023   4.555   6.275 -0.6028 -1.5543 -0.6762
  114MOL   H29147977   5.856   4.746   6.432 -0.8415 -1.4452 -0.1168
  114MOL   H29247978   6.031   4.744   6.424 -1.2951  0.8412  1.5844
  114MOL   H29347979   5.987   4.622   6.630  1.4478 -2.7025  0.8835
  114MOL   H29447980   6.024   4.506   6.512  2.1034  1.8186 -0.2704
  114MOL   H29547981   5.853   4.545   6.553  0.5254 -1.4227  0.8264
  114MOL   C29647982   6.045   4.408   5.871  0.0734  0.4454  0.4373
  114MOL   C29747983   5.975   4.331   5.979  0.5216  0.3171  0.7814
  114MOL   C29847984   5.886   4.215   5.921  0.6552  0.1540  0.0941
  114MOL   O29947985   5.765   4.226   5.919  0.0107 -0.1476  0.3777
  114MOL   O30047986   5.947   4.103   5.881  0.9764  0.6642  0.3158
  114MOL   C30147987   5.873   3.984   5.861 -0.0704  0.2856 -0.0747
  114MOL   C30247988   5.967   3.862   5.859  0.3286  0.4079  0.0228
  114MOL   C30347989   6.025   3.821   5.995 -0.8238  0.1592  0.2324
  114MOL   C30447990   6.091   3.676   6.005  0.1231  0.5548 -0.4418
  114MOL   H30547991   6.150   4.422   5.897  0.0563  0.5689  0.4437
  114MOL   H30647992   6.046   4.353   5.777 -1.1712  1.2988 -0.0844
  114MOL   H30747993   5.917   4.395   6.045 -0.0794 -1.3041  1.8554
  114MOL   H30847994   5.836   4.005   5.760  2.5200  1.2268 -0.8411
  114MOL   H30947995   5.790   3.974   5.931  0.1222 -0.1428  0.0973
  114MOL   H31047996   5.911   3.782   5.810  1.8053 -0.5745 -0.0959
  114MOL   H31147997   6.053   3.881   5.795  0.4105  0.6059  0.1911
  114MOL   H31247998   5.952   3.836   6.075  0.8738  0.9085  1.6596
  114MOL   H31347999   6.101   3.896   6.017 -1.0849  0.9651 -1.5428
  114MOL   H31448000   6.020   3.597   6.030  0.1127  0.9498  0.8188
  114MOL   H31548001   6.174   3.684   6.075 -0.3774 -0.0311  0.2193
  114MOL   H31648002   6.135   3.646   5.910  1.6403  1.3115  0.0068
  114MOL   C31748003   6.080   4.273   6.070 -0.0511 -0.0482 -0.1918
  114MOL   C31848004   6.020   4.190   6.193  1.0518 -0.2068  0.3558
  114MOL   C31948005   6.124   4.134   6.282 -0.0458  0.1146 -0.2446
  114MOL   O32048006   6.160   4.013   6.281  0.0683 -0.3123  0.6626
  114MOL   O32148007   6.187   4.224   6.347  0.1398  0.5253 -0.1997
  114MOL   C32248008   6.292   4.197   6.442  0.2177  0.9448 -0.6795
  114MOL   C32348009   6.385   4.317   6.450 -0.2156 -0.1064  0.5557
  114MOL   C32448010   6.319   4.435   6.531  0.0554  1.0770  0.3456
  114MOL   C32548011   6.410   4.558   6.522  0.1691  0.1577 -0.3312
  114MOL   H32648012   6.139   4.356   6.109  0.2609  0.5641 -1.9148
  114MOL   H32748013   6.160   4.218   6.019  2.3133  1.7737  1.4226
  114MOL   H32848014   5.969   4.102   6.153  0.1188  1.0698 -1.3699
  114MOL   H32948015   6.356   4.119   6.400 -0.2022  0.2358 -0.0050
  114MOL   H33048016   6.258   4.177   6.543  1.7383  2.9494  0.2727
  114MOL   H33148017   6.482   4.289   6.492 -0.0769  0.5209  0.6558
  114MOL   H33248018   6.408   4.353   6.350  1.2040 -2.2552  0.0852
  114MOL   H33348019   6.297   4.402   6.633 -1.2930 -0.4927 -0.4240
  114MOL   H33448020   6.219   4.450   6.491 -0.5119  0.4875  1.5228
  114MOL   H33548021   6.425   4.591   6.419  1.5598  1.4421  0.2646
  114MOL   H33648022   6.508   4.545   6.567 -0.4313 -0.1720  0.9097
  114MOL   H33748023   6.353   4.634   6.575 -1.6710 -2.2112  1.2407
  114MOL   C33848024   5.905   4.264   6.276  1.0665  0.1108 -0.0760
  114MOL   C33948025   5.823   4.173   6.368 -0.3804  0.5045 -0.4058
  114MOL   C34048026   5.742   4.271   6.456  0.3052  0.6817 -0.0717
  114MOL   O34148027   5.668   4.358   6.410  0.1955 -0.4742 -0.1247
  114MOL   O34248028   5.759   4.250   6.590  0.3693 -0.4429 -0.2512
  114MOL   C34348029   5.678   4.324   6.686  0.0684 -0.0793  0.1477
  114MOL   C34448030   5.728   4.322   6.831  0.6073  0.3583 -0.2697
  114MOL   C34548031   5.849   4.407   6.848 -0.6568 -0.0906  0.5194
  114MOL   C34648032   5.897   4.430   6.994 -0.0482  0.3447 -0.2943
  114MOL   H34748033   5.828   4.309   6.213 -0.6084 -0.5994  1.4427
  114MOL   H34848034   5.936   4.356   6.326 -0.2153 -0.2921  1.5068
  114MOL   H34948035   5.882   4.118   6.441 -3.0706 -1.8442  0.0514
  114MOL   H35048036   5.576   4.286   6.677  0.0559 -0.0845  0.3078
  114MOL   H35148037   5.680   4.430   6.659  0.2711 -0.2330 -0.4645
  114MOL   H35248038   5.652   4.353   6.904 -1.3433 -1.4245 -1.5032
  114MOL   H35348039   5.749   4.220   6.864  1.6971  0.4619 -0.6171
  114MOL   H35448040   5.837   4.503   6.797  2.3284 -0.5400 -1.1523
  114MOL   H35548041   5.924   4.362   6.783 -1.1597 -0.3636  0.1256
  114MOL   H35648042   5.961   4.518   7.003  3.4399 -2.0883 -0.0365
  114MOL   H35748043   5.962   4.350   7.030  0.9944  1.9295  1.3892
  114MOL   H35848044   5.815   4.450   7.062  1.3620 -0.8150  1.7935
  114MOL   C35948045   5.726   4.081   6.289 -0.6760  0.0086 -0.1200
  114MOL   C36048046   5.632   3.990   6.380  0.6617 -0.0025  0.0674
  114MOL   C36148047   5.485   4.035   6.379  0.9776  0.4679  0.7005
  114MOL   O36248048   5.451   4.130   6.443 -0.4436 -0.1360 -0.4292
  114MOL   O36348049   5.397   3.961   6.296 -0.5804 -0.0850 -0.4148
  114MOL   C36448050   5.259   3.976   6.322 -0.0843 -0.4714  0.9201
  114MOL   C36548051   5.192   3.835   6.310 -0.1477 -0.3904 -0.4954
  114MOL   C36648052   5.248   3.736   6.420  0.4630 -0.3757 -0.6989
  114MOL   C36748053   5.199   3.588   6.393 -0.3727  0.0965 -0.0490
  114MOL   H36848054   5.770   4.002   6.229  0.3372  0.5352 -0.0800
  114MOL   H36948055   5.668   4.142   6.220 -2.8412  0.3292  1.9399
  114MOL   H37048056   5.679   4.005   6.478 -0.6696 -0.8086  0.8446
  114MOL   H37148057   5.215   4.026   6.236 -0.6049  0.0466  1.4876
  114MOL   H37248058   5.238   4.033   6.412 -1.0772 -0.0542  0.4326
  114MOL   H37348059   5.083   3.839   6.312 -0.1671 -1.4342  0.8729
  114MOL   H37448060   5.223   3.794   6.214 -1.7264 -0.9213 -0.7940
  114MOL   H37548061   5.229   3.778   6.519 -0.5278  0.7338 -1.3674
  114MOL   H37648062   5.356   3.746   6.410  0.9583 -4.0571 -0.0114
  114MOL   H37748063   5.225   3.526   6.479 -1.5066  0.3875  0.5031
  114MOL   H37848064   5.234   3.527   6.309  1.7065 -0.6413  1.2981
  114MOL   H37948065   5.091   3.584   6.395 -0.3492 -0.3020  0.8691
  114MOL   C38048066   5.659   3.841   6.358 -1.0289  0.0537  0.4786
  114MOL   C38148067   5.808   3.780   6.389  0.2119 -0.3200 -0.6631
  114MOL   C38248068   5.835   3.771   6.542 -0.4569  0.0696  0.2219
  114MOL   O38348069   5.789   3.684   6.614 -0.4006 -0.4181  0.2089
  114MOL   O38448070   5.917   3.862   6.586  0.0023  0.1655  0.1146
  114MOL   C38548071   5.973   3.853   6.715  1.0269 -0.8208 -0.0114
  114MOL   C38648072   6.093   3.953   6.722 -0.4420 -0.5449  0.3338
  114MOL   C38748073   6.070   4.098   6.722  0.1664 -0.3929 -0.7829
  114MOL   C38848074   6.189   4.173   6.803 -0.3321  0.4374 -0.5836
  114MOL   H38948075   5.636   3.815   6.255  1.1867 -0.5350  0.1131
  114MOL   H39048076   5.596   3.788   6.431 -0.0794 -1.8664 -0.0658
  114MOL   H39148077   5.889   3.826   6.332 -0.8475  0.3693 -1.6493
  114MOL   H39248078   6.012   3.752   6.721 -0.5384 -1.5014 -0.9755
  114MOL   H39348079   5.908   3.862   6.802 -0.9649 -2.4138 -1.2794
  114MOL   H39448080   6.137   3.924   6.818 -0.0340 -2.6568 -0.4623
  114MOL   H39548081   6.164   3.924   6.644 -2.0944  1.0812 -1.7992
  114MOL   H39648082   5.972   4.117   6.765  0.2984  1.5701 -1.3243
  114MOL   H39748083   6.063   4.146   6.625 -2.7769  0.7622 -0.0494
  114MOL   H39848084   6.281   4.170   6.745 -0.6791  0.3578 -1.1323
  114MOL   H39948085   6.202   4.134   6.904 -2.2757  2.8143  0.6204
  114MOL   H40048086   6.172   4.280   6.808 -0.6333  0.3752 -0.2320
  114MOL   C40148087   5.811   3.637   6.337 -0.1325 -0.1660 -0.5142
  114MOL   C40248088   5.935   3.555   6.368  0.9460  0.1724 -0.1652
  114MOL   C40348089   5.951   3.423   6.299  0.2247 -0.8783 -0.8467
  114MOL   O40448090   5.858   3.376   6.231 -0.6126  0.2049  0.0913
  114MOL   O40548091   6.076   3.386   6.307 -0.2013  0.1536  0.2081
  114MOL   C40648092   6.112   3.263   6.236 -0.3026  0.1122 -0.4296
  114MOL   C40748093   6.266   3.250   6.215 -0.3225 -0.0604 -0.0037
  114MOL   C40848094   6.306   3.352   6.106 -0.3120 -0.4597  0.6369
  114MOL   C40948095   6.265   3.314   5.962 -0.0213 -0.1458 -1.1673
  114MOL   H41048096   5.801   3.643   6.229  0.2157 -1.9345 -0.6668
  114MOL   H41148097   5.716   3.590   6.364 -0.8880  0.5339 -1.9012
  114MOL   H41248098   5.952   3.534   6.473  0.4458  1.7693  0.2357
  114MOL   H41348099   6.059   3.257   6.141  0.9567 -1.1539 -1.0619
  114MOL   H41448100   6.078   3.180   6.298 -1.5652  0.8269 -0.1512
  114MOL   H41548101   6.328   3.261   6.305  0.8002  0.9528 -0.8823
  114MOL   H41648102   6.292   3.151   6.179  0.2235  0.0658  0.0217
  114MOL   H41748103   6.415   3.351   6.111 -0.1380  2.1726 -1.3639
  114MOL   H41848104   6.278   3.455   6.129 -0.8664 -0.4506 -0.0545
  114MOL   H41948105   6.330   3.238   5.919  0.0801  0.7244 -2.6075
  114MOL   H42048106   6.275   3.410   5.910  0.9319 -0.2123 -1.1022
  114MOL   H42148107   6.160   3.288   5.947 -0.1556 -0.1928 -0.1772
  114MOL   H42248108   6.025   3.608   6.337  0.4510  1.4127  0.5076
  115MOL     C148109   7.722   4.366   3.350 -0.0801  0.2852  0.1136
  115MOL     C248110   0.004   4.284   3.348  0.1066 -0.5453 -0.3711
  115MOL     C348111   7.831   4.139   3.389  0.1578 -0.2067  0.1355
  115MOL     O448112   7.713   4.102   3.395 -0.0479  0.0702 -0.1998
  115MOL     O548113   0.089   4.071   3.429  0.4343  0.1792  0.6977
  115MOL     C648114   0.080   3.937   3.473 -0.2120  0.4786 -0.7247
  115MOL     C748115   0.075   3.837   3.354 -1.0873  0.7401  0.1174
  115MOL     C848116   0.206   3.816   3.290  0.8519  0.2623  0.1413
  115MOL     C948117   0.218   3.697   3.194  0.0208  0.6407  0.9775
  115MOL    H1048118   7.753   4.469   3.369  1.7954 -0.3353  0.4753
  115MOL    H1148119   7.656   4.348   3.264  0.7752  1.7714 -0.8795
  115MOL    H1248120   0.070   4.325   3.424  1.3183 -0.9291 -1.2081
  115MOL    H1348121   7.850   3.911   3.539  0.2406 -1.7386 -0.9981
  115MOL    H1448122   0.176   3.925   3.522 -0.1962  0.1977 -0.8256
  115MOL    H1548123   0.048   3.742   3.401  2.8324 -0.3676  0.3781
  115MOL    H1648124   7.843   3.859   3.289 -1.9196 -0.4306  0.7931
  115MOL    H1748125   0.283   3.815   3.368  0.9707 -1.2812  0.0133
  115MOL    H1848126   0.223   3.911   3.239 -2.5933  0.6726 -0.3163
  115MOL    H1948127   0.197   3.596   3.230 -3.3584  0.1229 -2.1257
  115MOL    H2048128   0.326   3.696   3.178 -0.0847  0.2460  0.2600
  115MOL    H2148129   0.169   3.710   3.097  0.6369  0.5007  0.6439
  115MOL    H2248130   7.659   4.347   3.437  0.9806 -0.8230  0.6338
  115MOL    C2348131   0.080   4.299   3.207  0.2557  0.5329 -0.1561
  115MOL    C2448132   0.224   4.281   3.214 -0.1968  0.5492  0.4779
  115MOL    C2548133   0.281   4.227   3.087  0.4560 -0.3333  0.7129
  115MOL    O2648134   0.323   4.303   3.001  0.4988 -0.2946 -0.0397
  115MOL    O2748135   0.283   4.094   3.074  0.3654  0.3561 -0.1844
  115MOL    C2848136   0.332   4.022   2.967  0.0830  0.1164  0.3751
  115MOL    C2948137   0.484   4.040   2.953  0.1297 -1.0457  0.6155
  115MOL    C3048138   0.542   3.959   2.834  0.5619 -0.6574  0.1449
  115MOL    C3148139   0.687   3.928   2.838  0.3519 -0.2378 -0.0509
  115MOL    H3248140   0.054   4.398   3.169  1.5742  1.7333  2.0440
  115MOL    H3348141   0.043   4.221   3.140  0.5082 -0.8502  1.3128
  115MOL    H3448142   0.239   4.200   3.285  0.8525 -2.2307 -2.7704
  115MOL    H3548143   0.282   4.056   2.876  2.0603 -1.5082 -1.3872
  115MOL    H3648144   0.295   3.920   2.982  0.8099 -0.5554 -2.1707
  115MOL    H3748145   0.513   4.143   2.932  0.2228 -1.3729 -0.8656
  115MOL    H3848146   0.539   4.018   3.045 -0.6789  1.2518  1.6948
  115MOL    H3948147   0.523   4.016   2.744 -1.3446  0.4762  1.2362
  115MOL    H4048148   0.490   3.865   2.817  1.2077 -1.1767  0.9912
  115MOL    H4148149   0.704   3.848   2.910 -0.0968  0.9538  1.3786
  115MOL    H4248150   0.748   4.017   2.853  1.0655 -0.6665 -0.3809
  115MOL    H4348151   0.720   3.893   2.740  0.3004 -0.9771  0.1908
  115MOL    C4448152   0.300   4.415   3.253  0.5383 -0.0451  0.3197
  115MOL    C4548153   0.455   4.415   3.257 -0.7375 -0.3393 -0.1094
  115MOL    C4648154   0.518   4.550   3.288  0.1308  0.6658 -0.4306
  115MOL    O4748155   0.448   4.642   3.328  0.0867  0.8787  0.4746
  115MOL    O4848156   0.649   4.549   3.263  0.4902  0.7851 -0.0079
  115MOL    C4948157   0.737   4.651   3.301  0.1170  0.2684 -0.4002
  115MOL    C5048158   0.845   4.600   3.407  0.1997  0.2947 -0.1027
  115MOL    C5148159   0.963   4.699   3.424  0.2522 -0.0126 -0.1507
  115MOL    C5248160   1.077   4.644   3.518  0.7345 -0.3597  0.2575
  115MOL    H5348161   0.270   4.462   3.346 -0.7805 -0.0097 -0.1075
  115MOL    H5448162   0.262   4.493   3.187 -1.4762  0.0909  1.5799
  115MOL    H5548163   0.490   4.400   3.154 -0.3512 -0.1909 -0.0004
  115MOL    H5648164   0.687   4.735   3.348  0.2800  0.2328 -0.1619
  115MOL    H5748165   0.785   4.703   3.218  1.7270  3.4553  2.3696
  115MOL    H5848166   0.789   4.578   3.498  1.2372 -0.9138  0.2544
  115MOL    H5948167   0.888   4.503   3.383  0.3319 -0.1672  1.8794
  115MOL    H6048168   0.928   4.787   3.478 -0.2031 -1.6784  2.3733
  115MOL    H6148169   1.000   4.735   3.328 -0.9082 -1.2522 -1.0878
  115MOL    H6248170   1.169   4.699   3.499  0.5275  1.2861  3.5947
  115MOL    H6348171   1.102   4.541   3.495 -1.7613 -1.6115  2.8620
  115MOL    H6448172   1.047   4.652   3.623 -1.0799  2.0347 -0.4017
  115MOL    C6548173   0.518   4.306   3.344  0.2476 -0.3079 -0.0320
  115MOL    C6648174   0.530   4.328   3.495 -0.3285 -0.6747 -0.1867
  115MOL    C6748175   0.397   4.352   3.569  0.0546 -0.7490 -0.0082
  115MOL    O6848176   0.308   4.270   3.590  0.6554  1.0523  0.3507
  115MOL    O6948177   0.392   4.471   3.631 -0.9394 -0.3339 -0.5268
  115MOL    C7048178   0.278   4.520   3.701  0.2305 -0.3711 -0.0867
  115MOL    C7148179   0.199   4.621   3.617  0.4216  0.6107  0.1601
  115MOL    C7248180   0.278   4.760   3.597 -0.2830  0.0825 -0.8132
  115MOL    C7348181   0.199   4.849   3.509 -0.3788  0.5489 -0.2178
  115MOL    H7448182   0.617   4.293   3.300  0.2308  0.6514 -0.3726
  115MOL    H7548183   0.471   4.209   3.330  0.8830 -0.5414 -0.5728
  115MOL    H7648184   0.582   4.422   3.517 -0.7162  0.3279 -3.1912
  115MOL    H7748185   0.310   4.567   3.793  0.4186  2.2922 -1.4664
  115MOL    H7848186   0.215   4.436   3.731  0.2802 -0.7534 -1.0457
  115MOL    H7948187   0.170   4.579   3.521  0.8312 -3.0627  1.5769
  115MOL    H8048188   0.104   4.638   3.668 -1.1047  1.4550 -2.7930
  115MOL    H8148189   0.380   4.745   3.561  0.3731  0.1867  0.9723
  115MOL    H8248190   0.293   4.808   3.694  0.5622 -0.0749 -0.8682
  115MOL    H8348191   0.114   4.868   3.575 -0.0257  0.9975  0.1074
  115MOL    H8448192   0.170   4.804   3.414 -0.9832  2.0479 -0.7625
  115MOL    H8548193   0.260   4.933   3.476  1.0789 -0.0194  0.9849
  115MOL    C8648194   0.583   4.198   3.563  0.9289 -0.3598  0.1746
  115MOL    C8748195   0.728   4.150   3.551 -0.2404  1.0183  0.8789
  115MOL    C8848196   0.845   4.244   3.592 -0.1180 -0.7515  0.1833
  115MOL    O8948197   0.944   4.258   3.522  0.6379 -0.2834  0.0873
  115MOL    O9048198   0.810   4.295   3.712  0.1653 -0.6719  0.1030
  115MOL    C9148199   0.883   4.389   3.793 -0.3205  0.4501  0.8383
  115MOL    C9248200   0.785   4.485   3.865 -0.8083  0.4761 -0.0112
  115MOL    C9348201   0.710   4.586   3.775 -0.2412 -0.2346  1.1268
  115MOL    C9448202   0.619   4.678   3.850  0.5367  0.0668 -0.7727
  115MOL    H9548203   0.509   4.123   3.534 -0.8094  1.1336  0.6223
  115MOL    H9648204   0.569   4.209   3.670 -0.5123  0.0774 -0.0487
  115MOL    H9748205   0.751   4.142   3.444 -2.0577  3.1763  0.2810
  115MOL    H9848206   0.957   4.444   3.733 -0.5719  2.0798  1.9725
  115MOL    H9948207   0.944   4.339   3.869 -1.7364 -2.6015  0.0034
  115MOL   H10048208   0.716   4.420   3.919 -1.3022  2.1302  1.3967
  115MOL   H10148209   0.836   4.520   3.955 -1.1392 -0.8672  0.7176
  115MOL   H10248210   0.654   4.527   3.703 -1.0827  0.7305  0.9814
  115MOL   H10348211   0.776   4.663   3.735  0.4841 -0.9803  0.8888
  115MOL   H10448212   0.678   4.741   3.917 -0.3319 -1.0561  1.0784
  115MOL   H10548213   0.568   4.615   3.922  0.0521  2.1367  0.7527
  115MOL   H10648214   0.562   4.742   3.782 -0.0052 -0.2061 -0.5759
  115MOL   C10748215   0.737   4.017   3.613 -0.3027  0.3406  0.1601
  115MOL   C10848216   0.657   3.900   3.545 -0.8709 -0.3874  0.3502
  115MOL   C10948217   0.696   3.893   3.398  0.7659  1.3656 -0.2709
  115MOL   O11048218   0.614   3.905   3.307  0.2057  0.4222 -0.1770
  115MOL   O11148219   0.825   3.870   3.382 -0.3243  0.1140 -0.0331
  115MOL   C11248220   0.888   3.884   3.254  0.1110  0.8171 -0.2675
  115MOL   C11348221   0.938   4.019   3.207  0.3118 -0.6180 -0.0673
  115MOL   C11448222   0.823   4.117   3.173 -0.6283  0.1505 -0.5310
  115MOL   C11548223   0.857   4.264   3.140 -0.0077 -0.6304 -0.5820
  115MOL   H11648224   0.693   4.034   3.712 -0.4307 -1.0200  0.3425
  115MOL   H11748225   0.837   3.978   3.637 -1.3486 -3.2480 -0.9954
  115MOL   H11848226   0.552   3.927   3.535 -1.2104 -2.2362 -1.4901
  115MOL   H11948227   0.833   3.826   3.180  0.1306 -1.3202  1.3579
  115MOL   H12048228   0.980   3.827   3.258  0.2765  1.0852 -0.1928
  115MOL   H12148229   0.989   4.070   3.289 -0.1540 -1.3527  0.6749
  115MOL   H12248230   1.008   4.006   3.124  2.1375  0.3182  1.2838
  115MOL   H12348231   0.759   4.117   3.261  1.7338  1.5180  1.2404
  115MOL   H12448232   0.764   4.072   3.093 -2.6967  0.8364  0.5613
  115MOL   H12548233   0.786   4.325   3.084  2.4004  2.6691 -0.2100
  115MOL   H12648234   0.948   4.276   3.082  0.8033  1.0492  0.9805
  115MOL   H12748235   0.863   4.320   3.233 -1.2663 -0.9549 -0.3011
  115MOL   C12848236   0.677   3.778   3.632  0.0860 -0.1818 -0.0274
  115MOL   C12948237   0.577   3.754   3.743  0.0279 -0.1463 -0.8618
  115MOL   C13048238   0.435   3.723   3.693  0.6490 -0.3051 -0.9193
  115MOL   O13148239   0.343   3.803   3.697  0.3755 -0.9721  1.0022
  115MOL   O13248240   0.424   3.602   3.645  0.2384  0.0355  0.0410
  115MOL   C13348241   0.301   3.581   3.583 -0.4246 -0.3711  0.4213
  115MOL   C13448242   0.298   3.431   3.547 -0.7311  0.4820 -0.2476
  115MOL   C13548243   0.397   3.404   3.437 -1.1406 -0.6229  0.2563
  115MOL   C13648244   0.386   3.260   3.377 -0.5614  0.0849 -0.6017
  115MOL   H13748245   0.778   3.779   3.675 -0.0452 -0.3069  0.2890
  115MOL   H13848246   0.686   3.695   3.563  0.0477  0.6215 -1.0003
  115MOL   H13948247   0.563   3.848   3.796 -1.9544 -0.8277 -0.1383
  115MOL   H14048248   0.282   3.635   3.490  1.9245  0.6888  0.5294
  115MOL   H14148249   0.216   3.606   3.646  0.0967 -1.1458  1.4575
  115MOL   H14248250   0.329   3.370   3.632  1.2326  2.1085  0.2523
  115MOL   H14348251   0.193   3.409   3.530 -0.5533 -0.6080 -0.0120
  115MOL   H14448252   0.496   3.421   3.481 -0.7729 -3.1613  0.5008
  115MOL   H14548253   0.378   3.477   3.358  0.2519 -0.1216  0.3713
  115MOL   H14648254   0.448   3.250   3.288 -0.3978 -3.2267 -0.1934
  115MOL   H14748255   0.286   3.237   3.341  0.3733 -1.9050 -2.0326
  115MOL   H14848256   0.419   3.188   3.452  0.3110  1.8582  0.7326
  115MOL   C14948257   0.636   3.650   3.843  0.1116  0.4033 -0.1829
  115MOL   C15048258   0.701   3.700   3.978 -0.5597  0.1147  0.0610
  115MOL   C15148259   0.803   3.814   3.950 -0.0432 -0.1198 -0.3943
  115MOL   O15248260   0.771   3.931   3.955 -0.5226  0.3644 -0.4179
  115MOL   O15348261   0.920   3.763   3.908  0.1807 -0.1354  0.1992
  115MOL   C15448262   1.024   3.844   3.868  0.1110  0.1528 -0.2680
  115MOL   C15548263   1.077   3.782   3.738 -0.2536  0.0324  0.0162
  115MOL   C15648264   1.171   3.879   3.660 -0.6476  0.4673 -0.0328
  115MOL   C15748265   1.241   3.813   3.531 -0.3829 -0.0708 -0.7308
  115MOL   H15848266   0.704   3.577   3.798 -1.0191 -0.4000 -0.5965
  115MOL   H15948267   0.551   3.584   3.860  0.2713  0.1550 -0.3458
  115MOL   H16048268   0.770   3.627   4.020  2.4047  2.1952 -1.0223
  115MOL   H16148269   1.106   3.830   3.938 -0.3564 -0.4804  0.1637
  115MOL   H16248270   0.994   3.949   3.860 -0.2354  0.2281  1.6563
  115MOL   H16348271   1.138   3.695   3.763 -0.5731 -0.9269 -2.3281
  115MOL   H16448272   1.003   3.746   3.665  0.1677  2.0237 -1.4210
  115MOL   H16548273   1.250   3.918   3.724 -0.8260  0.1588  0.3851
  115MOL   H16648274   1.128   3.971   3.622 -1.2212 -0.3394 -1.3456
  115MOL   H16748275   1.168   3.796   3.451 -1.8264 -0.0942  0.5757
  115MOL   H16848276   1.286   3.717   3.557 -0.6803 -0.2871 -1.0033
  115MOL   H16948277   1.319   3.872   3.483  0.3743 -2.5600 -2.6921
  115MOL   C17048278   0.604   3.730   4.093  0.4928  0.4315 -0.0419
  115MOL   C17148279   0.496   3.625   4.131 -0.1338 -0.4145 -0.3822
  115MOL   C17248280   0.547   3.487   4.162  0.7007  0.5309  0.1211
  115MOL   O17348281   0.662   3.473   4.201 -0.0820  0.1828  0.4045
  115MOL   O17448282   0.463   3.378   4.123 -0.3074 -0.6491 -0.1460
  115MOL   C17548283   0.517   3.246   4.114 -0.1408 -0.6705  0.5578
  115MOL   C17648284   0.588   3.215   3.984  0.1056 -0.4212  0.9997
  115MOL   C17748285   0.517   3.241   3.849  0.3386  0.2526 -0.2565
  115MOL   C17848286   0.599   3.201   3.729  0.0967  0.3349 -0.0911
  115MOL   H17948287   0.551   3.822   4.070 -1.5354 -0.3953  1.2148
  115MOL   H18048288   0.659   3.749   4.185 -0.9642 -1.5539  1.2912
  115MOL   H18148289   0.434   3.627   4.041 -1.8348 -0.6472  0.7694
  115MOL   H18248290   0.433   3.179   4.135 -1.1662  0.5371  0.3487
  115MOL   H18348291   0.584   3.236   4.200  2.6582  0.8650 -1.3727
  115MOL   H18448292   0.673   3.284   3.979 -0.2891 -0.0093 -0.0214
  115MOL   H18548293   0.630   3.115   3.994  0.9269 -0.0790  1.0835
  115MOL   H18648294   0.492   3.347   3.846  0.3164  0.3079  1.2948
  115MOL   H18748295   0.421   3.190   3.847  0.9799 -1.0725  1.5716
  115MOL   H18848296   0.533   3.212   3.642  0.5053 -0.1868 -0.4706
  115MOL   H18948297   0.631   3.097   3.734  1.0620  0.5525 -1.4228
  115MOL   H19048298   0.689   3.262   3.723  0.5756 -0.1635  1.6342
  115MOL   C19148299   0.405   3.684   4.242  0.3593 -0.2536  0.0124
  115MOL   C19248300   0.290   3.592   4.290 -0.1213  0.1857  0.5213
  115MOL   C19348301   0.217   3.644   4.410  0.1969  0.6614 -0.0527
  115MOL   O19448302   0.229   3.759   4.452  0.1179  0.2852 -0.3044
  115MOL   O19548303   0.140   3.546   4.469 -0.7742 -0.0540  0.2470
  115MOL   C19648304   0.070   3.560   4.588 -0.4106  0.0027 -0.1751
  115MOL   C19748305   0.147   3.487   4.699 -0.1432 -0.3111  0.4845
  115MOL   C19848306   0.132   3.339   4.700  0.4110  0.7010  0.1111
  115MOL   C19948307   0.197   3.264   4.827 -0.5325 -1.1231 -0.4539
  115MOL   H20048308   0.357   3.779   4.217  0.0523 -0.8589 -1.7711
  115MOL   H20148309   0.469   3.714   4.325  2.1990  0.1447 -1.5186
  115MOL   H20248310   0.345   3.508   4.332  0.2861 -0.8071 -1.9095
  115MOL   H20348311   7.827   3.509   4.582  0.9033 -2.6104  0.2814
  115MOL   H20448312   0.048   3.663   4.615 -0.5795  0.6688 -2.6589
  115MOL   H20548313   0.251   3.520   4.705 -0.3618  0.3494  0.5913
  115MOL   H20648314   0.103   3.521   4.793  1.1342  0.0495  0.9618
  115MOL   H20748315   0.166   3.312   4.600 -1.6612  1.9823 -0.9572
  115MOL   H20848316   0.029   3.305   4.712  0.1258  1.0944 -1.2274
  115MOL   H20948317   0.153   3.322   4.908 -0.4141 -0.8450 -0.5857
  115MOL   H21048318   0.306   3.275   4.823 -0.9469  3.2470 -2.2344
  115MOL   H21148319   0.162   3.162   4.837 -0.9581 -0.8933  0.3706
  115MOL   C21248320   0.195   3.530   4.184  0.1596  1.0609 -0.3214
  115MOL   C21348321   0.069   3.612   4.135 -0.9299 -0.3394  0.1854
  115MOL   C21448322   0.113   3.714   4.028 -0.5116 -0.1694 -0.0334
  115MOL   O21548323   0.228   3.718   3.992  0.1521  0.6703  0.1231
  115MOL   O21648324   0.022   3.811   3.992 -0.3237 -0.1071 -0.2036
  115MOL   C21748325   0.047   3.900   3.882 -0.1047 -0.0795  0.3437
  115MOL   C21848326   0.031   4.049   3.932 -0.5538  0.7634 -0.0572
  115MOL   C21948327   0.037   4.135   3.806 -0.5838  0.8109  0.3560
  115MOL   C22048328   7.841   4.281   3.827 -0.0565  0.6089  0.2359
  115MOL   H22148329   0.148   3.438   4.219 -2.7085  2.3328 -0.6772
  115MOL   H22248330   0.252   3.496   4.097 -1.8716  0.6886 -1.5463
  115MOL   H22348331   0.040   3.676   4.219  0.6330  1.7690 -0.8596
  115MOL   H22448332   7.822   3.895   3.806  0.3803  0.8834 -0.2215
  115MOL   H22548333   0.148   3.892   3.843  0.1335  1.1945  0.7045
  115MOL   H22648334   7.790   4.055   3.985 -0.8971  1.2992 -0.7213
  115MOL   H22748335   0.088   4.094   4.013 -0.0048 -0.6031  0.3246
  115MOL   H22848336   7.827   4.087   3.731 -1.9281  2.3824  0.4618
  115MOL   H22948337   0.138   4.138   3.765 -1.1234 -1.9255 -1.3380
  115MOL   H23048338   0.063   4.355   3.853  1.0119 -0.0425 -0.9614
  115MOL   H23148339   7.772   4.289   3.911 -1.4085 -2.1622 -0.5578
  115MOL   H23248340   7.785   4.312   3.738 -0.6367 -1.2144 -0.0629
  115MOL   C23348341   7.794   3.534   4.096 -0.1990 -0.5983  0.6026
  115MOL   C23448342   7.785   3.485   3.946 -0.5637  0.1495  0.4217
  115MOL   C23548343   0.020   3.368   3.926  0.0142 -0.1478 -0.1055
  115MOL   O23648344   0.115   3.382   3.847 -0.1438  0.2023 -0.0054
  115MOL   O23748345   0.006   3.264   4.016  0.0599  0.3100  0.4500
  115MOL   C23848346   0.096   3.156   4.005  0.0776  0.4655  0.2631
  115MOL   C23948347   0.099   3.081   4.135 -0.5269  0.3042 -0.5918
  115MOL   C24048348   0.195   2.961   4.141  0.3470  0.7278 -0.1265
  115MOL   C24148349   0.176   2.900   4.277  0.6552 -0.0451  0.1695
  115MOL   H24248350   7.708   3.591   4.133  0.1391  0.2389  0.0992
  115MOL   H24348351   7.791   3.450   4.166 -1.3767  0.2475  1.5957
  115MOL   H24448352   7.809   3.564   3.874 -0.9374  0.1790  0.3256
  115MOL   H24548353   0.195   3.181   3.967  0.9809 -1.6663  1.1093
  115MOL   H24648354   0.055   3.081   3.936 -2.0984  0.5966  1.3759
  115MOL   H24748355   0.140   3.158   4.201  0.1864 -1.0779  0.5878
  115MOL   H24848356   7.850   3.045   4.145  0.3025 -2.2161 -1.0325
  115MOL   H24948357   0.295   3.004   4.137 -0.3997  2.4390 -1.4554
  115MOL   H25048358   0.178   2.891   4.059 -0.5053  0.6520  0.1043
  115MOL   H25148359   0.251   2.823   4.295 -1.5737 -1.6075  3.1505
  115MOL   H25248360   0.080   2.850   4.286  1.4089 -1.2046  2.2280
  115MOL   H25348361   0.169   2.983   4.348 -0.5881 -0.5708  0.6773
  115MOL   C25448362   7.644   3.444   3.904  0.1320 -0.2264  0.5812
  115MOL   C25548363   7.548   3.571   3.889 -0.0515  0.3177 -0.3177
  115MOL   C25648364   7.547   3.623   3.747 -0.4033 -0.0731  0.7653
  115MOL   O25748365   7.587   3.739   3.729 -0.4944  0.5335  0.8607
  115MOL   O25848366   7.510   3.534   3.649 -0.9088  0.4693  0.1696
  115MOL   C25948367   7.513   3.573   3.510  1.0385  0.2340  0.0840
  115MOL   C26048368   7.590   3.466   3.420 -0.3518  0.0372 -0.2871
  115MOL   C26148369   7.736   3.445   3.461 -0.1975 -0.6626 -0.5647
  115MOL   C26248370   7.821   3.351   3.378 -0.0928 -0.5627 -0.3168
  115MOL   H26348371   7.614   3.389   3.993 -2.7460 -1.0759 -0.8209
  115MOL   H26448372   7.634   3.384   3.814  2.6343 -0.4416  0.4112
  115MOL   H26548373   7.569   3.648   3.963  0.4103 -2.6511  2.7197
  115MOL   H26648374   7.575   3.661   3.497 -1.0091  1.5863 -0.8107
  115MOL   H26748375   7.420   3.599   3.460 -0.0231 -2.2108  0.6966
  115MOL   H26848376   7.534   3.373   3.425 -0.5012  0.1674  0.4649
  115MOL   H26948377   7.589   3.506   3.318 -0.9133  0.2387 -0.2039
  115MOL   H27048378   7.735   3.419   3.567  0.9969 -0.7613 -0.5758
  115MOL   H27148379   7.792   3.538   3.467  0.2166 -0.7285 -2.8026
  115MOL   H27248380   0.007   3.403   3.290  0.6628  0.0651  0.3927
  115MOL   H27348381   7.759   3.263   3.359 -1.9435 -0.0626  3.0326
  115MOL   H27448382   0.042   3.303   3.441  0.6507  0.3807 -0.4633
  115MOL   C27548383   7.401   3.516   3.911 -0.0281 -0.1416 -0.0390
  115MOL   C27648384   7.366   3.471   4.056  0.6227  0.1178  0.0465
  115MOL   C27748385   7.345   3.605   4.137  0.4483 -0.0188 -0.1878
  115MOL   O27848386   7.231   3.644   4.164  0.8211 -0.0032  0.6178
  115MOL   O27948387   7.463   3.653   4.180  0.5963  0.2574 -0.3066
  115MOL   C28048388   7.461   3.767   4.267  0.4191 -0.0714 -0.2152
  115MOL   C28148389   7.598   3.795   4.336 -0.4837  0.8446  0.2374
  115MOL   C28248390   7.601   3.940   4.386 -0.2371  0.4587 -0.0976
  115MOL   C28348391   7.625   4.056   4.287 -0.1101 -0.4865  0.4487
  115MOL   H28448392   7.378   3.435   3.841  0.0998 -0.5944  0.4395
  115MOL   H28548393   7.331   3.594   3.881  1.5220  1.3301  0.1427
  115MOL   H28648394   7.454   3.428   4.103  0.3922  1.1784  1.4854
  115MOL   H28748395   7.383   3.739   4.338  1.4721 -1.7415  0.3014
  115MOL   H28848396   7.431   3.864   4.227 -0.6023  0.4557  1.7542
  115MOL   H28948397   7.595   3.720   4.415  0.2545  1.3404  0.7396
  115MOL   H29048398   7.679   3.783   4.264 -0.3952  1.4503  0.2352
  115MOL   H29148399   7.684   3.947   4.457  1.2887 -0.0222 -1.7966
  115MOL   H29248400   7.509   3.962   4.440 -1.1056  0.3704 -1.5019
  115MOL   H29348401   7.646   4.149   4.340  0.3067 -0.1574 -0.2731
  115MOL   H29448402   7.548   4.080   4.213  0.7320 -1.3012 -0.7144
  115MOL   H29548403   7.709   4.031   4.222 -0.6294  1.3136 -0.9914
  115MOL   C29648404   7.247   3.370   4.070 -0.5990 -0.0027  0.0473
  115MOL   C29748405   7.103   3.404   4.004  0.2004 -0.4792 -0.7132
  115MOL   C29848406   7.100   3.386   3.850 -0.4541 -0.1436 -0.5151
  115MOL   O29948407   7.075   3.276   3.798 -0.2014 -0.0212 -0.5331
  115MOL   O30048408   7.107   3.499   3.779  0.0004 -0.1269  0.9216
  115MOL   C30148409   7.089   3.488   3.637 -0.0929 -0.0428  0.7811
  115MOL   C30248410   7.063   3.623   3.570 -0.5226  0.4540  0.7097
  115MOL   C30348411   6.921   3.684   3.577 -0.3233 -0.5880  0.4056
  115MOL   C30448412   6.825   3.588   3.517  0.2940  0.4907 -0.0178
  115MOL   H30548413   7.231   3.344   4.175  0.4193 -2.6311 -0.4028
  115MOL   H30648414   7.272   3.275   4.023 -0.5222  0.2476 -0.4127
  115MOL   H30748415   7.076   3.508   4.023  1.7957 -0.2472  0.3666
  115MOL   H30848416   7.009   3.420   3.609  1.3442 -1.3993 -0.1064
  115MOL   H30948417   7.186   3.455   3.600  0.5836  0.4955  2.0570
  115MOL   H31048418   7.128   3.698   3.616  0.3913 -0.1576  0.4135
  115MOL   H31148419   7.092   3.607   3.467 -1.0695  0.8165  0.4951
  115MOL   H31248420   6.910   3.780   3.527  0.1214  0.2280  1.8394
  115MOL   H31348421   6.879   3.703   3.675  1.0506  2.0113  0.5139
  115MOL   H31448422   6.815   3.504   3.586 -0.3900  0.1956 -0.4716
  115MOL   H31548423   6.849   3.548   3.418  2.4736  0.5733  0.4460
  115MOL   H31648424   6.724   3.627   3.503  0.3480  1.1412  1.3493
  115MOL   C31748425   6.988   3.325   4.067 -0.2971 -0.9616  0.0936
  115MOL   C31848426   6.849   3.372   4.020  1.0922  0.1548 -0.0762
  115MOL   C31948427   6.748   3.278   4.076 -0.3101 -0.5358 -0.6085
  115MOL   O32048428   6.685   3.209   3.998 -0.4799  0.1395 -0.4653
  115MOL   O32148429   6.741   3.270   4.209 -0.2801  0.3561 -0.1364
  115MOL   C32248430   6.640   3.199   4.277 -0.3553 -0.9894 -0.5092
  115MOL   C32348431   6.676   3.049   4.296  0.3321  0.5082 -0.3456
  115MOL   C32448432   6.788   3.028   4.396  0.5639 -1.0615 -0.4923
  115MOL   C32548433   6.752   3.090   4.533 -0.6924 -0.4376  0.4204
  115MOL   H32648434   7.005   3.312   4.174 -0.8377 -1.6332  0.0956
  115MOL   H32748435   6.998   3.221   4.038  2.6952 -1.6627  3.3164
  115MOL   H32848436   6.839   3.353   3.913 -1.1424 -1.0146  0.3232
  115MOL   H32948437   6.547   3.212   4.222 -0.0467  2.8085 -0.2690
  115MOL   H33048438   6.626   3.253   4.371  0.9171 -1.6327  0.0638
  115MOL   H33148439   6.582   3.004   4.328  0.2452  0.7021 -0.3224
  115MOL   H33248440   6.706   3.005   4.201 -0.3928 -1.7884  0.4473
  115MOL   H33348441   6.878   3.082   4.367  0.6367  0.0995  1.8167
  115MOL   H33448442   6.826   2.927   4.410  0.3919 -1.0219  0.2807
  115MOL   H33548443   6.646   3.074   4.554 -0.9162 -0.2723 -0.5553
  115MOL   H33648444   6.781   3.195   4.530  3.0153 -1.4085  0.5396
  115MOL   H33748445   6.795   3.037   4.618 -0.0541 -1.4598 -0.5195
  115MOL   C33848446   6.811   3.516   4.049 -0.2975  0.2091 -0.4750
  115MOL   C33948447   6.738   3.584   3.929  0.2012 -0.8226  0.2124
  115MOL   C34048448   6.602   3.527   3.891  0.0224 -0.0265  0.4183
  115MOL   O34148449   6.583   3.480   3.782 -0.0578  0.2923 -0.3010
  115MOL   O34248450   6.518   3.545   3.994  0.0056 -0.0706  0.4469
  115MOL   C34348451   6.388   3.491   3.993 -0.6629 -0.1910  0.0072
  115MOL   C34448452   6.324   3.501   4.135 -0.7822 -0.0241  0.4018
  115MOL   C34548453   6.282   3.647   4.181 -0.1493  0.5415 -0.2180
  115MOL   C34648454   6.202   3.664   4.313 -0.5237  0.1748 -0.0558
  115MOL   H34748455   6.888   3.587   4.078 -0.3337 -0.4538  1.2801
  115MOL   H34848456   6.751   3.533   4.139 -0.4728  0.4495 -0.6355
  115MOL   H34948457   6.790   3.554   3.838  0.9129 -0.6076  0.5451
  115MOL   H35048458   6.406   3.387   3.966 -0.1998 -0.1725  0.2588
  115MOL   H35148459   6.327   3.546   3.921  0.2926  2.5091  1.2024
  115MOL   H35248460   6.233   3.440   4.135  0.1597 -1.4487  0.3587
  115MOL   H35348461   6.397   3.456   4.202  1.4401  2.0601 -0.5318
  115MOL   H35448462   6.222   3.691   4.101 -1.4706  2.2698  1.6693
  115MOL   H35548463   6.378   3.697   4.189  0.5573 -0.7776 -0.3300
  115MOL   H35648464   6.110   3.607   4.316 -0.7245  0.5176  0.3044
  115MOL   H35748465   6.173   3.769   4.319 -1.2025  0.0778 -1.4161
  115MOL   H35848466   6.251   3.639   4.407 -2.3331 -2.5011  0.2207
  115MOL   C35948467   6.743   3.742   3.938  0.3248 -0.0919  0.0007
  115MOL   C36048468   6.647   3.821   4.034 -0.9765 -0.6108  0.0747
  115MOL   C36148469   6.699   3.805   4.177 -0.7143  0.3161  0.0843
  115MOL   O36248470   6.805   3.855   4.212 -0.1361 -0.0475 -0.0962
  115MOL   O36348471   6.626   3.724   4.262  0.1829 -0.3095  0.0372
  115MOL   C36448472   6.666   3.700   4.396 -0.3453 -1.2566  0.5487
  115MOL   C36548473   6.575   3.582   4.445 -0.0244 -0.3841 -0.3841
  115MOL   C36648474   6.632   3.527   4.572 -0.2236  0.0691  0.3482
  115MOL   C36748475   6.548   3.409   4.624  0.5395  1.0815  0.2203
  115MOL   H36848476   6.724   3.788   3.841 -0.2130  1.9477  1.0594
  115MOL   H36948477   6.847   3.768   3.960 -0.0891  1.9304 -0.3210
  115MOL   H37048478   6.547   3.778   4.044 -1.2437  0.3126  1.4781
  115MOL   H37148479   6.657   3.785   4.463  1.8315  1.8385 -2.9243
  115MOL   H37248480   6.768   3.664   4.404  0.4667  0.2386 -2.5478
  115MOL   H37348481   6.470   3.610   4.456 -0.2251 -0.6148 -1.5620
  115MOL   H37448482   6.574   3.506   4.367  0.3633 -0.4364 -0.3374
  115MOL   H37548483   6.631   3.603   4.650  0.6758  1.6473 -1.1240
  115MOL   H37648484   6.734   3.495   4.551 -0.9918 -1.7123 -0.7596
  115MOL   H37748485   6.611   3.340   4.680 -0.2115 -0.5546 -0.9280
  115MOL   H37848486   6.509   3.353   4.539 -4.4255  2.3397  1.4941
  115MOL   H37948487   6.461   3.439   4.683  0.6524  3.0179 -0.5441
  115MOL   C38048488   6.629   3.968   3.996 -0.4625 -0.0038  0.5653
  115MOL   C38148489   6.517   3.990   3.891  0.2411 -0.4927  0.5267
  115MOL   C38248490   6.378   3.962   3.952  0.1605 -0.7081  0.2616
  115MOL   O38348491   6.346   4.006   4.061 -0.4399  0.2295 -0.0495
  115MOL   O38448492   6.289   3.910   3.867  0.1131 -0.0931  0.5460
  115MOL   C38548493   6.150   3.914   3.903 -0.2605  0.5627 -0.1662
  115MOL   C38648494   6.065   3.856   3.792  0.5471 -0.0790  0.2545
  115MOL   C38748495   6.077   3.705   3.782 -0.2474  0.1117 -0.6159
  115MOL   C38848496   5.962   3.638   3.711  0.0862  0.6420  0.0425
  115MOL   H38948497   6.721   4.023   3.975 -0.7274  0.0967 -0.3795
  115MOL   H39048498   6.606   4.028   4.084  2.3877  2.0924 -0.0197
  115MOL   H39148499   6.536   3.905   3.824  1.7568  0.7277 -0.6422
  115MOL   H39248500   6.117   4.015   3.927 -0.3572  0.7398 -1.0177
  115MOL   H39348501   6.127   3.872   4.000 -0.0288 -1.5565 -1.0158
  115MOL   H39448502   5.962   3.875   3.822 -0.2785  0.3892 -2.7233
  115MOL   H39548503   6.093   3.901   3.696  3.3041 -0.3841  0.8730
  115MOL   H39648504   6.086   3.667   3.883 -1.8005  0.4335 -0.3464
  115MOL   H39748505   6.166   3.680   3.723  0.3454 -0.7643  0.6285
  115MOL   H39848506   5.977   3.530   3.721 -1.3302  0.3501 -0.8948
  115MOL   H39948507   5.968   3.660   3.604 -0.0291 -1.2423 -0.3677
  115MOL   H40048508   5.868   3.672   3.754 -0.0035 -0.5474  0.8133
  115MOL   C40148509   6.513   4.126   3.812  0.2978 -0.3176 -0.5284
  115MOL   C40248510   6.553   4.122   3.660 -0.0738  0.5500 -0.0578
  115MOL   C40348511   6.688   4.059   3.632 -0.2827 -0.1565 -0.3064
  115MOL   O40448512   6.717   3.950   3.585 -0.3259 -0.4248 -0.6136
  115MOL   O40548513   6.794   4.141   3.674  0.2431 -0.2394  0.0320
  115MOL   C40648514   6.923   4.086   3.668 -0.8759  0.3882 -0.0917
  115MOL   C40748515   6.952   4.011   3.797 -0.0493 -0.0667 -0.3640
  115MOL   C40848516   7.100   3.981   3.810  0.7665 -0.0251 -0.1402
  115MOL   C40948517   7.145   3.866   3.895 -0.5944  0.1009  0.2508
  115MOL   H41048518   6.565   4.200   3.872 -0.5179  1.2671 -1.7369
  115MOL   H41148519   6.411   4.159   3.831  0.4858  0.3328 -0.6422
  115MOL   H41248520   6.556   4.222   3.616  1.5597  0.3657 -0.3962
  115MOL   H41348521   6.986   4.175   3.666 -1.1521  0.5836 -2.9693
  115MOL   H41448522   6.940   4.030   3.576  2.0768  2.3984 -0.8337
  115MOL   H41548523   6.922   4.063   3.888  2.8704  0.0784  0.5630
  115MOL   H41648524   6.902   3.916   3.784 -0.8345  0.1064  1.3248
  115MOL   H41748525   7.159   4.069   3.837  0.4327  0.0376  0.3982
  115MOL   H41848526   7.135   3.970   3.707  1.4197 -1.2810  0.2018
  115MOL   H41948527   7.194   3.901   3.987 -0.2374 -2.0607  0.8983
  115MOL   H42048528   7.224   3.818   3.838 -2.3248 -0.6392 -1.5442
  115MOL   H42148529   7.066   3.795   3.919 -0.8811  0.1277 -0.6140
  115MOL   H42248530   6.480   4.059   3.609 -0.0332  0.4825 -0.0317
  116MOL     C148531   7.200   0.436   5.386 -0.2135 -0.5581  0.1606
  116MOL     C248532   7.070   0.510   5.355 -0.3815  0.2261  0.1005
  116MOL     C348533   7.044   0.646   5.422 -0.3307  0.7733  0.3201
  116MOL     O448534   7.125   0.703   5.500 -0.0977  0.6336 -0.4937
  116MOL     O548535   6.926   0.688   5.402  0.3301  0.4527 -0.3803
  116MOL     C648536   6.885   0.807   5.462  0.0361 -0.2626  0.2045
  116MOL     C748537   6.754   0.864   5.409  0.1813  0.6852  0.0897
  116MOL     C848538   6.778   0.916   5.271  0.2767 -0.5033  0.2035
  116MOL     C948539   6.653   0.986   5.223  0.0397  0.1220 -0.5399
  116MOL    H1048540   7.281   0.481   5.329 -0.9492  2.7231  1.5831
  116MOL    H1148541   7.220   0.452   5.492 -0.5418 -0.7068  0.2474
  116MOL    H1248542   6.997   0.445   5.403 -0.9242  1.1505  0.5564
  116MOL    H1348543   6.967   0.878   5.454  1.4197 -1.9168 -0.6837
  116MOL    H1448544   6.877   0.788   5.569 -3.9757 -1.9968 -0.3146
  116MOL    H1548545   6.682   0.782   5.409  0.3931  0.5002 -0.0081
  116MOL    H1648546   6.715   0.946   5.470  0.5794  0.1771  1.0433
  116MOL    H1748547   6.805   0.832   5.207 -0.0675 -1.1174  0.8584
  116MOL    H1848548   6.862   0.985   5.260 -0.5571  0.5056 -0.0024
  116MOL    H1948549   6.578   0.909   5.237 -1.1650  0.9694 -2.1290
  116MOL    H2048550   6.641   1.019   5.120 -0.7621 -0.6336 -0.6925
  116MOL    H2148551   6.625   1.074   5.281  2.0914  1.1923 -1.1168
  116MOL    H2248552   7.193   0.331   5.356 -0.4015  0.0407 -1.9623
  116MOL    C2348553   7.043   0.534   5.197  0.2105 -0.0616  0.1437
  116MOL    C2448554   7.042   0.405   5.104  0.1818 -0.1455  0.3811
  116MOL    C2548555   6.941   0.295   5.156  0.5717 -0.4657 -0.1787
  116MOL    O2648556   6.972   0.180   5.176 -0.4062 -0.5037 -0.3756
  116MOL    O2748557   6.810   0.345   5.173 -0.0757 -0.3103 -0.0089
  116MOL    C2848558   6.712   0.265   5.239 -0.7427 -0.3895  0.0768
  116MOL    C2948559   6.695   0.312   5.382 -0.0776 -0.5068 -0.4069
  116MOL    C3048560   6.666   0.464   5.398 -0.4012  0.2297  0.1169
  116MOL    C3148561   6.645   0.495   5.551  0.5707  0.0615 -0.0491
  116MOL    H3248562   7.117   0.608   5.167 -0.5798  1.3554  1.5908
  116MOL    H3348563   6.949   0.586   5.179  2.1845  3.2488 -0.9760
  116MOL    H3448564   7.139   0.355   5.109  1.1558  1.8489  2.7963
  116MOL    H3548565   6.751   0.163   5.238  0.6652  0.1434 -0.2471
  116MOL    H3648566   6.614   0.260   5.193 -0.4108  3.4746 -1.2132
  116MOL    H3748567   6.606   0.263   5.421  0.5107 -1.2949 -0.0164
  116MOL    H3848568   6.761   0.274   5.460 -2.1985 -0.3217  1.4992
  116MOL    H3948569   6.580   0.500   5.342  0.2723  0.5118 -0.7376
  116MOL    H4048570   6.741   0.535   5.366 -1.1356  0.3956 -1.2733
  116MOL    H4148571   6.729   0.461   5.612 -0.3058  3.5265  3.3587
  116MOL    H4248572   6.553   0.455   5.594  0.4837 -0.0017 -0.3001
  116MOL    H4348573   6.640   0.604   5.549  0.1070  0.0186 -1.0353
  116MOL    C4448574   7.000   0.448   4.961  0.0669  0.1376 -0.1186
  116MOL    C4548575   7.114   0.528   4.888  0.5653 -0.6855  0.3412
  116MOL    C4648576   7.246   0.457   4.862 -0.5989 -0.2093  0.7549
  116MOL    O4748577   7.360   0.486   4.904 -0.0377 -0.4729 -0.1679
  116MOL    O4848578   7.222   0.339   4.787 -1.1689  0.2917  0.2124
  116MOL    C4948579   7.329   0.259   4.731 -0.3285  0.2346 -0.5109
  116MOL    C5048580   7.290   0.221   4.591  0.4765  0.5825 -1.0884
  116MOL    C5148581   7.167   0.127   4.589 -0.3076 -0.0827 -0.2565
  116MOL    C5248582   7.133   0.074   4.454 -0.5018 -0.2676  0.1884
  116MOL    H5348583   6.908   0.505   4.973 -1.4679 -2.4732  0.9161
  116MOL    H5448584   6.968   0.367   4.896  0.9929 -0.1809 -0.1980
  116MOL    H5548585   7.147   0.616   4.942 -0.2439  0.1936 -0.5774
  116MOL    H5648586   7.330   0.167   4.790  3.7662  1.0694  0.8423
  116MOL    H5748587   7.419   0.320   4.729 -0.8947  1.0686 -1.1817
  116MOL    H5848588   7.274   0.314   4.537  0.9439  1.8730  0.9611
  116MOL    H5948589   7.377   0.198   4.530 -0.3787 -0.9832 -1.7492
  116MOL    H6048590   7.078   0.182   4.618  0.0138  0.4140 -0.1928
  116MOL    H6148591   7.172   0.047   4.663  0.5437 -1.4562 -1.7679
  116MOL    H6248592   7.214   0.007   4.423 -0.7734  0.6052 -2.5650
  116MOL    H6348593   7.133   0.151   4.377  1.6411  0.8517  1.2502
  116MOL    H6448594   7.043   0.014   4.448  0.2102 -1.3850  0.4067
  116MOL    C6548595   7.064   0.587   4.756 -0.3841  0.1778  0.4103
  116MOL    C6648596   6.927   0.670   4.758  0.1818  0.3582  0.3264
  116MOL    C6748597   6.933   0.777   4.858  0.4366 -0.1923  0.5481
  116MOL    O6848598   6.861   0.780   4.955 -0.4329  0.1718  0.0671
  116MOL    O6948599   7.030   0.865   4.827 -0.0881 -0.4037  0.2077
  116MOL    C7048600   7.075   0.957   4.923 -0.3979  0.2248  0.0867
  116MOL    C7148601   6.984   1.072   4.964  0.2500 -0.3145 -0.1514
  116MOL    C7248602   6.932   1.151   4.845 -0.1363 -0.3077 -0.6747
  116MOL    C7348603   6.815   1.248   4.873 -0.1522  0.3629  0.5799
  116MOL    H7448604   7.048   0.503   4.688 -0.1189 -0.1030  0.6895
  116MOL    H7548605   7.144   0.639   4.705 -0.4756 -0.1643 -0.0824
  116MOL    H7648606   6.857   0.596   4.798 -0.0715  1.4780  2.0263
  116MOL    H7748607   7.174   0.992   4.893 -1.1244  0.2552 -2.4093
  116MOL    H7848608   7.095   0.901   5.014  2.6200  1.5994  0.3260
  116MOL    H7948609   6.907   1.030   5.029  0.1527  0.0519 -0.0265
  116MOL    H8048610   7.041   1.133   5.035 -2.1745  1.6005  0.2240
  116MOL    H8148611   6.900   1.080   4.768  1.6178  1.2544 -2.9034
  116MOL    H8248612   7.008   1.209   4.793 -0.9143  3.5064  2.2611
  116MOL    H8348613   6.759   1.279   4.784 -1.2251 -1.2938  0.6427
  116MOL    H8448614   6.842   1.331   4.937  1.4953 -1.6218  2.5080
  116MOL    H8548615   6.743   1.181   4.921  0.2890 -0.2423  0.4013
  116MOL    C8648616   6.877   0.709   4.615  0.1263  0.1324  0.1646
  116MOL    C8748617   6.718   0.717   4.591 -0.2122 -0.1666 -0.3922
  116MOL    C8848618   6.657   0.576   4.599 -0.3726  0.6341 -0.1840
  116MOL    O8948619   6.609   0.526   4.703 -0.4965 -0.3374  0.4631
  116MOL    O9048620   6.678   0.520   4.477 -0.3065 -0.1696  0.2902
  116MOL    C9148621   6.630   0.389   4.446 -0.1136 -0.8771  0.1802
  116MOL    C9248622   6.743   0.305   4.387 -0.3907  0.3240 -0.4868
  116MOL    C9348623   6.775   0.338   4.237 -0.6517  0.4124  0.4175
  116MOL    C9448624   6.870   0.230   4.184 -0.8404  0.0374 -0.2376
  116MOL    H9548625   6.922   0.639   4.544  1.3296 -1.1209  2.1054
  116MOL    H9648626   6.925   0.804   4.592  1.4519 -0.4373  0.5163
  116MOL    H9748627   6.708   0.744   4.486  1.0453  1.5267 -0.0953
  116MOL    H9848628   6.547   0.397   4.376  0.5392  2.1387 -0.3330
  116MOL    H9948629   6.596   0.353   4.543 -0.5697  1.7289  1.0411
  116MOL   H10048630   6.820   0.321   4.462 -0.0431  2.8374 -1.3350
  116MOL   H10148631   6.723   0.199   4.398 -0.9239  0.6352  1.7237
  116MOL   H10248632   6.826   0.433   4.220  1.0850 -0.1958  2.0890
  116MOL   H10348633   6.682   0.340   4.180  0.6761 -1.2890 -1.8602
  116MOL   H10448634   6.962   0.227   4.242  0.0597 -1.4557 -1.6731
  116MOL   H10548635   6.899   0.246   4.080 -3.5597  2.4477 -0.6740
  116MOL   H10648636   6.834   0.129   4.205  0.8549 -0.0088  2.7569
  116MOL   C10748637   6.656   0.829   4.665  0.3723 -1.0044 -0.0314
  116MOL   C10848638   6.510   0.865   4.616 -0.1984  0.1169  0.0486
  116MOL   C10948639   6.448   0.962   4.712  0.2732 -0.1082 -0.3334
  116MOL   O11048640   6.514   1.057   4.760 -0.2605  0.0598  0.3270
  116MOL   O11148641   6.319   0.939   4.733  0.4564  0.1042  0.4155
  116MOL   C11248642   6.257   1.026   4.838 -0.6235  0.3510 -0.3245
  116MOL   C11348643   6.248   0.968   4.979 -0.0257  0.5604  0.8956
  116MOL   C11448644   6.224   1.069   5.090 -0.0382 -0.0598  0.4077
  116MOL   C11548645   6.187   1.004   5.221  0.4650  0.2156  0.0822
  116MOL   H11648646   6.713   0.922   4.667 -0.1428 -0.7080  1.1672
  116MOL   H11748647   6.657   0.802   4.770 -0.0514 -2.6231 -0.4293
  116MOL   H11848648   6.453   0.772   4.623  1.7364 -1.0275  1.0222
  116MOL   H11948649   6.154   1.042   4.809 -1.1991 -0.9718  0.9095
  116MOL   H12048650   6.306   1.124   4.837  0.0519  0.1608  3.7548
  116MOL   H12148651   6.174   0.888   4.974  2.3376 -1.6809  1.1188
  116MOL   H12248652   6.335   0.919   5.021 -1.6658 -0.4720  3.2427
  116MOL   H12348653   6.150   1.147   5.073  0.5870  0.6556  0.9272
  116MOL   H12448654   6.317   1.125   5.105  0.7258 -1.3786  0.6822
  116MOL   H12548655   6.265   0.934   5.251 -0.5201 -0.3984  1.2765
  116MOL   H12648656   6.092   0.953   5.231  0.6661 -0.2217 -0.2484
  116MOL   H12748657   6.191   1.084   5.295 -1.5644  0.0437  0.4037
  116MOL   C12848658   6.508   0.922   4.466 -0.1507 -0.5203 -0.1374
  116MOL   C12948659   6.466   0.818   4.354 -0.3216  1.1061 -0.2795
  116MOL   C13048660   6.330   0.763   4.384 -0.1299  0.3579 -0.7582
  116MOL   O13148661   6.232   0.821   4.338 -0.2522 -0.7708  0.0845
  116MOL   O13248662   6.332   0.650   4.463 -0.3690  0.5492  0.5630
  116MOL   C13348663   6.205   0.593   4.499 -0.0882  0.1675 -0.7125
  116MOL   C13448664   6.239   0.457   4.553  0.0471  0.5317 -0.0620
  116MOL   C13548665   6.121   0.369   4.570 -0.0499  0.0302  0.4520
  116MOL   C13648666   6.138   0.252   4.662  0.3033  0.1964 -0.4600
  116MOL   H13748667   6.610   0.957   4.445  0.3507 -0.8355  1.6749
  116MOL   H13848668   6.448   1.013   4.462 -0.0949 -0.4827 -0.1275
  116MOL   H13948669   6.528   0.728   4.362 -0.7543  0.8782  0.7061
  116MOL   H14048670   6.133   0.596   4.417  0.1434 -1.1978 -0.9875
  116MOL   H14148671   6.171   0.646   4.588  0.2597 -1.3691  0.3497
  116MOL   H14248672   6.301   0.418   4.472 -0.6426 -0.4234 -0.1327
  116MOL   H14348673   6.289   0.468   4.649 -2.6824  2.1411  1.2153
  116MOL   H14448674   6.085   0.331   4.475  1.2062  1.1258 -0.4889
  116MOL   H14548675   6.040   0.430   4.609  0.6906  2.4349 -1.6379
  116MOL   H14648676   6.054   0.184   4.649 -0.3535  0.8507  0.3078
  116MOL   H14748677   6.137   0.289   4.765 -0.6917  1.0879 -0.7898
  116MOL   H14848678   6.234   0.202   4.643 -0.6870 -2.5914  1.4951
  116MOL   C14948679   6.492   0.878   4.218  1.2004  0.5650  0.4702
  116MOL   C15048680   6.450   0.790   4.098  0.3007 -0.1711 -0.1457
  116MOL   C15148681   6.471   0.875   3.973 -0.1902 -0.2537 -0.0600
  116MOL   O15248682   6.569   0.857   3.906 -0.4019  0.3482  0.2728
  116MOL   O15348683   6.380   0.974   3.957  0.2392 -0.0940  0.5365
  116MOL   C15448684   6.368   1.033   3.828 -0.1298  0.1397 -0.8960
  116MOL   C15548685   6.241   1.119   3.831  0.0343 -0.1255  1.0291
  116MOL   C15648686   6.252   1.247   3.916 -0.1392  0.5163 -0.4567
  116MOL   C15748687   6.366   1.345   3.873  0.5149 -0.6247 -0.6112
  116MOL   H15848688   6.597   0.903   4.209  1.1671 -0.1557 -2.3356
  116MOL   H15948689   6.437   0.971   4.202  0.5287 -0.0944 -1.1885
  116MOL   H16048690   6.344   0.765   4.106  0.3731 -0.1352  0.9436
  116MOL   H16148691   6.365   0.956   3.751 -0.1609 -2.8480  1.9684
  116MOL   H16248692   6.455   1.096   3.807 -2.0107  2.8949 -0.6116
  116MOL   H16348693   6.203   1.139   3.731 -0.5358  0.7203  1.4034
  116MOL   H16448694   6.160   1.062   3.877  1.2629  0.8625  4.5866
  116MOL   H16548695   6.264   1.215   4.020 -0.8330 -1.7708 -1.0458
  116MOL   H16648696   6.154   1.293   3.916 -1.3029 -1.8639 -0.5391
  116MOL   H16748697   6.320   1.383   3.781  0.5088  0.2000 -0.2698
  116MOL   H16848698   6.455   1.290   3.845  1.1611  1.0490 -1.9489
  116MOL   H16948699   6.385   1.420   3.949  1.4373 -0.9407 -0.5324
  116MOL   C17048700   6.515   0.646   4.089  0.6919  0.3115 -0.7696
  116MOL   C17148701   6.438   0.552   3.991  0.3485  0.3546 -0.0958
  116MOL   C17248702   6.538   0.442   3.937 -0.1904  0.5687  0.8329
  116MOL   O17348703   6.658   0.451   3.957  0.6359 -0.4856 -0.2595
  116MOL   O17448704   6.470   0.341   3.883  0.3178 -0.3655 -0.1517
  116MOL   C17548705   6.538   0.226   3.842  0.4528 -0.5569 -0.8453
  116MOL   C17648706   6.530   0.123   3.954 -0.6410  0.3356  0.7203
  116MOL   C17748707   6.386   0.090   3.997  0.4270  0.1195 -0.2328
  116MOL   C17848708   6.278   0.047   3.890  0.8306  0.4455  0.1964
  116MOL   H17948709   6.504   0.612   4.192 -0.0717  3.3140  0.1911
  116MOL   H18048710   6.620   0.662   4.068  1.7524 -1.2692  2.9992
  116MOL   H18148711   6.414   0.609   3.901 -3.1867  0.5293  0.8741
  116MOL   H18248712   6.641   0.247   3.813  1.1047 -1.5242  0.7101
  116MOL   H18348713   6.486   0.187   3.755 -1.2015 -2.9357  1.1453
  116MOL   H18448714   6.589   0.039   3.916 -1.4450  0.4668 -0.8857
  116MOL   H18548715   6.588   0.150   4.042  3.2050 -2.1197 -0.9379
  116MOL   H18648716   6.343   0.178   4.045  1.6146  0.2853  0.5311
  116MOL   H18748717   6.380   0.009   4.071  1.2794  0.2172 -0.0529
  116MOL   H18848718   6.181   0.041   3.939  0.5000 -0.6899 -0.5754
  116MOL   H18948719   6.307   7.798   3.867 -1.7024 -0.0274 -1.0217
  116MOL   H19048720   6.278   0.099   3.794  0.8834 -1.4431 -0.8485
  116MOL   C19148721   6.309   0.499   4.057  0.2548  0.4392 -0.2306
  116MOL   C19248722   6.187   0.489   3.966  0.6474  0.9194 -0.0280
  116MOL   C19348723   6.103   0.365   3.998  0.3264 -0.2099 -0.1087
  116MOL   O19448724   6.093   0.324   4.116 -0.6932 -0.0511 -0.1844
  116MOL   O19548725   6.041   0.315   3.891  0.0705 -0.1689 -0.4077
  116MOL   C19648726   5.938   0.225   3.925 -0.4095 -0.2574 -0.2976
  116MOL   C19748727   5.866   0.177   3.799 -0.9165 -0.7706 -0.6885
  116MOL   C19848728   5.935   0.059   3.730 -0.1009  0.6553 -0.4341
  116MOL   C19948729   5.856   7.835   3.618  0.2753 -0.1974 -0.2836
  116MOL   H20048730   6.292   0.552   4.151  2.2808  1.0440 -0.1695
  116MOL   H20148731   6.337   0.400   4.093  0.8455 -0.4467 -2.9933
  116MOL   H20248732   6.221   0.466   3.865 -1.5099  1.2292 -0.8297
  116MOL   H20348733   5.870   0.290   3.980  0.1167 -0.0705  0.1491
  116MOL   H20448734   5.976   0.142   3.985  1.0970  0.3651 -0.3459
  116MOL   H20548735   5.765   0.148   3.830  0.1808 -2.6354  1.2940
  116MOL   H20648736   5.843   0.253   3.725 -2.2173 -0.8990 -0.4400
  116MOL   H20748737   5.967   7.831   3.795 -1.0079 -0.3800 -1.2394
  116MOL   H20848738   6.030   0.096   3.693  0.1208  2.5898  1.9930
  116MOL   H20948739   5.751   7.814   3.638 -0.5884  0.4928 -3.8388
  116MOL   H21048740   5.921   7.752   3.589 -0.1153 -0.3241 -0.8042
  116MOL   H21148741   5.851   0.046   3.530  0.5188  1.2369  0.7349
  116MOL   C21248742   6.096   0.605   3.992  0.0735  0.3370 -0.2304
  116MOL   C21348743   5.984   0.628   3.892 -0.3795  0.2864  0.5557
  116MOL   C21448744   5.890   0.734   3.952  0.5337 -0.1719  0.2559
  116MOL   O21548745   5.776   0.703   3.979 -0.2489  0.4779  0.1994
  116MOL   O21648746   5.950   0.852   3.980 -0.5678 -0.0783 -0.1964
  116MOL   C21748747   5.890   0.953   4.053  0.1147  0.3327 -0.6273
  116MOL   C21848748   5.864   1.085   3.986 -0.0541  0.4995 -0.3923
  116MOL   C21948749   5.768   1.072   3.866  0.5740 -0.1156 -0.1043
  116MOL   C22048750   5.734   1.210   3.805 -0.1810 -0.1305  0.2445
  116MOL   H22148751   6.157   0.695   3.998  1.5336 -0.7585  1.5919
  116MOL   H22248752   6.060   0.593   4.094  0.9774 -1.2293 -0.0809
  116MOL   H22348753   5.924   0.537   3.903  0.5836 -0.3544  0.4942
  116MOL   H22448754   5.948   0.967   4.145 -3.8408 -0.2744  2.1288
  116MOL   H22548755   5.797   0.921   4.102 -0.3081 -0.3746 -1.8869
  116MOL   H22648756   5.828   1.157   4.059  0.3604  0.2919  0.0199
  116MOL   H22748757   5.958   1.127   3.951 -0.1412 -0.2382 -1.5516
  116MOL   H22848758   5.677   1.016   3.890  1.1297 -1.8030 -1.7398
  116MOL   H22948759   5.822   1.013   3.791 -0.5706 -3.9036  1.9148
  116MOL   H23048760   5.703   1.280   3.883 -2.1970 -0.2318 -0.4412
  116MOL   H23148761   5.661   1.220   3.725  0.8355 -2.0239 -0.9460
  116MOL   H23248762   5.826   1.260   3.773 -0.3460  0.3544  0.5268
  116MOL   C23348763   6.035   0.661   3.747 -0.2598 -0.5590 -0.3167
  116MOL   C23448764   5.946   0.649   3.629 -0.4156  0.0958  0.6772
  116MOL   C23548765   5.995   0.748   3.521  0.4236 -0.4588 -0.1666
  116MOL   O23648766   5.931   0.850   3.488 -0.9199  0.1632  0.7373
  116MOL   O23748767   6.104   0.706   3.454 -0.6708 -0.4826  0.3328
  116MOL   C23848768   6.143   0.773   3.339  0.3630 -0.6313 -0.1368
  116MOL   C23948769   6.293   0.792   3.315 -1.2966 -0.0505  0.3682
  116MOL   C24048770   6.316   0.874   3.187  0.2257 -0.2151  0.2109
  116MOL   C24148771   6.463   0.909   3.164 -0.5870  0.1599 -0.1402
  116MOL   H24248772   6.125   0.602   3.728 -0.2239  0.2318 -2.7558
  116MOL   H24348773   6.072   0.764   3.750 -0.4465 -0.5124  0.4566
  116MOL   H24448774   5.843   0.663   3.659 -1.1203  1.9804 -2.4125
  116MOL   H24548775   6.095   0.869   3.356 -0.8376 -1.8487  3.9108
  116MOL   H24648776   6.099   0.726   3.251  1.7364 -1.1465 -0.5554
  116MOL   H24748777   6.348   0.839   3.396  0.9668 -0.2188 -1.0492
  116MOL   H24848778   6.336   0.692   3.311  0.2441  0.6467 -0.8196
  116MOL   H24948779   6.263   0.969   3.192 -1.9522 -1.3576 -0.7033
  116MOL   H25048780   6.274   0.826   3.098 -1.1366  0.0186  0.7124
  116MOL   H25148781   6.476   0.968   3.074 -0.0331 -2.1319 -1.5879
  116MOL   H25248782   6.522   0.818   3.158  0.7504  0.8787  1.6253
  116MOL   H25348783   6.506   0.969   3.245 -1.4982 -0.9034  1.1614
  116MOL   C25448784   5.947   0.508   3.579 -0.3291  0.5416 -0.1646
  116MOL   C25548785   5.859   0.476   3.454  0.2313 -0.5446 -0.1491
  116MOL   C25648786   5.919   0.385   3.352 -0.7406  0.3776  0.1393
  116MOL   O25748787   5.927   0.416   3.233 -0.5172  0.0907 -0.2908
  116MOL   O25848788   5.950   0.270   3.403  0.4351 -0.9129 -0.6950
  116MOL   C25948789   5.999   0.160   3.324  0.2141  0.3408 -0.4408
  116MOL   C26048790   6.113   0.089   3.393 -0.0785  0.1876 -0.6649
  116MOL   C26148791   6.225   0.175   3.450 -0.2933 -0.0813 -0.8306
  116MOL   C26248792   6.344   0.089   3.488  0.1941 -0.6671  0.1578
  116MOL   H26348793   5.936   0.436   3.660 -0.6021 -1.5237 -2.0173
  116MOL   H26448794   6.053   0.491   3.557 -0.2944 -1.0574  1.1537
  116MOL   H26548795   5.837   0.562   3.390  0.9837 -1.6609 -1.9471
  116MOL   H26648796   6.031   0.198   3.227  0.0128 -1.3248 -1.1672
  116MOL   H26748797   5.910   0.098   3.315 -0.5142  1.3061 -0.0466
  116MOL   H26848798   6.081   0.019   3.471  1.6152 -0.9527 -0.9882
  116MOL   H26948799   6.155   0.014   3.326  3.6380  0.7922  0.8843
  116MOL   H27048800   6.192   0.216   3.545 -2.4073 -0.2998 -1.4491
  116MOL   H27148801   6.261   0.258   3.389  0.3705 -1.5970 -2.5411
  116MOL   H27248802   6.312   0.023   3.568  0.5560 -2.9239 -1.5058
  116MOL   H27348803   6.424   0.149   3.531  1.5294 -1.2499 -1.4706
  116MOL   H27448804   6.373   0.028   3.403 -0.8038 -0.5130 -0.3012
  116MOL   C27548805   5.718   0.428   3.505  0.4994  0.5466 -0.1638
  116MOL   C27648806   5.591   0.451   3.418  0.3276  0.2185 -0.3057
  116MOL   C27748807   5.493   0.333   3.424  0.1553  0.3434 -0.1618
  116MOL   O27848808   5.508   0.234   3.349  0.3102  0.2870  0.7096
  116MOL   O27948809   5.386   0.342   3.510 -0.3146  0.0531  0.1862
  116MOL   C28048810   5.313   0.225   3.547 -0.2869 -0.2320 -0.1794
  116MOL   C28148811   5.193   0.277   3.621  0.3733 -1.1663 -0.0131
  116MOL   C28248812   5.101   0.172   3.697  0.3007  0.1531  0.1045
  116MOL   C28348813   5.142   0.156   3.844  0.1082  0.2424  0.4245
  116MOL   H28448814   5.702   0.484   3.598 -1.4141  1.2875 -0.9278
  116MOL   H28548815   5.730   0.322   3.529 -0.0729  0.4809 -0.1692
  116MOL   H28648816   5.630   0.430   3.318 -0.6683 -1.5507 -0.3427
  116MOL   H28748817   5.382   0.167   3.607  0.9226  3.1195  1.7654
  116MOL   H28848818   5.293   0.170   3.454 -0.7541  0.6559 -0.6101
  116MOL   H28948819   5.205   0.370   3.676  0.7903 -0.7775 -0.7407
  116MOL   H29048820   5.127   0.310   3.540 -1.0769  0.0292  1.6222
  116MOL   H29148821   5.098   0.074   3.649  1.0996 -0.0569  0.4682
  116MOL   H29248822   5.004   0.220   3.694 -0.4547 -1.2017  1.9569
  116MOL   H29348823   5.232   0.095   3.839  0.1889  0.4922 -1.5983
  116MOL   H29448824   5.063   0.103   3.895  0.1598  0.7390  1.0302
  116MOL   H29548825   5.171   0.253   3.886  2.0961  0.6301 -1.6956
  116MOL   C29648826   5.530   0.597   3.442  0.1413  0.6967  0.2581
  116MOL   C29748827   5.627   0.721   3.419  1.0907 -0.0877 -0.1361
  116MOL   C29848828   5.660   0.729   3.271  0.0295 -0.6893  0.1862
  116MOL   O29948829   5.579   0.723   3.178 -0.0841 -0.1127 -0.2497
  116MOL   O30048830   5.788   0.763   3.236  0.2937 -0.1978 -0.7010
  116MOL   C30148831   5.829   0.783   3.099  0.5294  0.3634  0.8000
  116MOL   C30248832   5.778   0.919   3.044 -0.0495  0.3338 -0.0287
  116MOL   C30348833   5.834   1.033   3.124 -0.1164  0.1905  0.7687
  116MOL   C30448834   5.804   1.164   3.054 -0.1222 -0.7544 -0.2991
  116MOL   H30548835   5.489   0.604   3.543 -0.4141 -1.8580  0.2420
  116MOL   H30648836   5.439   0.602   3.383  0.7148  0.2609 -0.6741
  116MOL   H30748837   5.716   0.704   3.480  0.5940 -1.9225  0.1188
  116MOL   H30848838   5.800   0.701   3.033 -1.5717  1.4331  0.3596
  116MOL   H30948839   5.937   0.774   3.110  0.5086 -2.2933 -0.8394
  116MOL   H31048840   5.813   0.932   2.942 -1.0324  1.5290 -0.2277
  116MOL   H31148841   5.670   0.936   3.050  0.1147  1.3949  0.1515
  116MOL   H31248842   5.941   1.019   3.141  0.0981  1.0430  0.1196
  116MOL   H31348843   5.782   1.023   3.219 -0.2065  1.2952  0.8388
  116MOL   H31448844   5.854   1.240   3.113  0.0155 -0.6527 -0.5459
  116MOL   H31548845   5.697   1.183   3.062  0.3624  0.9800  2.4754
  116MOL   H31648846   5.835   1.170   2.949 -1.5410 -1.6721 -0.7857
  116MOL   C31748847   5.569   0.851   3.468 -0.2775  0.4864  0.3355
  116MOL   C31848848   5.439   0.903   3.403  0.6191  0.3145  0.0706
  116MOL   C31948849   5.318   0.886   3.500  1.0302  0.2047  0.4167
  116MOL   O32048850   5.300   0.958   3.599 -0.2150 -0.1803  0.2188
  116MOL   O32148851   5.237   0.787   3.468  0.4047 -0.5323  0.3847
  116MOL   C32248852   5.134   0.751   3.551 -0.2601  0.0661 -0.1605
  116MOL   C32348853   5.059   0.632   3.482 -0.0683 -0.1900 -0.4468
  116MOL   C32448854   4.944   0.574   3.574  0.1735  0.1490 -0.9975
  116MOL   C32548855   4.856   0.484   3.495  0.1706 -0.1716  0.0207
  116MOL   H32648856   5.651   0.920   3.450 -0.4040  0.2467 -1.3091
  116MOL   H32748857   5.565   0.846   3.576  0.4604  1.6535  0.4237
  116MOL   H32848858   5.424   0.848   3.311 -1.5377 -0.2312  0.7088
  116MOL   H32948859   5.071   0.839   3.561 -0.2631  0.0077  0.3524
  116MOL   H33048860   5.175   0.723   3.648 -0.9698  0.1203  0.1577
  116MOL   H33148861   5.016   0.655   3.384  1.9811  0.9898 -1.0914
  116MOL   H33248862   5.134   0.554   3.468 -0.2782 -0.4505 -0.1235
  116MOL   H33348863   4.878   0.655   3.603  0.4119 -0.2344  0.6466
  116MOL   H33448864   4.990   0.525   3.659 -2.6764 -2.6600 -0.9965
  116MOL   H33548865   4.905   0.389   3.474  1.6272 -0.1125  2.9176
  116MOL   H33648866   4.832   0.526   3.397 -0.3915 -0.2144  0.1385
  116MOL   H33748867   4.767   0.444   3.543  0.2162 -1.0751 -0.6405
  116MOL   C33848868   5.467   1.055   3.370  0.3365  0.1802 -0.7372
  116MOL   C33948869   5.368   1.113   3.268  0.3140 -1.2445 -0.2597
  116MOL   C34048870   5.362   1.264   3.273  0.1431 -0.4979 -0.2011
  116MOL   O34148871   5.270   1.323   3.336  0.2081  0.6135  0.3325
  116MOL   O34248872   5.458   1.319   3.193 -0.0450  0.0054 -0.4637
  116MOL   C34348873   5.482   1.461   3.201  0.4024  0.0439 -0.0396
  116MOL   C34448874   5.612   1.489   3.267 -0.1611 -0.0410  0.8052
  116MOL   C34548875   5.601   1.456   3.418 -0.0242  0.4052 -0.5381
  116MOL   C34648876   5.715   1.509   3.501 -0.2809 -0.2460  0.2294
  116MOL   H34748877   5.566   1.066   3.327  0.9136 -0.4283  0.4110
  116MOL   H34848878   5.481   1.110   3.464  3.6544 -2.8298  0.6363
  116MOL   H34948879   5.269   1.080   3.300  0.2276 -0.1251  0.6398
  116MOL   H35048880   5.403   1.508   3.260  0.8983  0.0503  0.6112
  116MOL   H35148881   5.487   1.507   3.102  1.4778 -2.0212 -0.9809
  116MOL   H35248882   5.697   1.441   3.218  0.0289  1.9534 -0.8845
  116MOL   H35348883   5.639   1.593   3.248  0.4566 -0.2226  0.6756
  116MOL   H35448884   5.596   1.347   3.417 -0.2727  0.3752  1.6946
  116MOL   H35548885   5.505   1.486   3.459  1.3419  3.3112  0.6241
  116MOL   H35648886   5.701   1.614   3.528  0.3035 -0.1251  0.0712
  116MOL   H35748887   5.814   1.507   3.456  0.2183  0.8402  1.2450
  116MOL   H35848888   5.721   1.441   3.586  2.1539 -0.3583 -0.0075
  116MOL   C35948889   5.368   1.050   3.119  0.2330 -0.7423 -0.2616
  116MOL   C36048890   5.247   1.053   3.025  0.0022  0.1339 -0.1252
  116MOL   C36148891   5.247   1.181   2.940 -0.6205  0.3891  0.4206
  116MOL   O36248892   5.342   1.208   2.870 -0.4799 -0.1781 -0.5697
  116MOL   O36348893   5.135   1.258   2.966 -0.4461  0.1419 -0.1024
  116MOL   C36448894   5.122   1.388   2.912  0.2563 -0.1574 -0.4991
  116MOL   C36548895   4.985   1.453   2.956  0.1442  0.1351 -0.1744
  116MOL   C36648896   4.957   1.436   3.107  0.0053 -0.7658  0.1602
  116MOL   C36748897   4.850   1.531   3.142  0.3513  0.4933 -0.1131
  116MOL   H36848898   5.385   0.943   3.135  0.3136 -0.6049  0.6036
  116MOL   H36948899   5.450   1.089   3.057 -1.0248  0.0488 -1.4538
  116MOL   H37048900   5.159   1.052   3.089 -0.0527 -2.7759 -0.1722
  116MOL   H37148901   5.121   1.376   2.804  0.4260  1.0124 -0.6395
  116MOL   H37248902   5.213   1.433   2.951  0.4616 -0.1695 -0.9587
  116MOL   H37348903   4.969   1.548   2.906 -1.1116  0.1030  0.1493
  116MOL   H37448904   4.912   1.389   2.905  0.6446  0.7714 -1.7244
  116MOL   H37548905   5.046   1.446   3.169  0.0792  1.4110 -0.2607
  116MOL   H37648906   4.929   1.331   3.119 -1.2082 -0.0603  4.1594
  116MOL   H37748907   4.871   1.559   3.245  0.2493 -1.5489  0.4735
  116MOL   H37848908   4.746   1.496   3.141 -0.0524  1.6543 -0.7704
  116MOL   H37948909   4.857   1.625   3.087  1.5631  0.1195 -0.6108
  116MOL   C38048910   5.241   0.924   2.927  1.2635 -0.7407 -0.1700
  116MOL   C38148911   5.103   0.845   2.944 -0.5628 -0.5448 -0.1340
  116MOL   C38248912   5.073   0.765   2.815  0.3279  0.1460 -0.6679
  116MOL   O38348913   4.978   0.790   2.747  0.2578 -0.1500  0.2127
  116MOL   O38448914   5.174   0.677   2.786  0.3706 -0.4374 -0.2782
  116MOL   C38548915   5.166   0.604   2.665  0.2857  1.3289  0.5697
  116MOL   C38648916   5.059   0.493   2.661  0.3245 -0.7134  0.4201
  116MOL   C38748917   5.079   0.393   2.541  0.1613 -0.3704 -0.6272
  116MOL   C38848918   4.967   0.291   2.546 -0.4946  0.1452  0.0946
  116MOL   H38948919   5.324   0.856   2.949  3.1872  2.5320  3.2366
  116MOL   H39048920   5.251   0.952   2.823 -1.2638  2.1729  0.3021
  116MOL   H39148921   5.022   0.918   2.948 -0.0308  0.0428 -0.0343
  116MOL   H39248922   5.259   0.548   2.654  1.4409  2.5337  3.6440
  116MOL   H39348923   5.144   0.663   2.577 -0.3558  1.3548  0.7433
  116MOL   H39448924   5.065   0.452   2.761  0.3285  1.0772  1.1594
  116MOL   H39548925   4.955   0.527   2.665  0.7162  0.3065  2.6129
  116MOL   H39648926   5.179   0.349   2.544 -0.5022 -1.7999  1.0949
  116MOL   H39748927   5.068   0.436   2.442 -1.0513 -1.1534 -0.8480
  116MOL   H39848928   4.957   0.262   2.651  2.3590 -1.3332 -0.0195
  116MOL   H39948929   4.998   0.203   2.490 -0.2113  0.9936 -1.0996
  116MOL   H40048930   4.872   0.334   2.512 -1.1483 -0.6770  0.8510
  116MOL   C40148931   5.094   0.765   3.074 -1.2330  1.0603  0.1916
  116MOL   C40248932   4.944   0.748   3.110  0.9290 -0.9918 -0.3169
  116MOL   C40348933   4.878   0.880   3.152 -0.2270  0.0545 -0.2630
  116MOL   O40448934   4.790   0.931   3.084  0.0521  0.4872 -0.4037
  116MOL   O40548935   4.928   0.928   3.264 -0.2873 -0.9659  0.1123
  116MOL   C40648936   4.894   1.065   3.303  0.3356  1.0667 -0.5652
  116MOL   C40748937   4.867   1.062   3.457 -0.5049  0.3376 -0.4234
  116MOL   C40848938   4.781   0.951   3.525 -0.1454  0.3160  0.4639
  116MOL   C40948939   4.814   0.943   3.675 -0.2100 -0.2509  0.1917
  116MOL   H41048940   5.135   0.813   3.163 -0.4959 -1.5157  1.2932
  116MOL   H41148941   5.141   0.670   3.048 -1.9785  0.6822  0.2109
  116MOL   H41248942   4.936   0.687   3.200 -2.2131  0.1658  0.2613
  116MOL   H41348943   4.805   1.098   3.249  0.4015  2.2222  0.0154
  116MOL   H41448944   4.977   1.134   3.289  0.6553  0.7742 -0.1224
  116MOL   H41548945   4.967   1.072   3.500 -0.6575  0.7063 -0.1546
  116MOL   H41648946   4.820   1.155   3.488  0.0077 -0.0715  1.6003
  116MOL   H41748947   4.797   0.865   3.460 -4.5408  0.3955 -0.8858
  116MOL   H41848948   4.677   0.971   3.500 -0.0446  0.1857 -0.0699
  116MOL   H41948949   4.922   0.944   3.689 -0.2709 -0.2404  0.6722
  116MOL   H42048950   4.778   0.850   3.718 -3.0131  1.5234  1.8915
  116MOL   H42148951   4.770   1.027   3.729 -0.4396 -0.0430 -0.3164
  116MOL   H42248952   4.886   0.702   3.030  0.0136  2.7402 -1.9304
  117MOL     C148953   5.371   1.561   0.603  0.6260  1.1199  0.6294
  117MOL     C248954   5.329   1.703   0.645  0.3898  0.1514 -0.5828
  117MOL     C348955   5.195   1.705   0.723  0.6046 -0.0796  0.7078
  117MOL     O448956   5.092   1.769   0.696 -0.0584 -0.1908 -0.0362
  117MOL     O548957   5.212   1.632   0.835 -0.7514 -0.0734 -0.1336
  117MOL     C648958   5.109   1.595   0.930  0.6844  0.1752  0.0453
  117MOL     C748959   5.077   1.444   0.923  0.5450  0.1044  0.2835
  117MOL     C848960   5.027   1.391   0.784 -0.9100  0.3868 -0.1947
  117MOL     C948961   5.015   1.243   0.798  0.2087  0.0966 -0.8583
  117MOL    H1048962   5.468   1.569   0.553  1.0959  1.0327  1.5314
  117MOL    H1148963   5.398   1.507   0.694  1.3102  1.8114  0.8476
  117MOL    H1248964   5.311   1.757   0.552 -1.1842 -0.0796 -0.4266
  117MOL    H1348965   5.021   1.658   0.914  0.8793  1.4500  3.6811
  117MOL    H1448966   5.142   1.613   1.032  0.2263  1.0966  0.0351
  117MOL    H1548967   5.169   1.386   0.935  0.8844  0.9820  2.1154
  117MOL    H1648968   5.010   1.413   1.004 -1.4909  2.5410 -0.4222
  117MOL    H1748969   5.089   1.409   0.696  0.7235  2.6624  1.3495
  117MOL    H1848970   4.932   1.440   0.764 -0.8623  0.3484 -0.5200
  117MOL    H1948971   4.982   1.196   0.706  0.5846 -1.0999 -0.3898
  117MOL    H2048972   4.924   1.237   0.859  0.1251 -0.2397 -1.0143
  117MOL    H2148973   5.100   1.190   0.840 -0.3087 -0.7011 -0.8078
  117MOL    H2248974   5.291   1.515   0.546  1.0410  0.3185  0.6883
  117MOL    C2348975   5.435   1.785   0.715  0.2189  0.1441 -0.6687
  117MOL    C2448976   5.418   1.938   0.745  0.1791 -0.3312  0.7067
  117MOL    C2548977   5.324   1.973   0.866  0.3618 -0.4390  0.0876
  117MOL    O2648978   5.338   1.921   0.981  0.6361  0.8681 -0.1550
  117MOL    O2748979   5.227   2.058   0.824  0.4421 -0.3968  0.1959
  117MOL    C2848980   5.130   2.115   0.915  0.5816 -0.5166 -0.5706
  117MOL    C2948981   5.010   2.020   0.955 -1.1660  0.7768  0.3284
  117MOL    C3048982   4.917   2.073   1.065 -0.0628  0.8939  1.0258
  117MOL    C3148983   4.815   1.969   1.126 -0.1078  0.0304  0.5083
  117MOL    H3248984   5.530   1.756   0.670  1.1358  0.6395  0.9216
  117MOL    H3348985   5.446   1.740   0.814 -0.4783 -2.1766 -1.5933
  117MOL    H3448986   5.374   1.967   0.649  0.0705 -1.3644  0.4443
  117MOL    H3548987   5.087   2.203   0.867 -0.1936  0.1853  1.3362
  117MOL    H3648988   5.185   2.160   0.998  0.8819 -0.3121 -0.8777
  117MOL    H3748989   4.953   1.998   0.865  2.0875  0.6834 -1.7903
  117MOL    H3848990   5.059   1.929   0.989 -0.2734  0.8668 -0.6934
  117MOL    H3948991   4.849   2.151   1.029 -1.5249 -0.3585  1.0255
  117MOL    H4048992   4.966   2.116   1.152  2.3448  0.5109 -0.1026
  117MOL    H4148993   4.764   1.910   1.049  0.8724 -2.8512  2.0095
  117MOL    H4248994   4.742   2.012   1.195  0.7613 -0.6871  1.8915
  117MOL    H4348995   4.867   1.902   1.194 -1.0114  0.8292  2.0130
  117MOL    C4448996   5.542   2.025   0.752 -0.5732 -0.2136 -0.0713
  117MOL    C4548997   5.646   2.006   0.869  0.5952 -0.2326 -0.3121
  117MOL    C4648998   5.731   1.877   0.861  0.1567 -0.2900  0.8045
  117MOL    O4748999   5.826   1.866   0.779  0.1392 -0.4297 -0.1916
  117MOL    O4849000   5.682   1.779   0.935 -0.5083  0.4153 -0.3190
  117MOL    C4949001   5.715   1.649   0.911 -0.3323 -0.2159  0.0421
  117MOL    C5049002   5.660   1.558   1.024  0.8650 -0.2000 -0.9390
  117MOL    C5149003   5.506   1.569   1.043  0.1335 -0.1273 -0.0085
  117MOL    C5249004   5.459   1.473   1.149  0.7861  0.5009 -0.1661
  117MOL    H5349005   5.506   2.128   0.760 -1.8001 -0.6131 -0.4165
  117MOL    H5449006   5.600   2.013   0.660  1.1898  0.3882  0.9226
  117MOL    H5549007   5.583   1.997   0.958 -1.4575 -1.1844 -1.8297
  117MOL    H5649008   5.822   1.633   0.902 -0.3255 -0.6025  0.7442
  117MOL    H5749009   5.666   1.627   0.816  1.8765  0.8487 -1.3631
  117MOL    H5849010   5.679   1.452   1.006  0.6815 -0.3311 -0.3427
  117MOL    H5949011   5.711   1.564   1.120 -1.6870  0.4135  0.4209
  117MOL    H6049012   5.449   1.561   0.950  1.4075  0.2735 -0.8471
  117MOL    H6149013   5.483   1.669   1.080  0.2920  0.0815 -0.4579
  117MOL    H6249014   5.484   1.368   1.137  1.3979  0.7529 -1.0939
  117MOL    H6349015   5.350   1.478   1.139  0.5519 -1.4607  1.0863
  117MOL    H6449016   5.504   1.501   1.244  0.2825  1.8209 -0.3083
  117MOL    C6549017   5.724   2.141   0.907 -0.2513 -0.8403  0.5180
  117MOL    C6649018   5.834   2.199   0.808 -0.2502  0.2527 -0.1056
  117MOL    C6749019   5.772   2.298   0.705  0.0327  0.0657  0.0214
  117MOL    O6849020   5.696   2.385   0.747  0.3396  0.3547 -0.2180
  117MOL    O6949021   5.818   2.289   0.580  0.6518  0.4476 -0.1201
  117MOL    C7049022   5.759   2.347   0.471  0.3426  0.0161  0.2062
  117MOL    C7149023   5.808   2.490   0.448  0.5696 -0.4257  0.8168
  117MOL    C7249024   5.948   2.491   0.380 -0.6168  0.4877  0.3557
  117MOL    C7349025   6.014   2.627   0.356  0.3599  0.1246 -0.3565
  117MOL    H7449026   5.777   2.114   0.998  1.9821  1.2142 -0.1357
  117MOL    H7549027   5.649   2.212   0.943  0.4957  0.3894 -0.3422
  117MOL    H7649028   5.872   2.118   0.745 -0.9321  0.2458 -0.5103
  117MOL    H7749029   5.652   2.341   0.488  0.7072 -1.3384  2.2579
  117MOL    H7849030   5.792   2.284   0.388  0.0097  1.0555 -0.7226
  117MOL    H7949031   5.740   2.547   0.384 -0.6080 -3.0732 -0.3569
  117MOL    H8049032   5.807   2.548   0.540  0.8155 -1.5061  1.4993
  117MOL    H8149033   5.961   2.435   0.287  2.1075 -0.5928  1.3472
  117MOL    H8249034   6.011   2.439   0.452  0.2141  0.3797 -0.4400
  117MOL    H8349035   6.017   2.687   0.447  0.8490  1.4238 -1.2170
  117MOL    H8449036   5.955   2.687   0.287 -0.4935 -0.6134 -0.2841
  117MOL    H8549037   6.115   2.620   0.315  0.4450  0.1976 -0.1607
  117MOL    C8649038   5.962   2.259   0.877  0.2858  0.6207 -1.2359
  117MOL    C8749039   6.070   2.310   0.771  0.1222  0.2724 -0.4266
  117MOL    C8849040   6.156   2.424   0.825  0.2047 -0.1372  0.1008
  117MOL    O8949041   6.170   2.433   0.947  0.0537  0.5291  0.0227
  117MOL    O9049042   6.180   2.512   0.732 -0.0588 -0.2095 -0.1110
  117MOL    C9149043   6.255   2.629   0.760  0.4777 -0.9848  0.1992
  117MOL    C9249044   6.357   2.656   0.645  0.4633  0.8821 -0.4762
  117MOL    C9349045   6.463   2.544   0.609  0.0883 -0.0807 -0.4688
  117MOL    C9449046   6.579   2.579   0.513  0.3007 -0.1924 -0.6270
  117MOL    H9549047   6.008   2.181   0.937  1.7077  1.2240 -1.5105
  117MOL    H9649048   5.928   2.336   0.946  0.1235 -0.6500  0.1293
  117MOL    H9749049   6.044   2.345   0.671 -0.7020 -1.2767 -0.7738
  117MOL    H9849050   6.299   2.625   0.860  0.6123 -0.2421  0.1749
  117MOL    H9949051   6.200   2.723   0.758  2.7751  0.4013  0.4263
  117MOL   H10049052   6.309   2.679   0.551 -0.4491  1.3246  0.0970
  117MOL   H10149053   6.405   2.751   0.669 -1.8357  1.5849  1.4145
  117MOL   H10249054   6.403   2.470   0.557  0.7075 -0.1145 -1.1340
  117MOL   H10349055   6.516   2.495   0.691 -0.9173  0.0451  0.2634
  117MOL   H10449056   6.648   2.498   0.489  1.5948  0.1471  1.7790
  117MOL   H10549057   6.644   2.646   0.569 -0.7035 -0.8780  1.4103
  117MOL   H10649058   6.554   2.623   0.416 -1.1107 -0.5829 -0.4430
  117MOL   C10749059   6.170   2.194   0.740  0.0355  0.0425  0.6022
  117MOL   C10849060   6.261   2.211   0.619 -0.0807  0.8054  0.0675
  117MOL   C10949061   6.393   2.130   0.629  0.6120  0.0022 -0.1153
  117MOL   O11049062   6.380   2.006   0.651 -0.6512 -0.3947 -0.9224
  117MOL   O11149063   6.495   2.196   0.602  0.7272 -0.2292 -0.8169
  117MOL   C11249064   6.628   2.141   0.604 -0.0303  0.0273 -0.1074
  117MOL   C11349065   6.727   2.237   0.670  0.2993  0.3544 -0.2759
  117MOL   C11449066   6.869   2.177   0.664  0.5980 -0.2289 -0.1389
  117MOL   C11549067   6.969   2.258   0.745  0.0264  0.3072  0.3389
  117MOL   H11649068   6.109   2.104   0.736  1.9948 -1.2505 -1.8475
  117MOL   H11749069   6.230   2.185   0.831  0.6069  0.1639  0.2422
  117MOL   H11849070   6.291   2.315   0.604 -0.2216  0.7369 -0.7061
  117MOL   H11949071   6.664   2.122   0.503  0.5801  2.8427 -0.4755
  117MOL   H12049072   6.629   2.051   0.666  0.4421  0.4930  0.5810
  117MOL   H12149073   6.714   2.333   0.619 -0.6490  0.0997 -0.5304
  117MOL   H12249074   6.704   2.253   0.775 -0.7030 -0.8801 -0.2974
  117MOL   H12349075   6.910   2.165   0.564  2.0308  1.5387  0.2250
  117MOL   H12449076   6.861   2.080   0.714 -0.2072  0.2963  0.7669
  117MOL   H12549077   6.939   2.251   0.850  0.6024  0.9208  0.5466
  117MOL   H12649078   6.962   2.365   0.722 -0.1015 -0.1533 -1.8632
  117MOL   H12749079   7.073   2.227   0.748 -0.8377 -2.6980  3.4866
  117MOL   C12849080   6.175   2.171   0.489 -0.3108  0.4287 -0.0394
  117MOL   C12949081   6.244   2.169   0.354 -0.3164 -0.1847  0.1259
  117MOL   C13049082   6.153   2.095   0.250 -0.4156 -0.1738  0.0372
  117MOL   O13149083   6.202   2.011   0.178  0.4002  0.0592  0.0815
  117MOL   O13249084   6.025   2.127   0.245 -0.4924 -0.2228  0.4023
  117MOL   C13349085   5.936   2.056   0.162  0.2367 -0.5359  0.8719
  117MOL   C13449086   5.880   1.933   0.239 -0.6998 -0.2105 -0.7603
  117MOL   C13549087   5.806   1.971   0.368  0.2562  0.3606  0.2820
  117MOL   C13649088   5.724   1.858   0.420  0.1306 -0.3550  0.1405
  117MOL   H13749089   6.078   2.219   0.479 -0.3613  0.3466  0.0587
  117MOL   H13849090   6.144   2.068   0.505 -0.7893  0.7560  1.1873
  117MOL   H13949091   6.339   2.119   0.375 -0.1011  0.4730  0.7312
  117MOL   H14049092   5.983   2.012   0.074  0.5804  1.3433  0.0940
  117MOL   H14149093   5.856   2.124   0.131 -0.5436 -2.1631 -0.7794
  117MOL   H14249094   5.814   1.891   0.163  1.5512 -2.6112 -1.4186
  117MOL   H14349095   5.949   1.850   0.252  1.1301  0.9696 -2.6127
  117MOL   H14449096   5.738   2.055   0.352  0.1275  0.2824  0.4104
  117MOL   H14549097   5.878   2.011   0.438 -1.0422  1.8352  0.8099
  117MOL   H14649098   5.625   1.854   0.375 -0.0294  1.5696  0.3032
  117MOL   H14749099   5.720   1.856   0.529 -3.7954  1.5072  0.1087
  117MOL   H14849100   5.774   1.764   0.395 -0.6211 -0.5440 -0.6583
  117MOL   C14949101   6.281   2.310   0.296  0.1043 -0.6279 -0.0040
  117MOL   C15049102   6.394   2.311   0.197  0.2030  0.0769 -0.0354
  117MOL   C15149103   6.408   2.451   0.148  0.1137  0.2192 -0.4508
  117MOL   O15249104   6.356   2.547   0.198  0.2280 -0.0731  0.5925
  117MOL   O15349105   6.491   2.459   0.044 -0.2195  0.0342  0.1208
  117MOL   C15449106   6.526   2.582   7.838 -0.2422  0.1999  0.2308
  117MOL   C15549107   6.642   2.659   0.066 -0.3203 -0.1994 -0.5924
  117MOL   C15649108   6.669   2.790   7.837 -0.6067 -0.4904 -0.0169
  117MOL   C15749109   6.763   2.871   0.071 -0.2129 -0.4144 -0.5968
  117MOL   H15849110   6.286   2.386   0.374  2.2165 -2.4591  1.7027
  117MOL   H15949111   6.193   2.352   0.247  0.1047 -0.3617  0.2177
  117MOL   H16049112   6.358   2.253   0.112  0.6973 -1.0398  0.5014
  117MOL   H16149113   6.438   2.644   7.819 -0.6802 -0.4252  0.2021
  117MOL   H16249114   6.565   2.563   7.738  2.3913 -2.6295  1.7117
  117MOL   H16349115   6.612   2.688   0.167 -1.3645  1.8991 -1.4836
  117MOL   H16449116   6.733   2.600   0.065  0.4349  0.9689 -1.8377
  117MOL   H16549117   6.586   2.857   7.814 -1.1615 -0.5568  1.7243
  117MOL   H16649118   6.723   2.770   7.745  1.5473  1.1337  0.8427
  117MOL   H16749119   6.809   2.954   0.017 -1.7957  0.3513 -0.8152
  117MOL   H16849120   6.840   2.809   0.116 -1.5769 -0.5516  1.6552
  117MOL   H16949121   6.713   2.921   0.154  0.2928  2.1035 -1.7625
  117MOL   C17049122   6.532   2.253   0.246 -0.1245  0.3412 -0.3726
  117MOL   C17149123   6.630   2.197   0.138 -0.1626 -0.5270 -0.6937
  117MOL   C17249124   6.766   2.253   0.165 -0.2833  0.2719  0.5974
  117MOL   O17349125   6.817   2.331   0.081 -0.6190  0.0531  0.1960
  117MOL   O17449126   6.821   2.217   0.281  0.2550  0.0347 -0.2312
  117MOL   C17549127   6.952   2.264   0.309  0.3856 -0.1202  0.3807
  117MOL   C17649128   6.968   2.415   0.340 -0.9196  0.1836 -0.0137
  117MOL   C17749129   7.103   2.472   0.299 -0.0829 -0.1654 -0.7753
  117MOL   C17849130   7.142   2.593   0.388 -0.1744  0.8065  0.4850
  117MOL   H17949131   6.520   2.176   0.321 -1.0860 -1.6130 -2.4733
  117MOL   H18049132   6.580   2.334   0.301  0.8623 -0.7436  0.3895
  117MOL   H18149133   6.595   2.236   0.043 -1.9855 -1.9366 -0.6469
  117MOL   H18249134   7.002   2.244   0.214  1.3603 -1.7290  1.1988
  117MOL   H18349135   6.993   2.190   0.378 -0.9601  1.2862  2.7335
  117MOL   H18449136   6.901   2.476   0.279 -0.4821  0.6843  0.0025
  117MOL   H18549137   6.950   2.437   0.445  0.9474 -2.0841  0.8214
  117MOL   H18649138   7.122   2.498   0.194  0.4275 -0.7946 -0.8491
  117MOL   H18749139   7.167   2.390   0.330 -0.3300  0.0278  0.2649
  117MOL   H18849140   7.154   2.545   0.486 -1.5534 -0.2034  0.1755
  117MOL   H18949141   7.064   2.667   0.399 -0.8954 -0.0383  1.1830
  117MOL   H19049142   7.234   2.636   0.349 -0.0375  1.0934  1.1247
  117MOL   C19149143   6.646   2.043   0.117 -0.0923  0.0268  0.5243
  117MOL   C19249144   6.524   1.964   0.064 -0.3588  0.1635 -0.0043
  117MOL   C19349145   6.487   2.010   7.770 -0.3329  0.2887 -0.7922
  117MOL   O19449146   6.385   1.970   7.718 -0.1657 -0.7401 -0.7845
  117MOL   O19549147   6.588   2.089   7.710  0.1040 -0.7679  0.2119
  117MOL   C19649148   6.574   2.166   7.587  0.2779  0.1500 -0.6140
  117MOL   C19749149   6.673   2.296   7.578  0.0918 -0.6910  0.1189
  117MOL   C19849150   6.661   2.395   7.459 -0.5501  0.3932  0.1588
  117MOL   C19949151   6.770   2.498   7.448  0.4848 -0.3344 -0.5609
  117MOL   H20049152   6.678   1.984   0.203 -0.5077 -1.4575 -0.3277
  117MOL   H20149153   6.737   2.018   0.062 -1.0310 -0.6200 -0.7542
  117MOL   H20249154   6.440   2.000   0.124 -0.5678 -1.7298  0.8826
  117MOL   H20349155   6.471   2.201   7.583 -0.5929 -2.0873  1.5756
  117MOL   H20449156   6.581   2.101   7.500  1.7366 -1.6148  0.7697
  117MOL   H20549157   6.677   2.351   7.672  1.1631  1.5904 -1.2237
  117MOL   H20649158   6.767   2.241   7.581 -0.3112 -1.3703  0.5986
  117MOL   H20749159   6.563   2.442   7.466  0.2237  2.1149 -0.3822
  117MOL   H20849160   6.671   2.333   7.370  1.2377  1.5794 -0.4913
  117MOL   H20949161   6.752   2.535   7.347 -1.4937  0.2350 -0.0342
  117MOL   H21049162   6.869   2.453   7.447  0.9965  0.6923  1.5055
  117MOL   H21149163   6.768   2.589   7.509 -2.0067 -1.4745  1.1209
  117MOL   C21249164   6.535   1.811   0.066 -0.2317  0.1052 -0.4650
  117MOL   C21349165   6.561   1.744   0.213  0.5994  0.9307  0.6805
  117MOL   C21449166   6.469   1.798   0.321  0.5862 -0.1907 -0.6702
  117MOL   O21549167   6.518   1.865   0.408  0.4199  0.7250  0.2960
  117MOL   O21649168   6.340   1.758   0.308  0.3212  0.1996 -0.4160
  117MOL   C21749169   6.240   1.787   0.403  0.7370  0.2541 -0.1906
  117MOL   C21849170   6.254   1.703   0.533 -0.0775 -0.2427 -0.0195
  117MOL   C21949171   6.126   1.725   0.613  0.1786 -0.3300  0.2752
  117MOL   C22049172   6.114   1.637   0.735  0.3557 -0.2566 -0.2897
  117MOL   H22149173   6.628   1.782   0.016  1.5064  2.3643  1.3391
  117MOL   H22249174   6.447   1.772   0.016 -0.9821  1.3457 -0.1388
  117MOL   H22349175   6.663   1.774   0.236  0.5626  0.9269  0.8528
  117MOL   H22449176   6.142   1.764   0.362  1.4102 -0.8690 -1.2143
  117MOL   H22549177   6.253   1.892   0.429  1.5558  0.4606 -1.3838
  117MOL   H22649178   6.262   1.594   0.526  0.7818 -0.1077 -1.2793
  117MOL   H22749179   6.336   1.739   0.594  0.6644 -4.6001  1.7458
  117MOL   H22849180   6.029   1.718   0.563 -0.0546  1.2388  0.4773
  117MOL   H22949181   6.132   1.829   0.645 -0.2973  0.0996 -0.9974
  117MOL   H23049182   6.173   1.673   0.819  1.1952  0.9399 -1.3740
  117MOL   H23149183   6.144   1.535   0.713 -0.3710  0.1037 -3.2014
  117MOL   H23249184   6.015   1.634   0.781  1.3561 -1.8059  1.8157
  117MOL   C23349185   6.553   1.588   0.204 -0.1239  0.7220  0.3634
  117MOL   C23449186   6.580   1.510   0.335 -0.4871  0.4981  0.0405
  117MOL   C23549187   6.549   1.357   0.325  0.3165 -0.4406 -0.3108
  117MOL   O23649188   6.608   1.276   0.393  0.3023 -0.2784  0.6777
  117MOL   O23749189   6.459   1.324   0.231  0.3213 -0.1035  0.3833
  117MOL   C23849190   6.429   1.189   0.213  0.3889  0.5087  0.3937
  117MOL   C23949191   6.297   1.175   0.139  0.0617  0.4176  0.1318
  117MOL   C24049192   6.287   1.044   0.067 -0.0128  0.5233  0.1995
  117MOL   C24149193   6.142   1.006   0.029  0.3448  0.0981 -0.1576
  117MOL   H24249194   6.605   1.552   0.115  0.3423  0.4598  0.7380
  117MOL   H24349195   6.455   1.546   0.184 -0.2028  0.7914  0.5910
  117MOL   H24449196   6.500   1.536   0.404 -0.1667 -2.1677  1.5154
  117MOL   H24549197   6.422   1.136   0.308 -0.4955 -0.8474 -0.4040
  117MOL   H24649198   6.516   1.136   0.174  0.3330 -2.4902  4.0985
  117MOL   H24749199   6.217   1.182   0.213 -1.0510  1.1116 -1.1337
  117MOL   H24849200   6.277   1.264   0.079  1.5095  0.3001 -0.5465
  117MOL   H24949201   6.338   0.962   0.118  1.7857  2.0765  0.9170
  117MOL   H25049202   6.341   1.059   7.827  2.4393  1.2696  1.7127
  117MOL   H25149203   6.091   0.964   0.115  2.1492 -0.0493  0.8553
  117MOL   H25249204   6.128   0.931   7.804 -0.4229  0.2499 -0.1750
  117MOL   H25349205   6.088   1.093   7.842  2.8178  1.4201 -0.6998
  117MOL   C25449206   6.718   1.536   0.408 -0.3243 -0.0166  0.2939
  117MOL   C25549207   6.838   1.491   0.331  0.2818  0.3890  0.6465
  117MOL   C25649208   6.881   1.595   0.228  0.2734  0.0962 -0.8007
  117MOL   O25749209   6.886   1.712   0.264  0.1885  0.2836  0.4715
  117MOL   O25849210   6.926   1.547   0.121  0.3276 -0.4448 -0.0742
  117MOL   C25949211   6.998   1.640   0.044  0.8327 -0.2874 -0.5855
  117MOL   C26049212   7.063   1.562   7.780  0.1221 -0.3741 -0.3846
  117MOL   C26149213   6.967   1.469   7.689 -0.1611  0.2252 -0.7190
  117MOL   C26249214   7.043   1.377   7.592 -0.2771 -0.3364 -0.2559
  117MOL   H26349215   6.715   1.482   0.503 -0.6268  0.1076  0.3536
  117MOL   H26449216   6.726   1.638   0.444 -0.9165 -0.1145  0.7149
  117MOL   H26549217   6.810   1.398   0.280 -1.5874  2.2316 -1.7784
  117MOL   H26649218   7.070   1.697   0.102  0.5111 -0.1175 -0.3528
  117MOL   H26749219   6.925   1.715   0.012  2.2102  1.4864  0.3615
  117MOL   H26849220   7.127   1.616   7.710  1.7084 -3.8375 -1.7531
  117MOL   H26949221   7.139   1.499   7.827 -0.8043 -0.7476  0.6358
  117MOL   H27049222   6.900   1.533   7.631  0.9571  1.9584 -0.1550
  117MOL   H27149223   6.917   1.409   7.765  1.3159 -0.4926 -0.2991
  117MOL   H27249224   7.052   1.432   7.498  0.4730  1.5102  0.8801
  117MOL   H27349225   6.990   1.288   7.559 -0.6176  0.6699 -2.5786
  117MOL   H27449226   7.138   1.343   7.634 -0.0506  0.4729 -0.1146
  117MOL   C27549227   6.964   1.463   0.422  0.2419  0.4466 -0.7302
  117MOL   C27649228   7.045   1.341   0.379  0.3543  0.4073  0.1185
  117MOL   C27749229   6.965   1.208   0.361  0.1219  0.2167  0.2143
  117MOL   O27849230   6.953   1.134   0.456 -0.0659 -0.0556 -0.2926
  117MOL   O27949231   6.917   1.180   0.238  0.3578 -0.1309 -0.2754
  117MOL   C28049232   6.821   1.076   0.223 -0.0297  0.1774  0.4525
  117MOL   C28149233   6.855   1.020   0.090  0.0514  0.8540 -0.6914
  117MOL   C28249234   6.751   0.929   0.031 -0.5706  0.1769 -0.2591
  117MOL   C28349235   6.712   0.810   0.116  0.7115 -0.0499  0.0832
  117MOL   H28449236   6.938   1.443   0.526 -0.6061  0.2406 -0.9759
  117MOL   H28549237   7.034   1.547   0.425  0.1950  0.4447  0.8008
  117MOL   H28649238   7.106   1.320   0.466  1.0810 -2.5964 -1.0591
  117MOL   H28749239   6.724   1.125   0.213  0.8552  1.9503  0.3921
  117MOL   H28849240   6.806   0.999   0.299  0.5349  0.4809  0.8747
  117MOL   H28949241   6.863   1.105   0.022  0.4912 -0.7152 -2.6691
  117MOL   H29049242   6.949   0.965   0.096 -0.9927 -0.7681  1.1650
  117MOL   H29149243   6.790   0.890   7.790 -1.4346 -0.6661 -0.2745
  117MOL   H29249244   6.658   0.984   0.017 -0.8105 -0.2682 -0.4086
  117MOL   H29349245   6.616   0.771   0.081  0.3492  1.9355 -1.2239
  117MOL   H29449246   6.704   0.826   0.223  1.5892  0.5114  0.0637
  117MOL   H29549247   6.781   0.726   0.106  0.2289 -0.5911  1.1625
  117MOL   C29649248   7.142   1.365   0.267 -0.0243 -0.7825  0.1058
  117MOL   C29749249   7.276   1.290   0.279  0.4059  0.0458  0.1438
  117MOL   C29849250   7.330   1.231   0.143 -0.4796 -0.0945 -0.1048
  117MOL   O29949251   7.285   1.278   0.042  0.4165 -0.0455  0.3000
  117MOL   O30049252   7.432   1.147   0.150  0.4141 -0.2485 -0.3343
  117MOL   C30149253   7.492   1.098   0.030 -0.2943  0.2150 -0.0231
  117MOL   C30249254   7.646   1.107   0.025  0.1743  0.6182 -0.0905
  117MOL   C30349255   7.700   1.139   7.741 -0.5946 -0.5573  0.2237
  117MOL   C30449256   7.844   1.175   7.739  0.6005 -0.8736  0.4916
  117MOL   H30549257   7.159   1.472   0.261 -1.9597 -0.4250  0.5979
  117MOL   H30649258   7.100   1.356   0.167 -0.3171  0.6516  0.0934
  117MOL   H30749259   7.264   1.205   0.346 -2.3723 -0.4727 -0.9477
  117MOL   H30849260   7.443   1.138   7.794 -2.7261 -0.8657  0.7915
  117MOL   H30949261   7.471   0.992   0.019  0.2130 -0.1814  2.4250
  117MOL   H31049262   7.668   1.195   0.085  2.1364 -0.2247  0.4624
  117MOL   H31149263   7.692   1.018   0.068 -0.4540 -0.6046 -1.8753
  117MOL   H31249264   7.645   1.227   7.710 -0.7147 -0.5693  0.4020
  117MOL   H31349265   7.663   1.051   7.689 -3.6145 -0.4799  2.0827
  117MOL   H31449266   0.017   1.184   7.633 -0.5486  1.2594  0.3633
  117MOL   H31549267   0.052   1.096   7.782  2.2833  1.1037  1.8795
  117MOL   H31649268   0.013   1.269   7.790  0.4715  0.0165 -1.0510
  117MOL   C31749269   7.390   1.360   0.345 -0.3629 -0.0888  0.0762
  117MOL   C31849270   7.468   1.471   0.266 -0.1483 -0.3148 -0.7940
  117MOL   C31949271   7.386   1.607   0.274  0.1093  0.2246 -0.3115
  117MOL   O32049272   7.347   1.662   0.172 -0.1806  0.1079  0.5058
  117MOL   O32149273   7.357   1.654   0.400  0.2965 -0.2386 -0.2206
  117MOL   C32249274   7.275   1.773   0.413 -0.9709 -0.1477 -0.3917
  117MOL   C32349275   7.369   1.905   0.402  0.0760  0.3011 -0.5345
  117MOL   C32449276   7.291   2.039   0.400 -0.1449  0.4941 -0.4138
  117MOL   C32549277   7.216   2.085   0.535 -0.4691 -0.0925  0.0286
  117MOL   H32649278   7.461   1.284   0.378  0.1969  0.7299  0.7821
  117MOL   H32749279   7.355   1.399   0.441  0.6172 -1.1629  0.8814
  117MOL   H32849280   7.468   1.433   0.164  1.5832 -0.7270 -0.6559
  117MOL   H32949281   7.224   1.767   0.509 -0.7937 -0.5880 -0.3250
  117MOL   H33049282   7.199   1.780   0.336 -1.9620 -3.8018  0.1538
  117MOL   H33149283   7.444   1.912   0.481  0.6012  0.6962 -1.0611
  117MOL   H33249284   7.425   1.897   0.309  1.4119  1.2213  0.1792
  117MOL   H33349285   7.220   2.055   0.319 -0.3938  1.2833 -0.0370
  117MOL   H33449286   7.359   2.121   0.376  1.2622 -0.8631 -1.1581
  117MOL   H33549287   7.266   2.035   0.617 -2.7167  0.9195  2.0869
  117MOL   H33649288   7.113   2.049   0.544 -0.1163 -1.3868 -0.9807
  117MOL   H33749289   7.218   2.191   0.560  0.6394 -0.3201  0.9248
  117MOL   C33849290   7.607   1.484   0.337 -0.1103  0.0550 -0.7145
  117MOL   C33949291   7.702   1.594   0.274  0.9007  0.4614 -0.3247
  117MOL   C34049292   7.815   1.623   0.381 -1.2590  0.4917 -0.0722
  117MOL   O34149293   7.809   1.724   0.455  0.0740 -0.3394 -0.2473
  117MOL   O34249294   0.064   1.535   0.381 -0.2078 -0.4983 -0.0781
  117MOL   C34349295   0.172   1.546   0.467 -0.3516 -0.1453 -0.2440
  117MOL   C34449296   0.287   1.613   0.390  0.6028  0.1059 -0.2291
  117MOL   C34549297   0.378   1.531   0.310  0.3235 -0.4168 -0.5670
  117MOL   C34649298   0.499   1.612   0.272  0.0494  0.7550 -0.2522
  117MOL   H34749299   7.652   1.386   0.352 -1.7283 -0.4891  0.6801
  117MOL   H34849300   7.595   1.512   0.441 -0.4932 -0.6628 -0.5598
  117MOL   H34949301   7.637   1.677   0.249  0.7337  0.5328  0.3501
  117MOL   H35049302   0.206   1.449   0.503  0.8283 -1.1383 -3.8090
  117MOL   H35149303   0.148   1.608   0.553  0.0919 -0.6151  0.2117
  117MOL   H35249304   0.239   1.694   0.335 -1.9402 -1.2373 -0.0509
  117MOL   H35349305   0.341   1.658   0.473 -0.6909  0.0805  0.6315
  117MOL   H35449306   0.331   1.485   0.223 -1.3959  2.3433 -1.1501
  117MOL   H35549307   0.418   1.448   0.367  0.9570  0.1083 -0.2328
  117MOL   H35649308   0.550   1.658   0.356 -0.1538 -0.6394  0.6456
  117MOL   H35749309   0.479   1.700   0.211 -1.2730 -0.1062 -1.1005
  117MOL   H35849310   0.554   1.551   0.200 -0.7696  0.9612 -1.0754
  117MOL   C35949311   7.758   1.549   0.136 -0.4380 -0.7058 -0.0394
  117MOL   C36049312   0.012   1.649   0.079  0.0173 -0.3399  0.2261
  117MOL   C36149313   0.072   1.578   7.810 -0.0084  0.0411  0.0675
  117MOL   O36249314   0.011   1.574   7.704  0.4623 -0.0807  0.1844
  117MOL   O36349315   0.193   1.518   7.835  0.4744  0.0034  0.0365
  117MOL   C36449316   0.266   1.444   7.743  0.2368  0.0193 -0.1314
  117MOL   C36549317   0.371   1.531   7.677 -0.3465  0.4809  0.3529
  117MOL   C36649318   0.492   1.586   7.762 -0.1992 -0.1745  0.0999
  117MOL   C36749319   0.588   1.678   7.676 -0.2392 -0.3992  0.1026
  117MOL   H36849320   7.676   1.526   0.068 -0.9818  0.9574  0.0280
  117MOL   H36949321   7.810   1.453   0.137  0.9777  0.0234 -1.1604
  117MOL   H37049322   0.092   1.663   0.152  1.4561  0.2772 -1.4558
  117MOL   H37149323   0.204   1.411   7.659  0.3536  1.4776 -0.8022
  117MOL   H37249324   0.313   1.361   7.794 -0.6461 -1.0400 -1.0118
  117MOL   H37349325   0.415   1.475   7.595  0.4443  1.5561  0.0253
  117MOL   H37449326   0.320   1.615   7.629  2.4619  2.1725  0.1965
  117MOL   H37549327   0.553   1.511   7.813  1.9290  0.5570 -1.2978
  117MOL   H37649328   0.451   1.646   7.844  0.5556  2.4476 -1.3929
  117MOL   H37749329   0.648   1.744   7.738  1.3275 -1.8076  0.1266
  117MOL   H37849330   0.527   1.756   7.631 -0.4592 -0.1597  0.8059
  117MOL   H37949331   0.649   1.623   7.603  2.7685  2.7252  0.1428
  117MOL   C38049332   7.801   1.784   0.046  0.2047  0.4066 -0.4818
  117MOL   C38149333   0.042   1.895   0.010 -0.7757  0.1281 -0.4987
  117MOL   C38249334   7.814   2.019   7.813  0.4381 -0.3285  0.4302
  117MOL   O38349335   7.830   2.058   7.697  0.3404 -0.3774  0.9490
  117MOL   O38449336   7.739   2.076   0.049  0.5138  0.0911  0.6927
  117MOL   C38549337   7.639   2.170   0.007 -0.6491 -0.3689 -0.2296
  117MOL   C38649338   7.566   2.227   0.133  0.3765 -0.3861 -0.2871
  117MOL   C38749339   7.476   2.351   0.086 -0.4897 -0.4419  0.4695
  117MOL   C38849340   7.436   2.438   0.207  0.3869 -0.1288 -0.1099
  117MOL   H38949341   7.756   1.824   0.137  2.9718  1.3302  0.5097
  117MOL   H39049342   7.715   1.757   7.837  0.3755 -1.8999  0.2254
  117MOL   H39149343   0.101   1.862   7.777  0.2903  0.3155  0.1550
  117MOL   H39249344   7.560   2.123   7.801 -0.4707  0.9318 -1.5548
  117MOL   H39349345   7.689   2.247   7.800 -0.3051 -1.2043 -1.0258
  117MOL   H39449346   7.514   2.144   0.181 -2.3471  2.1428  1.2697
  117MOL   H39549347   7.643   2.256   0.204  1.1811  0.2430 -1.4117
  117MOL   H39649348   7.392   2.324   0.021  0.5369 -1.0792 -0.6237
  117MOL   H39749349   7.536   2.409   0.017 -2.0450 -0.0140 -0.5623
  117MOL   H39849350   7.510   2.512   0.236 -1.5848  1.6615  0.5066
  117MOL   H39949351   7.396   2.381   0.291 -0.7904  2.0848  0.8703
  117MOL   H40049352   7.347   2.493   0.177  0.2461 -0.1987  0.1837
  117MOL   C40149353   0.127   1.928   0.136  0.0669 -0.0036 -0.6394
  117MOL   C40249354   0.276   1.894   0.124 -0.3717  0.2932 -0.5649
  117MOL   C40349355   0.357   1.996   0.047  0.7497  0.1093  0.9558
  117MOL   O40449356   0.313   2.111   0.024  0.0734 -0.0461 -0.0012
  117MOL   O40549357   0.478   1.946   0.010  0.0046  0.0104 -0.2064
  117MOL   C40649358   0.571   2.024   7.786  0.1429  0.1765 -0.1515
  117MOL   C40749359   0.707   2.038   0.003 -0.0725 -0.2207  0.2655
  117MOL   C40849360   0.804   2.115   7.759  0.2463 -0.1221 -0.1773
  117MOL   C40949361   0.934   2.134   7.827 -0.5337 -0.0608 -0.6496
  117MOL   H41049362   0.086   1.886   0.227 -1.4323  2.5913 -0.0784
  117MOL   H41149363   0.120   2.035   0.154 -2.5948 -0.4223  1.0031
  117MOL   H41249364   0.291   1.793   0.086  2.6656  0.4337  0.1401
  117MOL   H41349365   0.542   2.129   7.781  3.1539  1.3840  4.5096
  117MOL   H41449366   0.588   1.983   7.686  0.7520 -0.8959  0.3793
  117MOL   H41549367   0.692   2.091   0.097 -0.8868  1.0503 -0.5652
  117MOL   H41649368   0.754   1.942   0.024 -2.8352 -1.3227  1.5538
  117MOL   H41749369   0.771   2.216   7.734 -0.7656  0.5737  3.6795
  117MOL   H41849370   0.813   2.059   7.666  0.6456  3.2580 -2.2542
  117MOL   H41949371   0.927   2.158   0.080 -0.8692 -1.5858 -0.3072
  117MOL   H42049372   0.983   2.222   7.787  1.7997 -0.9822  0.0568
  117MOL   H42149373   1.009   2.057   7.807  0.8026  1.5064 -1.7379
  117MOL   H42249374   0.322   1.893   0.223 -1.2268  1.9808 -0.1401
  118MOL     C149375   3.555   1.889   5.359  0.0634  0.4890 -0.0169
  118MOL     C249376   3.589   1.823   5.492  0.2544  0.0849 -0.5659
  118MOL     C349377   3.531   1.685   5.501 -0.3786  0.0986  0.2654
  118MOL     O449378   3.435   1.660   5.577 -0.0375 -0.4629  0.1302
  118MOL     O549379   3.607   1.595   5.423  0.4161 -0.6679 -0.3633
  118MOL     C649380   3.574   1.455   5.423  0.3856  0.1543 -0.5165
  118MOL     C749381   3.650   1.376   5.526 -0.8100 -0.1698 -0.4036
  118MOL     C849382   3.807   1.363   5.493 -0.3286 -0.5679 -0.5548
  118MOL     C949383   3.828   1.263   5.381 -0.2298 -0.4781  0.0753
  118MOL    H1049384   3.576   1.996   5.356  0.2002  0.4225 -2.9363
  118MOL    H1149385   3.621   1.844   5.285  1.2431 -0.1517  1.4082
  118MOL    H1249386   3.533   1.873   5.571  2.0339 -0.4772  1.0738
  118MOL    H1349387   3.585   1.421   5.320 -2.0542 -1.6811 -0.2087
  118MOL    H1449388   3.470   1.431   5.444  0.7959 -0.7295  0.5732
  118MOL    H1549389   3.624   1.419   5.623 -1.3681 -3.8520  1.1251
  118MOL    H1649390   3.610   1.275   5.531 -0.9504 -0.2512 -2.4638
  118MOL    H1749391   3.863   1.327   5.579  1.5853 -1.7857 -2.2533
  118MOL    H1849392   3.841   1.465   5.474 -1.3963  0.4723  2.8676
  118MOL    H1949393   3.743   1.242   5.316  0.3152  1.2050 -1.2278
  118MOL    H2049394   3.874   1.172   5.419 -1.5531 -0.7308  1.0997
  118MOL    H2149395   3.902   1.294   5.307 -0.1508 -2.3850 -0.6815
  118MOL    H2249396   3.454   1.885   5.317 -0.5945 -1.1205  1.6257
  118MOL    C2349397   3.736   1.816   5.540 -0.1333 -0.0837 -0.2893
  118MOL    C2449398   3.798   1.957   5.552  0.0894 -0.0020  0.4677
  118MOL    C2549399   3.748   2.032   5.673  0.1029 -0.3814  0.0681
  118MOL    O2649400   3.675   2.130   5.666  0.2592 -0.3413  0.0427
  118MOL    O2749401   3.774   1.960   5.788  0.1056 -0.4214  0.0116
  118MOL    C2849402   3.701   1.994   5.915  1.1320  0.1312  0.2651
  118MOL    C2949403   3.597   1.881   5.949  0.1251  0.3957 -0.1505
  118MOL    C3049404   3.466   1.879   5.861 -0.4205  0.3176 -0.4522
  118MOL    C3149405   3.377   1.766   5.900 -0.2024  0.0081 -0.0552
  118MOL    H3249406   3.807   1.765   5.475  0.4963 -0.8127  0.9509
  118MOL    H3349407   3.748   1.766   5.636 -0.7916 -0.5178 -0.4295
  118MOL    H3449408   3.762   2.010   5.464  0.6280 -0.6440 -0.1385
  118MOL    H3549409   3.645   2.087   5.914  0.2590 -0.3901  0.4751
  118MOL    H3649410   3.777   1.994   5.993 -1.1334 -0.0292  2.5167
  118MOL    H3749411   3.650   1.786   5.942 -0.2350  0.0736  1.2833
  118MOL    H3849412   3.557   1.881   6.051  0.2364 -0.1046 -0.1058
  118MOL    H3949413   3.490   1.860   5.756  1.3444 -1.4125  0.2337
  118MOL    H4049414   3.416   1.972   5.890 -0.7409  0.0911 -0.2884
  118MOL    H4149415   3.418   1.667   5.884  1.5708  0.9207 -1.2402
  118MOL    H4249416   3.302   1.763   5.821  1.2766  0.3279 -1.4884
  118MOL    H4349417   3.319   1.779   5.992  1.9100 -0.1405  1.3377
  118MOL    C4449418   3.953   1.966   5.548  0.2392  0.2750  0.0477
  118MOL    C4549419   4.013   1.973   5.404 -0.7381  0.4279 -0.5696
  118MOL    C4649420   3.975   2.101   5.331 -0.3338 -0.6693  0.0152
  118MOL    O4749421   3.918   2.190   5.390  0.1690 -0.8303  0.3873
  118MOL    O4849422   3.987   2.092   5.192 -0.1978  0.4686 -0.0257
  118MOL    C4949423   3.935   2.203   5.112  0.2636 -0.0873 -0.6587
  118MOL    C5049424   3.910   2.157   4.966 -0.1736 -0.1971  0.1403
  118MOL    C5149425   4.041   2.120   4.902 -0.2093  0.2255 -0.1315
  118MOL    C5249426   4.014   2.070   4.759 -0.4356 -0.3695  0.4516
  118MOL    H5349427   3.997   1.896   5.620  1.7896  1.6160  0.4402
  118MOL    H5449428   3.989   2.060   5.589 -1.8093  0.0908  2.3732
  118MOL    H5549429   3.984   1.893   5.335  2.9474 -1.7417  0.2507
  118MOL    H5649430   4.011   2.279   5.130 -0.0841  0.6153 -2.0829
  118MOL    H5749431   3.842   2.234   5.161  1.9171  1.7865  1.4290
  118MOL    H5849432   3.832   2.083   4.945  1.1174 -1.1388 -1.4929
  118MOL    H5949433   3.872   2.246   4.917 -1.1586 -0.4151  0.4870
  118MOL    H6049434   4.091   2.041   4.958 -0.3883  0.6362  0.6164
  118MOL    H6149435   4.103   2.209   4.903  0.6559 -0.3788  1.5062
  118MOL    H6249436   3.969   2.141   4.690  2.9226 -0.1320 -1.5526
  118MOL    H6349437   3.961   1.975   4.759  1.3359 -1.3672 -1.1787
  118MOL    H6449438   4.112   2.060   4.715 -0.7535  0.6841 -0.5182
  118MOL    C6549439   4.166   1.956   5.409  0.6383 -0.0314 -0.4715
  118MOL    C6649440   4.214   1.816   5.463 -0.7558  0.3944  0.6273
  118MOL    C6749441   4.193   1.695   5.370  0.4617 -0.2916  0.1682
  118MOL    O6849442   4.215   1.709   5.246 -1.0967  0.3059  0.1074
  118MOL    O6949443   4.162   1.582   5.429  0.1083 -0.4737 -0.4735
  118MOL    C7049444   4.131   1.460   5.345  0.2546  0.1772 -0.0659
  118MOL    C7149445   4.258   1.390   5.265 -0.0970 -0.3315 -0.3788
  118MOL    C7249446   4.240   1.254   5.207 -0.4842 -0.7205  0.4604
  118MOL    C7349447   4.359   1.195   5.122 -0.0788  0.0894 -0.2397
  118MOL    H7449448   4.211   2.042   5.458 -0.5201  0.3013  0.0325
  118MOL    H7549449   4.211   1.964   5.310  0.4911  1.7868 -0.4145
  118MOL    H7649450   4.171   1.790   5.560 -0.0793 -2.1665  0.2792
  118MOL    H7749451   4.049   1.476   5.276  0.0949  0.7824  0.2601
  118MOL    H7849452   4.111   1.381   5.418  3.8884  0.2089  1.0353
  118MOL    H7949453   4.281   1.452   5.178 -0.6607 -2.0763 -1.8088
  118MOL    H8049454   4.347   1.378   5.326 -0.9812  0.7503  1.1359
  118MOL    H8149455   4.150   1.237   5.148  0.6196  0.6384 -1.6614
  118MOL    H8249456   4.237   1.186   5.292 -3.1236 -1.0907  0.1244
  118MOL    H8349457   4.455   1.242   5.143 -0.5869  1.2621 -0.5422
  118MOL    H8449458   4.339   1.207   5.016 -1.5020  0.6394  0.0793
  118MOL    H8549459   4.363   1.087   5.139  1.0448  0.1488 -0.0936
  118MOL    C8649460   4.366   1.803   5.494  1.2781 -0.6884  1.0625
  118MOL    C8749461   4.427   1.875   5.619 -0.1584 -0.5174 -0.9058
  118MOL    C8849462   4.332   1.901   5.738 -0.5212  0.1870  0.1132
  118MOL    O8949463   4.290   2.015   5.764 -0.2187  0.1524 -0.3845
  118MOL    O9049464   4.301   1.794   5.803 -0.0933  0.0440  0.0126
  118MOL    C9149465   4.198   1.812   5.906 -0.2778  0.0035  0.3916
  118MOL    C9249466   4.145   1.682   5.954  0.0647  0.0700 -0.0318
  118MOL    C9349467   4.057   1.621   5.842 -0.1327 -0.1975  0.7511
  118MOL    C9449468   3.973   1.509   5.884  0.1075  1.3315 -0.0150
  118MOL    H9549469   4.430   1.838   5.413 -2.5099  1.6318 -1.0745
  118MOL    H9649470   4.402   1.700   5.503  0.8192 -0.7302  2.5679
  118MOL    H9749471   4.432   1.980   5.590  0.4592 -0.4841 -0.6949
  118MOL    H9849472   4.125   1.889   5.879  0.9213  0.8201 -0.5361
  118MOL    H9949473   4.245   1.866   5.988  0.0765  0.0602  0.1501
  118MOL   H10049474   4.221   1.607   5.978  0.1761 -0.0141 -0.6404
  118MOL   H10149475   4.090   1.698   6.046  3.0118  1.2664  1.6033
  118MOL   H10249476   4.113   1.576   5.760 -4.3238 -0.7356 -1.9302
  118MOL   H10349477   3.995   1.695   5.792  1.6556  0.6942 -0.2102
  118MOL   H10449478   4.033   1.423   5.911 -1.6491 -0.1838 -0.8144
  118MOL   H10549479   3.927   1.481   5.789 -2.6411  0.6034  1.4892
  118MOL   H10649480   3.894   1.527   5.957  1.4073  3.1647  1.0003
  118MOL   C10749481   4.567   1.831   5.651  0.8091  0.3142  0.4339
  118MOL   C10849482   4.662   1.929   5.728 -0.1764  0.1392 -0.3525
  118MOL   C10949483   4.800   1.870   5.753  0.0944 -0.3019 -0.5311
  118MOL   O11049484   4.851   1.800   5.666 -0.4798  0.0197 -0.3620
  118MOL   O11149485   4.852   1.899   5.869 -0.4338 -0.0806 -0.7602
  118MOL   C11249486   4.991   1.863   5.894  0.7099 -0.4880 -0.1596
  118MOL   C11349487   5.006   1.747   5.986 -0.7450 -0.3500 -0.1134
  118MOL   C11449488   4.935   1.772   6.122  0.0395  0.3847 -0.7137
  118MOL   C11549489   4.979   1.670   6.224  0.1448 -0.3454 -0.2347
  118MOL   H11649490   4.625   1.806   5.562  0.3878  1.0627 -0.0617
  118MOL   H11749491   4.553   1.738   5.705 -1.1253  0.0336 -0.4944
  118MOL   H11849492   4.618   1.946   5.826  0.7135  0.4872 -0.0094
  118MOL   H11949493   5.049   1.949   5.931 -0.8492 -0.1336  1.5284
  118MOL   H12049494   5.052   1.839   5.807 -0.0465 -1.3653 -0.4467
  118MOL   H12149495   4.969   1.658   5.935  0.5480 -0.9899  0.0368
  118MOL   H12249496   5.112   1.736   6.011 -1.0861  0.1532  1.6725
  118MOL   H12349497   4.826   1.769   6.122  0.0116  0.3170  1.6026
  118MOL   H12449498   4.969   1.871   6.155  0.6199 -0.4642  1.2967
  118MOL   H12549499   5.088   1.668   6.222  0.1586  1.5791 -1.6843
  118MOL   H12649500   4.942   1.574   6.188  2.5723 -1.8116  1.0249
  118MOL   H12749501   4.951   1.695   6.327  0.4290 -0.2861 -0.1707
  118MOL   C12849502   4.683   2.065   5.665 -0.0840  0.7677  0.5854
  118MOL   C12949503   4.693   2.184   5.765 -0.3063 -0.1078  0.5333
  118MOL   C13049504   4.762   2.303   5.697 -0.8019  0.0636 -0.3998
  118MOL   O13149505   4.866   2.351   5.745 -0.2144  0.3586  0.0707
  118MOL   O13249506   4.702   2.340   5.577  0.3003 -0.1695  0.7831
  118MOL   C13349507   4.766   2.416   5.482 -0.0552  0.4741  0.4194
  118MOL   C13449508   4.729   2.564   5.500  0.1701 -0.0484  0.0227
  118MOL   C13549509   4.826   2.649   5.416  0.6911 -0.0170 -0.0827
  118MOL   C13649510   4.962   2.677   5.494  0.3323  0.2636 -0.6982
  118MOL   H13749511   4.602   2.087   5.595  2.5269 -0.2835 -2.9450
  118MOL   H13849512   4.766   2.074   5.595 -0.0097  0.6726  0.6623
  118MOL   H13949513   4.760   2.157   5.846  1.4533 -2.6545 -1.6877
  118MOL   H14049514   4.742   2.387   5.380  0.7232 -1.8000  0.8398
  118MOL   H14149515   4.872   2.403   5.505 -0.3304 -2.1704  0.3261
  118MOL   H14249516   4.631   2.573   5.455  0.6911  2.7531 -0.6456
  118MOL   H14349517   4.721   2.604   5.601  1.2811 -0.5415  0.3153
  118MOL   H14449518   4.778   2.745   5.395  1.9502  0.6442  0.0032
  118MOL   H14549519   4.836   2.590   5.325 -0.3140  0.2563 -0.3840
  118MOL   H14649520   4.958   2.762   5.563 -2.5156 -0.1518 -0.2979
  118MOL   H14749521   5.046   2.704   5.431  0.5049  0.0120 -0.5743
  118MOL   H14849522   5.000   2.584   5.536 -2.2644 -1.6024 -2.3494
  118MOL   C14949523   4.557   2.237   5.821  0.4711  0.0820 -0.8430
  118MOL   C15049524   4.573   2.318   5.948  0.0384 -0.2121  0.6089
  118MOL   C15149525   4.593   2.465   5.911  0.0787 -0.0676 -0.2303
  118MOL   O15249526   4.520   2.526   5.834  0.2022 -0.3579 -0.0870
  118MOL   O15349527   4.705   2.513   5.964 -0.4257 -0.3540 -0.3159
  118MOL   C15449528   4.746   2.645   5.919 -0.0670 -0.3124  0.0898
  118MOL   C15549529   4.891   2.650   5.926  0.2498  0.5055  0.3704
  118MOL   C15649530   4.935   2.656   6.071  0.5430  0.4945 -0.4965
  118MOL   C15749531   5.077   2.703   6.099  0.1776  0.6135 -0.1106
  118MOL   H15849532   4.503   2.142   5.825 -1.2609  0.9884 -2.4256
  118MOL   H15949533   4.502   2.292   5.746 -1.3220  0.8925  1.0139
  118MOL   H16049534   4.657   2.288   6.010  1.0324 -0.0312 -0.6164
  118MOL   H16149535   4.717   2.727   5.985  1.4809  0.0644  0.3191
  118MOL   H16249536   4.722   2.686   5.821  1.6823 -0.7545 -0.5358
  118MOL   H16349537   4.944   2.569   5.875 -0.3246  0.8911 -0.8545
  118MOL   H16449538   4.924   2.742   5.878 -2.5227  1.5936  0.4818
  118MOL   H16549539   4.923   2.557   6.115 -2.1149  0.1658 -1.9036
  118MOL   H16649540   4.872   2.732   6.117 -1.0758 -0.6883 -0.7359
  118MOL   H16749541   5.156   2.644   6.053 -1.0993  0.9171 -2.7753
  118MOL   H16849542   5.097   2.700   6.206  0.0428 -1.6715 -0.1164
  118MOL   H16949543   5.092   2.807   6.071 -1.7906  1.0084  0.1948
  118MOL   C17049544   4.447   2.313   6.042  0.1542  0.7609  0.7179
  118MOL   C17149545   4.389   2.182   6.088 -0.3531  0.2067  0.0997
  118MOL   C17249546   4.496   2.084   6.118 -0.4592 -1.0941  0.4677
  118MOL   O17349547   4.491   1.976   6.059  0.1172 -0.3581  0.2591
  118MOL   O17449548   4.592   2.124   6.205 -0.2917  0.0103 -0.1681
  118MOL   C17549549   4.684   2.027   6.254 -0.7144  0.9789  0.4655
  118MOL   C17649550   4.720   2.042   6.399  0.6255 -0.0561 -0.3089
  118MOL   C17749551   4.833   1.944   6.427 -0.3763  0.2020 -0.1366
  118MOL   C17849552   4.859   1.918   6.576 -0.5679 -0.2141  0.5781
  118MOL   H17949553   4.367   2.370   5.995  0.4911 -0.1368 -0.9743
  118MOL   H18049554   4.466   2.367   6.135 -0.9279 -0.4317  1.6663
  118MOL   H18149555   4.337   2.151   5.997  1.3699 -2.3653 -0.0423
  118MOL   H18249556   4.778   2.040   6.200  0.1289 -2.9935  0.8094
  118MOL   H18349557   4.655   1.923   6.241  0.0486  0.7584  0.4935
  118MOL   H18449558   4.766   2.140   6.411 -0.3479  0.3232  0.4199
  118MOL   H18549559   4.635   2.037   6.466 -0.1910  2.0250 -1.1164
  118MOL   H18649560   4.927   1.971   6.379  0.5007 -0.8181  0.9669
  118MOL   H18749561   4.819   1.847   6.379 -0.1213  0.3293 -0.4716
  118MOL   H18849562   4.946   1.852   6.584 -1.6560 -1.8409 -0.6519
  118MOL   H18949563   4.775   1.867   6.625 -1.5167  0.8637  0.0737
  118MOL   H19049564   4.882   2.001   6.642  1.1048 -1.5109  1.6813
  118MOL   C19149565   4.299   2.195   6.219  0.5686 -0.1268 -0.1579
  118MOL   C19249566   4.170   2.106   6.234  0.2879  0.4686 -0.0293
  118MOL   C19349567   4.080   2.110   6.109  0.2713 -0.2711  0.2665
  118MOL   O19449568   4.021   2.008   6.065  0.0769  0.2103 -0.1080
  118MOL   O19549569   4.070   2.234   6.057  0.1918 -0.1749 -0.4746
  118MOL   C19649570   3.985   2.256   5.948 -0.0534  0.0616 -0.2564
  118MOL   C19749571   4.058   2.240   5.808  0.7734 -0.5320 -0.1531
  118MOL   C19849572   4.175   2.336   5.800  0.0843  0.4428 -0.3086
  118MOL   C19949573   4.209   2.367   5.657  0.7121  0.2986 -0.1280
  118MOL   H20049574   4.258   2.296   6.217 -2.0217 -1.1184  0.4231
  118MOL   H20149575   4.355   2.188   6.312  0.1436 -0.2511  0.0860
  118MOL   H20249576   4.128   2.152   6.324 -0.9675 -1.7935  0.5757
  118MOL   H20349577   3.939   2.354   5.960  2.9180  1.5195 -0.1875
  118MOL   H20449578   3.902   2.186   5.957 -0.4098  0.5085 -0.0229
  118MOL   H20549579   4.079   2.139   5.775  0.8332 -0.9198  1.0331
  118MOL   H20649580   3.983   2.271   5.735 -1.4409 -3.1614  0.9329
  118MOL   H20749581   4.258   2.286   5.850  0.0910  0.5443 -0.2171
  118MOL   H20849582   4.178   2.426   5.861 -2.9452 -0.0790  0.7175
  118MOL   H20949583   4.303   2.422   5.655  0.1191  1.3384  0.1515
  118MOL   H21049584   4.141   2.438   5.610  2.2370  0.5426 -2.0425
  118MOL   H21149585   4.222   2.276   5.599  1.7224 -1.9185  3.4081
  118MOL   C21249586   4.205   1.958   6.273 -0.4749  0.7958 -0.5297
  118MOL   C21349587   4.102   1.874   6.350 -0.1535  0.8380 -0.4799
  118MOL   C21449588   4.143   1.725   6.357 -0.4016 -0.2037 -0.3525
  118MOL   O21549589   4.260   1.693   6.353  0.2446  0.4469  0.1827
  118MOL   O21649590   4.048   1.634   6.377  0.0215 -0.6509 -0.1354
  118MOL   C21749591   4.067   1.494   6.373  0.6071  0.4642  0.2750
  118MOL   C21849592   3.995   1.450   6.250 -0.5666 -0.6241  0.2622
  118MOL   C21949593   3.910   1.325   6.256  0.2720  0.1556 -0.5342
  118MOL   C22049594   3.847   1.289   6.119 -0.4932  0.1197  0.5186
  118MOL   H22149595   4.303   1.960   6.322 -0.1390 -0.2236 -1.1313
  118MOL   H22249596   4.239   1.914   6.179  1.6007 -1.0723  1.0057
  118MOL   H22349597   4.009   1.861   6.294  0.8969 -4.3977 -1.3225
  118MOL   H22449598   4.017   1.449   6.459 -1.0860  1.7961  0.0170
  118MOL   H22549599   4.171   1.461   6.367  0.4759  0.2445 -0.9621
  118MOL   H22649600   3.932   1.533   6.216  0.6450  0.7218  1.2486
  118MOL   H22749601   4.077   1.440   6.179 -0.7130 -0.0873  0.0156
  118MOL   H22849602   3.826   1.333   6.325 -0.2628  1.4797 -1.3212
  118MOL   H22949603   3.977   1.245   6.288  0.0773 -0.0493 -0.6424
  118MOL   H23049604   3.917   1.256   6.042 -1.7700 -1.7339  0.1153
  118MOL   H23149605   3.777   1.370   6.099  0.1770  0.9563  1.5293
  118MOL   H23249606   3.795   1.193   6.123  0.0228 -0.1821  0.0215
  118MOL   C23349607   4.055   1.926   6.489  0.0343  0.4064 -0.5581
  118MOL   C23449608   4.175   1.937   6.592 -0.0838 -0.7463 -0.4069
  118MOL   C23549609   4.215   2.082   6.614 -0.3172  0.2370  0.4442
  118MOL   O23649610   4.134   2.176   6.618 -0.3649  0.2138  0.1764
  118MOL   O23749611   4.344   2.102   6.605 -0.1846 -0.5138  0.1836
  118MOL   C23849612   4.393   2.233   6.622 -0.2466  0.0781 -0.1497
  118MOL   C23949613   4.434   2.264   6.766 -0.5608  0.0752 -1.1413
  118MOL   C24049614   4.564   2.187   6.801 -0.5020  0.2517 -0.1253
  118MOL   C24149615   4.619   2.204   6.940 -0.2874 -0.3997  0.1678
  118MOL   H24249616   3.976   1.857   6.520 -0.1794  0.5203 -0.8496
  118MOL   H24349617   4.004   2.021   6.474 -1.0709 -0.0273  0.3542
  118MOL   H24449618   4.259   1.885   6.545  1.7185 -1.1319  3.0701
  118MOL   H24549619   4.334   2.315   6.582  2.3271  1.7702 -0.5837
  118MOL   H24649620   4.474   2.229   6.548  1.6957 -3.6143  2.0128
  118MOL   H24749621   4.437   2.373   6.774  0.4015 -0.1573  2.7459
  118MOL   H24849622   4.361   2.233   6.840  0.1614  1.6215  0.2523
  118MOL   H24949623   4.639   2.222   6.730  0.2647  1.5102  1.2661
  118MOL   H25049624   4.549   2.080   6.787  0.1711  0.1151  0.1948
  118MOL   H25149625   4.726   2.185   6.931 -0.4357 -0.2484 -2.3844
  118MOL   H25249626   4.574   2.127   7.004 -2.8391  0.3870 -0.6073
  118MOL   H25349627   4.597   2.298   6.989  1.9363 -1.5876  3.5977
  118MOL   C25449628   4.136   1.868   6.728 -0.1743 -0.0518 -0.2440
  118MOL   C25549629   4.183   1.715   6.736 -0.1426 -0.4976 -0.2550
  118MOL   C25649630   4.334   1.700   6.745 -0.1477 -0.0669  0.1015
  118MOL   O25749631   4.389   1.726   6.850 -0.1721  0.2885  0.1323
  118MOL   O25849632   4.385   1.664   6.633 -0.0147 -0.0365  0.5894
  118MOL   C25949633   4.525   1.691   6.606 -0.5314  0.3730  1.0046
  118MOL   C26049634   4.567   1.581   6.500 -0.5655  0.0233  0.6723
  118MOL   C26149635   4.708   1.524   6.529  0.0745  0.5321 -0.2376
  118MOL   C26249636   4.744   1.410   6.434 -0.6708  0.6807  0.0265
  118MOL   H26349637   4.029   1.886   6.738 -0.6965 -2.3595 -1.5370
  118MOL   H26449638   4.180   1.920   6.813  0.1096 -1.3131  0.3990
  118MOL   H26549639   4.140   1.661   6.651 -0.3104 -0.7519 -0.0099
  118MOL   H26649640   4.593   1.692   6.692 -0.8876  1.2601  1.2822
  118MOL   H26749641   4.534   1.787   6.554 -0.7830 -0.1775 -0.0587
  118MOL   H26849642   4.499   1.497   6.516 -1.2635  0.2898 -0.8142
  118MOL   H26949643   4.559   1.622   6.400 -3.8093 -1.7913  0.1003
  118MOL   H27049644   4.718   1.490   6.632  2.0294  1.4997 -0.0883
  118MOL   H27149645   4.783   1.601   6.514  0.2712  0.6161  1.1781
  118MOL   H27249646   4.841   1.364   6.454 -1.2380 -1.8359 -2.6189
  118MOL   H27349647   4.760   1.437   6.329  2.3964  0.4132  0.3735
  118MOL   H27449648   4.683   1.319   6.430  2.0722 -1.1721 -2.3425
  118MOL   C27549649   4.115   1.654   6.860 -0.1442 -0.6307 -0.0567
  118MOL   C27649650   3.958   1.628   6.858  0.2490 -0.4488  0.5705
  118MOL   C27749651   3.911   1.535   6.748 -0.9952  0.2450  0.3852
  118MOL   O27849652   3.991   1.455   6.698  0.4522  0.0340 -0.0309
  118MOL   O27949653   3.781   1.546   6.707  0.4047 -0.7798 -0.2603
  118MOL   C28049654   3.725   1.475   6.600  0.3655 -0.4042  0.2045
  118MOL   C28149655   3.617   1.569   6.533 -0.1447  0.3755  0.1764
  118MOL   C28249656   3.579   1.510   6.399 -0.4403 -0.3150 -0.0580
  118MOL   C28349657   3.509   1.610   6.308  0.3627  0.3174 -0.0496
  118MOL   H28449658   4.136   1.719   6.945  1.3918  1.3450 -1.9058
  118MOL   H28549659   4.172   1.563   6.882  0.6509 -0.7439 -2.5110
  118MOL   H28649660   3.913   1.724   6.834 -0.2653 -0.8835 -0.2038
  118MOL   H28749661   3.676   1.388   6.644  0.1980  1.5530  4.0568
  118MOL   H28849662   3.801   1.447   6.527 -0.1308  2.4652 -1.5080
  118MOL   H28949663   3.536   1.595   6.600 -0.8504  0.9826 -0.8950
  118MOL   H29049664   3.658   1.670   6.520 -1.4231  1.1095  1.7695
  118MOL   H29149665   3.501   1.437   6.421 -0.9558  0.3178  0.2306
  118MOL   H29249666   3.667   1.465   6.352 -0.1050 -1.4884  1.6033
  118MOL   H29349667   3.456   1.573   6.221  0.7738  1.7661 -0.9273
  118MOL   H29449668   3.575   1.691   6.277 -2.4016  2.4985 -0.4131
  118MOL   H29549669   3.429   1.651   6.369  0.9456  0.5815  0.5576
  118MOL   C29649670   3.905   1.588   6.998  0.2866 -0.2360 -0.1762
  118MOL   C29749671   3.906   1.695   7.112 -0.2312 -0.2909 -0.4975
  118MOL   C29849672   3.806   1.814   7.096 -0.4040 -0.2730  0.6557
  118MOL   O29949673   3.706   1.827   7.159  0.7106 -0.9479 -0.2613
  118MOL   O30049674   3.850   1.904   7.003 -0.2574  0.3422 -0.2653
  118MOL   C30149675   3.765   2.011   6.951 -0.1480 -0.0507  0.6456
  118MOL   C30249676   3.844   2.077   6.828  0.6806  0.3273  0.7224
  118MOL   C30349677   3.770   2.195   6.768 -0.0148 -0.1004  0.5403
  118MOL   C30449678   3.850   2.275   6.669 -0.0810  0.3253 -0.0699
  118MOL   H30549679   3.961   1.502   7.035 -0.3390  0.0284  1.4124
  118MOL   H30649680   3.800   1.558   6.999  0.6599 -1.5543 -0.0828
  118MOL   H30749681   3.998   1.753   7.118  0.4670 -1.6385  2.3529
  118MOL   H30849682   3.752   2.087   7.029 -0.9250 -0.8732  1.3293
  118MOL   H30949683   3.662   1.993   6.920  0.6082 -1.9794 -0.8355
  118MOL   H31049684   3.950   2.096   6.847  0.7543  1.0638 -0.4207
  118MOL   H31149685   3.848   2.000   6.752 -0.2105  1.3878 -0.4210
  118MOL   H31249686   3.740   2.262   6.848  0.8007 -1.2969  1.8786
  118MOL   H31349687   3.689   2.158   6.705  1.9963 -1.5870 -1.2404
  118MOL   H31449688   3.865   2.205   6.587  0.1436  0.1856  0.0879
  118MOL   H31549689   3.937   2.324   6.713  0.3392 -0.2360 -0.2596
  118MOL   H31649690   3.787   2.355   6.631 -0.0454  0.4101  0.0483
  118MOL   C31749691   3.883   1.623   7.255  0.1955 -0.4053 -0.0519
  118MOL   C31849692   4.006   1.554   7.309  0.9614  0.0671 -0.0501
  118MOL   C31949693   4.111   1.652   7.369 -0.0753 -0.1565 -0.0280
  118MOL   O32049694   4.084   1.766   7.405  0.3033 -0.5203 -0.6069
  118MOL   O32149695   4.234   1.595   7.382  0.5555 -0.3691  0.6797
  118MOL   C32249696   4.334   1.682   7.426  0.2501 -0.8817  0.0032
  118MOL   C32349697   4.469   1.639   7.365  0.1721  0.2574 -1.1973
  118MOL   C32449698   4.522   1.512   7.416 -0.3148 -0.3089 -0.5873
  118MOL   C32549699   4.672   1.488   7.387  0.1251 -0.3773 -0.1139
  118MOL   H32649700   3.797   1.557   7.264 -0.3415  0.3571  0.4778
  118MOL   H32749701   3.848   1.704   7.319  2.5293 -0.4412  1.3506
  118MOL   H32849702   4.065   1.519   7.224  1.8913  2.8303 -0.5838
  118MOL   H32949703   4.339   1.686   7.535 -1.6070  1.9514  0.0265
  118MOL   H33049704   4.311   1.785   7.399 -1.1859 -1.4215 -0.8776
  118MOL   H33149705   4.464   1.632   7.256 -2.1172 -2.5405 -0.9812
  118MOL   H33249706   4.541   1.717   7.388 -2.2529  2.2582 -0.0782
  118MOL   H33349707   4.463   1.427   7.380 -0.9007  0.3819 -1.2690
  118MOL   H33449708   4.505   1.527   7.522  1.6423  1.1914 -0.4620
  118MOL   H33549709   4.684   1.497   7.280 -1.6753 -2.5919 -0.5465
  118MOL   H33649710   4.704   1.395   7.435  0.4842 -1.6139 -2.6730
  118MOL   H33749711   4.719   1.568   7.444 -1.5370 -0.2249  1.0904
  118MOL   C33849712   3.978   1.429   7.406  0.1776 -0.1822 -0.6316
  118MOL   C33949713   3.968   1.468   7.561  0.8912 -0.2761 -1.1440
  118MOL   C34049714   3.855   1.571   7.590 -0.5967 -0.4369  0.1126
  118MOL   O34149715   3.885   1.683   7.637 -0.4180 -0.0295 -0.1569
  118MOL   O34249716   3.731   1.536   7.559  0.0733 -0.4897  0.5826
  118MOL   C34349717   3.631   1.632   7.551  0.6183 -0.2406  0.0931
  118MOL   C34449718   3.525   1.632   7.662 -0.4434 -0.4072  0.2213
  118MOL   C34549719   3.572   1.640   7.810 -0.0335  0.3725 -0.6995
  118MOL   C34649720   3.454   1.652   0.053  0.0184  0.1845 -0.4237
  118MOL   H34749721   4.055   1.355   7.385 -1.9108 -2.3525 -0.8469
  118MOL   H34849722   3.886   1.386   7.368 -0.7019 -0.0013  1.2773
  118MOL   H34949723   4.051   1.524   7.602  1.1507 -1.7465  0.4010
  118MOL   H35049724   3.581   1.601   7.459 -0.6353  0.2394  0.6051
  118MOL   H35149725   3.665   1.733   7.526 -3.0140  1.4105  1.3730
  118MOL   H35249726   3.478   1.730   7.649  0.5657 -0.0823 -1.1456
  118MOL   H35349727   3.447   1.562   7.633 -1.3565  1.2257 -1.3753
  118MOL   H35449728   3.628   1.733   7.824 -1.1419  1.2073 -1.6740
  118MOL   H35549729   3.630   1.551   7.832  0.4758  0.2065 -2.6695
  118MOL   H35649730   3.476   1.681   0.156 -0.3290  0.3871 -0.4044
  118MOL   H35749731   3.398   1.559   0.062  0.3989  0.1207  1.4785
  118MOL   H35849732   3.369   1.713   0.022 -0.8141  0.2043  1.8251
  118MOL   C35949733   3.963   1.342   7.649  0.2719 -0.7567  0.2117
  118MOL   C36049734   4.053   1.338   7.774 -0.2406  0.6754 -0.0357
  118MOL   C36149735   4.194   1.306   7.730  0.1832 -0.3399  0.1443
  118MOL   O36249736   4.235   1.337   7.614  0.1782  0.5773 -0.1412
  118MOL   O36349737   4.266   1.240   7.823  0.3079  0.0999  0.2592
  118MOL   C36449738   4.399   1.191   7.802  0.2331 -0.2708 -0.2195
  118MOL   C36549739   4.511   1.299   7.838 -0.0203 -0.5430 -0.1164
  118MOL   C36649740   4.647   1.236   0.004  0.3876 -0.4040 -0.3368
  118MOL   C36749741   4.757   1.326   0.072 -0.5031 -0.3366  0.0193
  118MOL   H36849742   3.991   1.258   7.586  1.8508 -0.4250  0.4459
  118MOL   H36949743   3.858   1.314   7.663  0.0260 -0.1702 -0.4048
  118MOL   H37049744   4.022   1.243   7.816 -0.7978 -0.0260 -1.9609
  118MOL   H37149745   4.410   1.160   7.698 -0.3742  1.4748 -0.8323
  118MOL   H37249746   4.410   1.102   0.011  2.4345  1.0283  1.3482
  118MOL   H37349747   4.506   1.388   7.776  0.4543 -0.0304  0.5803
  118MOL   H37449748   4.490   1.347   0.081  1.0176  1.1087 -0.6955
  118MOL   H37549749   4.681   1.193   7.762  2.9608 -1.4962  1.0184
  118MOL   H37649750   4.634   1.148   0.067  1.7076  1.4308  2.5937
  118MOL   H37749751   4.714   1.382   0.154 -1.1303  0.4182 -0.8165
  118MOL   H37849752   4.810   1.388   7.853 -0.9352 -0.4202 -0.3713
  118MOL   H37949753   4.842   1.264   0.103  0.9457  1.7382  0.2984
  118MOL   C38049754   4.046   1.455   0.022  0.7628  0.3755 -0.4801
  118MOL   C38149755   3.908   1.490   0.086 -0.1272 -1.3239 -0.0343
  118MOL   C38249756   3.849   1.370   0.152  0.3894  0.1928  0.0854
  118MOL   O38349757   3.916   1.268   0.168  0.2598  0.4113  0.4013
  118MOL   O38449758   3.712   1.377   0.160  0.3007 -0.0012  0.0609
  118MOL   C38549759   3.636   1.284   0.239 -0.3694  1.1831 -0.0171
  118MOL   C38649760   3.586   1.341   0.367 -0.2051  0.2170 -0.1584
  118MOL   C38749761   3.509   1.236   0.453  0.4540  0.2949  0.0092
  118MOL   C38849762   3.495   1.282   0.597  0.0215 -0.0818 -0.9779
  118MOL   H38949763   4.093   1.543   7.830 -0.0557 -0.0408 -2.1771
  118MOL   H39049764   4.117   1.435   0.102  0.5031 -1.1156 -0.6120
  118MOL   H39149765   3.834   1.501   0.007  0.3075 -0.4333 -0.3193
  118MOL   H39249766   3.688   1.189   0.248 -1.8086  0.3131 -0.6654
  118MOL   H39349767   3.563   1.254   0.164  2.3635  0.7688 -2.6159
  118MOL   H39449768   3.652   1.406   0.426  0.4629  1.3606 -2.1329
  118MOL   H39549769   3.510   1.412   0.335 -0.8740  0.6605  2.2519
  118MOL   H39649770   3.576   1.151   0.459 -0.3454 -0.3848 -0.6069
  118MOL   H39749771   3.419   1.200   0.405  1.1726  0.4574 -1.4973
  118MOL   H39849772   3.597   1.277   0.635 -0.4268 -1.7798  0.0418
  118MOL   H39949773   3.439   1.209   0.655 -1.3486  1.0614 -0.8441
  118MOL   H40049774   3.455   1.382   0.611 -2.9699 -1.5888  1.8302
  118MOL   C40149775   3.918   1.622   0.168 -0.0196  0.0824 -0.3264
  118MOL   C40249776   3.784   1.673   0.234 -0.1134 -0.6432  0.0068
  118MOL   C40349777   3.804   1.765   0.352 -0.6476 -0.0066 -0.4717
  118MOL   O40449778   3.765   1.745   0.467  0.9531 -0.3133  0.0244
  118MOL   O40549779   3.879   1.872   0.306 -0.3074  0.3556 -0.4879
  118MOL   C40649780   3.905   1.976   0.402  0.6344 -0.1391 -0.2588
  118MOL   C40749781   3.928   2.112   0.334  0.3990  0.3839  0.2484
  118MOL   C40849782   4.043   2.119   0.228  0.0997  0.6265  0.1010
  118MOL   C40949783   4.065   2.253   0.153  0.4463 -0.2147  0.0103
  118MOL   H41049784   3.955   1.701   0.102  2.1307 -1.1760 -0.6860
  118MOL   H41149785   3.996   1.615   0.244 -0.7511  0.1958  0.4279
  118MOL   H41249786   3.724   1.588   0.268  1.0815 -1.4246  0.2162
  118MOL   H41349787   3.987   1.949   0.468  0.2500  1.2062  0.7882
  118MOL   H41449788   3.823   1.982   0.474  1.6478 -1.0828  1.0139
  118MOL   H41549789   3.836   2.132   0.279  1.8160 -1.0011 -2.7658
  118MOL   H41649790   3.954   2.185   0.411  1.3052  1.3566 -0.9421
  118MOL   H41749791   4.021   2.041   0.155  0.0475  2.2518 -1.6402
  118MOL   H41849792   4.135   2.085   0.277  0.9697  1.9487 -0.5723
  118MOL   H41949793   4.122   2.315   0.222  1.7483 -1.3187 -0.0558
  118MOL   H42049794   3.967   2.301   0.149 -1.0965 -3.2636 -0.0677
  118MOL   H42149795   4.117   2.254   0.057  0.3280 -0.4727 -0.0554
  118MOL   H42249796   3.723   1.729   0.163  0.0462  1.4241  1.4703
   7.85311   7.85311   7.85311
