;
; Gromacs include topology (itp) file.
; For Molecular Group XYZ
; Force field scheme: opls2005
; Produced from DL_FIELD v4.11
;


[ moleculetype ]
; name    nrexcl
XYZ    3

[ atoms ]
; nr   type   resnr   residu    atom    cgnr    charge    mass
    1        CT    1  MOL      C1     1  -0.1800000   12.0115
    2        CT    1  MOL      C2     2  -0.0600000   12.0115
    3       CO4    1  MOL      C3     3   0.5100000   12.0115
    4         O    1  MOL      O4     4  -0.4300000   15.9994
    5       OES    1  MOL      O5     5  -0.3300000   15.9994
    6        CT    1  MOL      C6     6   0.1900000   12.0115
    7        CT    1  MOL      C7     7  -0.1200000   12.0115
    8        CT    1  MOL      C8     8  -0.1200000   12.0115
    9        CT    1  MOL      C9     9  -0.1800000   12.0115
   10        HC    1  MOL     H10    10   0.0600000    1.0080
   11        HC    1  MOL     H11    11   0.0600000    1.0080
   12       HAE    1  MOL     H12    12   0.0600000    1.0080
   13       HAE    1  MOL     H13    13   0.0300000    1.0080
   14       HAE    1  MOL     H14    14   0.0300000    1.0080
   15        HC    1  MOL     H15    15   0.0600000    1.0080
   16        HC    1  MOL     H16    16   0.0600000    1.0080
   17        HC    1  MOL     H17    17   0.0600000    1.0080
   18        HC    1  MOL     H18    18   0.0600000    1.0080
   19        HC    1  MOL     H19    19   0.0600000    1.0080
   20        HC    1  MOL     H20    20   0.0600000    1.0080
   21        HC    1  MOL     H21    21   0.0600000    1.0080
   22        HC    1  MOL     H22    22   0.0600000    1.0080
   23        CT    1  MOL     C23    23  -0.1200000   12.0115
   24        CT    1  MOL     C24    24  -0.0600000   12.0115
   25       CO4    1  MOL     C25    25   0.5100000   12.0115
   26         O    1  MOL     O26    26  -0.4300000   15.9994
   27       OES    1  MOL     O27    27  -0.3300000   15.9994
   28        CT    1  MOL     C28    28   0.1900000   12.0115
   29        CT    1  MOL     C29    29  -0.1200000   12.0115
   30        CT    1  MOL     C30    30  -0.1200000   12.0115
   31        CT    1  MOL     C31    31  -0.1800000   12.0115
   32        HC    1  MOL     H32    32   0.0600000    1.0080
   33        HC    1  MOL     H33    33   0.0600000    1.0080
   34       HAE    1  MOL     H34    34   0.0600000    1.0080
   35       HAE    1  MOL     H35    35   0.0300000    1.0080
   36       HAE    1  MOL     H36    36   0.0300000    1.0080
   37        HC    1  MOL     H37    37   0.0600000    1.0080
   38        HC    1  MOL     H38    38   0.0600000    1.0080
   39        HC    1  MOL     H39    39   0.0600000    1.0080
   40        HC    1  MOL     H40    40   0.0600000    1.0080
   41        HC    1  MOL     H41    41   0.0600000    1.0080
   42        HC    1  MOL     H42    42   0.0600000    1.0080
   43        HC    1  MOL     H43    43   0.0600000    1.0080
   44        CT    1  MOL     C44    44  -0.1200000   12.0115
   45        CT    1  MOL     C45    45  -0.0600000   12.0115
   46       CO4    1  MOL     C46    46   0.5100000   12.0115
   47         O    1  MOL     O47    47  -0.4300000   15.9994
   48       OES    1  MOL     O48    48  -0.3300000   15.9994
   49        CT    1  MOL     C49    49   0.1900000   12.0115
   50        CT    1  MOL     C50    50  -0.1200000   12.0115
   51        CT    1  MOL     C51    51  -0.1200000   12.0115
   52        CT    1  MOL     C52    52  -0.1800000   12.0115
   53        HC    1  MOL     H53    53   0.0600000    1.0080
   54        HC    1  MOL     H54    54   0.0600000    1.0080
   55       HAE    1  MOL     H55    55   0.0600000    1.0080
   56       HAE    1  MOL     H56    56   0.0300000    1.0080
   57       HAE    1  MOL     H57    57   0.0300000    1.0080
   58        HC    1  MOL     H58    58   0.0600000    1.0080
   59        HC    1  MOL     H59    59   0.0600000    1.0080
   60        HC    1  MOL     H60    60   0.0600000    1.0080
   61        HC    1  MOL     H61    61   0.0600000    1.0080
   62        HC    1  MOL     H62    62   0.0600000    1.0080
   63        HC    1  MOL     H63    63   0.0600000    1.0080
   64        HC    1  MOL     H64    64   0.0600000    1.0080
   65        CT    1  MOL     C65    65  -0.1200000   12.0115
   66        CT    1  MOL     C66    66  -0.0600000   12.0115
   67       CO4    1  MOL     C67    67   0.5100000   12.0115
   68         O    1  MOL     O68    68  -0.4300000   15.9994
   69       OES    1  MOL     O69    69  -0.3300000   15.9994
   70        CT    1  MOL     C70    70   0.1900000   12.0115
   71        CT    1  MOL     C71    71  -0.1200000   12.0115
   72        CT    1  MOL     C72    72  -0.1200000   12.0115
   73        CT    1  MOL     C73    73  -0.1800000   12.0115
   74        HC    1  MOL     H74    74   0.0600000    1.0080
   75        HC    1  MOL     H75    75   0.0600000    1.0080
   76       HAE    1  MOL     H76    76   0.0600000    1.0080
   77       HAE    1  MOL     H77    77   0.0300000    1.0080
   78       HAE    1  MOL     H78    78   0.0300000    1.0080
   79        HC    1  MOL     H79    79   0.0600000    1.0080
   80        HC    1  MOL     H80    80   0.0600000    1.0080
   81        HC    1  MOL     H81    81   0.0600000    1.0080
   82        HC    1  MOL     H82    82   0.0600000    1.0080
   83        HC    1  MOL     H83    83   0.0600000    1.0080
   84        HC    1  MOL     H84    84   0.0600000    1.0080
   85        HC    1  MOL     H85    85   0.0600000    1.0080
   86        CT    1  MOL     C86    86  -0.1200000   12.0115
   87        CT    1  MOL     C87    87  -0.0600000   12.0115
   88       CO4    1  MOL     C88    88   0.5100000   12.0115
   89         O    1  MOL     O89    89  -0.4300000   15.9994
   90       OES    1  MOL     O90    90  -0.3300000   15.9994
   91        CT    1  MOL     C91    91   0.1900000   12.0115
   92        CT    1  MOL     C92    92  -0.1200000   12.0115
   93        CT    1  MOL     C93    93  -0.1200000   12.0115
   94        CT    1  MOL     C94    94  -0.1800000   12.0115
   95        HC    1  MOL     H95    95   0.0600000    1.0080
   96        HC    1  MOL     H96    96   0.0600000    1.0080
   97       HAE    1  MOL     H97    97   0.0600000    1.0080
   98       HAE    1  MOL     H98    98   0.0300000    1.0080
   99       HAE    1  MOL     H99    99   0.0300000    1.0080
  100        HC    1  MOL    H100   100   0.0600000    1.0080
  101        HC    1  MOL    H101   101   0.0600000    1.0080
  102        HC    1  MOL    H102   102   0.0600000    1.0080
  103        HC    1  MOL    H103   103   0.0600000    1.0080
  104        HC    1  MOL    H104   104   0.0600000    1.0080
  105        HC    1  MOL    H105   105   0.0600000    1.0080
  106        HC    1  MOL    H106   106   0.0600000    1.0080
  107        CT    1  MOL    C107   107  -0.1200000   12.0115
  108        CT    1  MOL    C108   108  -0.0600000   12.0115
  109       CO4    1  MOL    C109   109   0.5100000   12.0115
  110         O    1  MOL    O110   110  -0.4300000   15.9994
  111       OES    1  MOL    O111   111  -0.3300000   15.9994
  112        CT    1  MOL    C112   112   0.1900000   12.0115
  113        CT    1  MOL    C113   113  -0.1200000   12.0115
  114        CT    1  MOL    C114   114  -0.1200000   12.0115
  115        CT    1  MOL    C115   115  -0.1800000   12.0115
  116        HC    1  MOL    H116   116   0.0600000    1.0080
  117        HC    1  MOL    H117   117   0.0600000    1.0080
  118       HAE    1  MOL    H118   118   0.0600000    1.0080
  119       HAE    1  MOL    H119   119   0.0300000    1.0080
  120       HAE    1  MOL    H120   120   0.0300000    1.0080
  121        HC    1  MOL    H121   121   0.0600000    1.0080
  122        HC    1  MOL    H122   122   0.0600000    1.0080
  123        HC    1  MOL    H123   123   0.0600000    1.0080
  124        HC    1  MOL    H124   124   0.0600000    1.0080
  125        HC    1  MOL    H125   125   0.0600000    1.0080
  126        HC    1  MOL    H126   126   0.0600000    1.0080
  127        HC    1  MOL    H127   127   0.0600000    1.0080
  128        CT    1  MOL    C128   128  -0.1200000   12.0115
  129        CT    1  MOL    C129   129  -0.0600000   12.0115
  130       CO4    1  MOL    C130   130   0.5100000   12.0115
  131         O    1  MOL    O131   131  -0.4300000   15.9994
  132       OES    1  MOL    O132   132  -0.3300000   15.9994
  133        CT    1  MOL    C133   133   0.1900000   12.0115
  134        CT    1  MOL    C134   134  -0.1200000   12.0115
  135        CT    1  MOL    C135   135  -0.1200000   12.0115
  136        CT    1  MOL    C136   136  -0.1800000   12.0115
  137        HC    1  MOL    H137   137   0.0600000    1.0080
  138        HC    1  MOL    H138   138   0.0600000    1.0080
  139       HAE    1  MOL    H139   139   0.0600000    1.0080
  140       HAE    1  MOL    H140   140   0.0300000    1.0080
  141       HAE    1  MOL    H141   141   0.0300000    1.0080
  142        HC    1  MOL    H142   142   0.0600000    1.0080
  143        HC    1  MOL    H143   143   0.0600000    1.0080
  144        HC    1  MOL    H144   144   0.0600000    1.0080
  145        HC    1  MOL    H145   145   0.0600000    1.0080
  146        HC    1  MOL    H146   146   0.0600000    1.0080
  147        HC    1  MOL    H147   147   0.0600000    1.0080
  148        HC    1  MOL    H148   148   0.0600000    1.0080
  149        CT    1  MOL    C149   149  -0.1200000   12.0115
  150        CT    1  MOL    C150   150  -0.0600000   12.0115
  151       CO4    1  MOL    C151   151   0.5100000   12.0115
  152         O    1  MOL    O152   152  -0.4300000   15.9994
  153       OES    1  MOL    O153   153  -0.3300000   15.9994
  154        CT    1  MOL    C154   154   0.1900000   12.0115
  155        CT    1  MOL    C155   155  -0.1200000   12.0115
  156        CT    1  MOL    C156   156  -0.1200000   12.0115
  157        CT    1  MOL    C157   157  -0.1800000   12.0115
  158        HC    1  MOL    H158   158   0.0600000    1.0080
  159        HC    1  MOL    H159   159   0.0600000    1.0080
  160       HAE    1  MOL    H160   160   0.0600000    1.0080
  161       HAE    1  MOL    H161   161   0.0300000    1.0080
  162       HAE    1  MOL    H162   162   0.0300000    1.0080
  163        HC    1  MOL    H163   163   0.0600000    1.0080
  164        HC    1  MOL    H164   164   0.0600000    1.0080
  165        HC    1  MOL    H165   165   0.0600000    1.0080
  166        HC    1  MOL    H166   166   0.0600000    1.0080
  167        HC    1  MOL    H167   167   0.0600000    1.0080
  168        HC    1  MOL    H168   168   0.0600000    1.0080
  169        HC    1  MOL    H169   169   0.0600000    1.0080
  170        CT    1  MOL    C170   170  -0.1200000   12.0115
  171        CT    1  MOL    C171   171  -0.0600000   12.0115
  172       CO4    1  MOL    C172   172   0.5100000   12.0115
  173         O    1  MOL    O173   173  -0.4300000   15.9994
  174       OES    1  MOL    O174   174  -0.3300000   15.9994
  175        CT    1  MOL    C175   175   0.1900000   12.0115
  176        CT    1  MOL    C176   176  -0.1200000   12.0115
  177        CT    1  MOL    C177   177  -0.1200000   12.0115
  178        CT    1  MOL    C178   178  -0.1800000   12.0115
  179        HC    1  MOL    H179   179   0.0600000    1.0080
  180        HC    1  MOL    H180   180   0.0600000    1.0080
  181       HAE    1  MOL    H181   181   0.0600000    1.0080
  182       HAE    1  MOL    H182   182   0.0300000    1.0080
  183       HAE    1  MOL    H183   183   0.0300000    1.0080
  184        HC    1  MOL    H184   184   0.0600000    1.0080
  185        HC    1  MOL    H185   185   0.0600000    1.0080
  186        HC    1  MOL    H186   186   0.0600000    1.0080
  187        HC    1  MOL    H187   187   0.0600000    1.0080
  188        HC    1  MOL    H188   188   0.0600000    1.0080
  189        HC    1  MOL    H189   189   0.0600000    1.0080
  190        HC    1  MOL    H190   190   0.0600000    1.0080
  191        CT    1  MOL    C191   191  -0.1200000   12.0115
  192        CT    1  MOL    C192   192  -0.0600000   12.0115
  193       CO4    1  MOL    C193   193   0.5100000   12.0115
  194         O    1  MOL    O194   194  -0.4300000   15.9994
  195       OES    1  MOL    O195   195  -0.3300000   15.9994
  196        CT    1  MOL    C196   196   0.1900000   12.0115
  197        CT    1  MOL    C197   197  -0.1200000   12.0115
  198        CT    1  MOL    C198   198  -0.1200000   12.0115
  199        CT    1  MOL    C199   199  -0.1800000   12.0115
  200        HC    1  MOL    H200   200   0.0600000    1.0080
  201        HC    1  MOL    H201   201   0.0600000    1.0080
  202       HAE    1  MOL    H202   202   0.0600000    1.0080
  203       HAE    1  MOL    H203   203   0.0300000    1.0080
  204       HAE    1  MOL    H204   204   0.0300000    1.0080
  205        HC    1  MOL    H205   205   0.0600000    1.0080
  206        HC    1  MOL    H206   206   0.0600000    1.0080
  207        HC    1  MOL    H207   207   0.0600000    1.0080
  208        HC    1  MOL    H208   208   0.0600000    1.0080
  209        HC    1  MOL    H209   209   0.0600000    1.0080
  210        HC    1  MOL    H210   210   0.0600000    1.0080
  211        HC    1  MOL    H211   211   0.0600000    1.0080
  212        CT    1  MOL    C212   212  -0.1200000   12.0115
  213        CT    1  MOL    C213   213  -0.0600000   12.0115
  214       CO4    1  MOL    C214   214   0.5100000   12.0115
  215         O    1  MOL    O215   215  -0.4300000   15.9994
  216       OES    1  MOL    O216   216  -0.3300000   15.9994
  217        CT    1  MOL    C217   217   0.1900000   12.0115
  218        CT    1  MOL    C218   218  -0.1200000   12.0115
  219        CT    1  MOL    C219   219  -0.1200000   12.0115
  220        CT    1  MOL    C220   220  -0.1800000   12.0115
  221        HC    1  MOL    H221   221   0.0600000    1.0080
  222        HC    1  MOL    H222   222   0.0600000    1.0080
  223       HAE    1  MOL    H223   223   0.0600000    1.0080
  224       HAE    1  MOL    H224   224   0.0300000    1.0080
  225       HAE    1  MOL    H225   225   0.0300000    1.0080
  226        HC    1  MOL    H226   226   0.0600000    1.0080
  227        HC    1  MOL    H227   227   0.0600000    1.0080
  228        HC    1  MOL    H228   228   0.0600000    1.0080
  229        HC    1  MOL    H229   229   0.0600000    1.0080
  230        HC    1  MOL    H230   230   0.0600000    1.0080
  231        HC    1  MOL    H231   231   0.0600000    1.0080
  232        HC    1  MOL    H232   232   0.0600000    1.0080
  233        CT    1  MOL    C233   233  -0.1200000   12.0115
  234        CT    1  MOL    C234   234  -0.0600000   12.0115
  235       CO4    1  MOL    C235   235   0.5100000   12.0115
  236         O    1  MOL    O236   236  -0.4300000   15.9994
  237       OES    1  MOL    O237   237  -0.3300000   15.9994
  238        CT    1  MOL    C238   238   0.1900000   12.0115
  239        CT    1  MOL    C239   239  -0.1200000   12.0115
  240        CT    1  MOL    C240   240  -0.1200000   12.0115
  241        CT    1  MOL    C241   241  -0.1800000   12.0115
  242        HC    1  MOL    H242   242   0.0600000    1.0080
  243        HC    1  MOL    H243   243   0.0600000    1.0080
  244       HAE    1  MOL    H244   244   0.0600000    1.0080
  245       HAE    1  MOL    H245   245   0.0300000    1.0080
  246       HAE    1  MOL    H246   246   0.0300000    1.0080
  247        HC    1  MOL    H247   247   0.0600000    1.0080
  248        HC    1  MOL    H248   248   0.0600000    1.0080
  249        HC    1  MOL    H249   249   0.0600000    1.0080
  250        HC    1  MOL    H250   250   0.0600000    1.0080
  251        HC    1  MOL    H251   251   0.0600000    1.0080
  252        HC    1  MOL    H252   252   0.0600000    1.0080
  253        HC    1  MOL    H253   253   0.0600000    1.0080
  254        CT    1  MOL    C254   254  -0.1200000   12.0115
  255        CT    1  MOL    C255   255  -0.0600000   12.0115
  256       CO4    1  MOL    C256   256   0.5100000   12.0115
  257         O    1  MOL    O257   257  -0.4300000   15.9994
  258       OES    1  MOL    O258   258  -0.3300000   15.9994
  259        CT    1  MOL    C259   259   0.1900000   12.0115
  260        CT    1  MOL    C260   260  -0.1200000   12.0115
  261        CT    1  MOL    C261   261  -0.1200000   12.0115
  262        CT    1  MOL    C262   262  -0.1800000   12.0115
  263        HC    1  MOL    H263   263   0.0600000    1.0080
  264        HC    1  MOL    H264   264   0.0600000    1.0080
  265       HAE    1  MOL    H265   265   0.0600000    1.0080
  266       HAE    1  MOL    H266   266   0.0300000    1.0080
  267       HAE    1  MOL    H267   267   0.0300000    1.0080
  268        HC    1  MOL    H268   268   0.0600000    1.0080
  269        HC    1  MOL    H269   269   0.0600000    1.0080
  270        HC    1  MOL    H270   270   0.0600000    1.0080
  271        HC    1  MOL    H271   271   0.0600000    1.0080
  272        HC    1  MOL    H272   272   0.0600000    1.0080
  273        HC    1  MOL    H273   273   0.0600000    1.0080
  274        HC    1  MOL    H274   274   0.0600000    1.0080
  275        CT    1  MOL    C275   275  -0.1200000   12.0115
  276        CT    1  MOL    C276   276  -0.0600000   12.0115
  277       CO4    1  MOL    C277   277   0.5100000   12.0115
  278         O    1  MOL    O278   278  -0.4300000   15.9994
  279       OES    1  MOL    O279   279  -0.3300000   15.9994
  280        CT    1  MOL    C280   280   0.1900000   12.0115
  281        CT    1  MOL    C281   281  -0.1200000   12.0115
  282        CT    1  MOL    C282   282  -0.1200000   12.0115
  283        CT    1  MOL    C283   283  -0.1800000   12.0115
  284        HC    1  MOL    H284   284   0.0600000    1.0080
  285        HC    1  MOL    H285   285   0.0600000    1.0080
  286       HAE    1  MOL    H286   286   0.0600000    1.0080
  287       HAE    1  MOL    H287   287   0.0300000    1.0080
  288       HAE    1  MOL    H288   288   0.0300000    1.0080
  289        HC    1  MOL    H289   289   0.0600000    1.0080
  290        HC    1  MOL    H290   290   0.0600000    1.0080
  291        HC    1  MOL    H291   291   0.0600000    1.0080
  292        HC    1  MOL    H292   292   0.0600000    1.0080
  293        HC    1  MOL    H293   293   0.0600000    1.0080
  294        HC    1  MOL    H294   294   0.0600000    1.0080
  295        HC    1  MOL    H295   295   0.0600000    1.0080
  296        CT    1  MOL    C296   296  -0.1200000   12.0115
  297        CT    1  MOL    C297   297  -0.0600000   12.0115
  298       CO4    1  MOL    C298   298   0.5100000   12.0115
  299         O    1  MOL    O299   299  -0.4300000   15.9994
  300       OES    1  MOL    O300   300  -0.3300000   15.9994
  301        CT    1  MOL    C301   301   0.1900000   12.0115
  302        CT    1  MOL    C302   302  -0.1200000   12.0115
  303        CT    1  MOL    C303   303  -0.1200000   12.0115
  304        CT    1  MOL    C304   304  -0.1800000   12.0115
  305        HC    1  MOL    H305   305   0.0600000    1.0080
  306        HC    1  MOL    H306   306   0.0600000    1.0080
  307       HAE    1  MOL    H307   307   0.0600000    1.0080
  308       HAE    1  MOL    H308   308   0.0300000    1.0080
  309       HAE    1  MOL    H309   309   0.0300000    1.0080
  310        HC    1  MOL    H310   310   0.0600000    1.0080
  311        HC    1  MOL    H311   311   0.0600000    1.0080
  312        HC    1  MOL    H312   312   0.0600000    1.0080
  313        HC    1  MOL    H313   313   0.0600000    1.0080
  314        HC    1  MOL    H314   314   0.0600000    1.0080
  315        HC    1  MOL    H315   315   0.0600000    1.0080
  316        HC    1  MOL    H316   316   0.0600000    1.0080
  317        CT    1  MOL    C317   317  -0.1200000   12.0115
  318        CT    1  MOL    C318   318  -0.0600000   12.0115
  319       CO4    1  MOL    C319   319   0.5100000   12.0115
  320         O    1  MOL    O320   320  -0.4300000   15.9994
  321       OES    1  MOL    O321   321  -0.3300000   15.9994
  322        CT    1  MOL    C322   322   0.1900000   12.0115
  323        CT    1  MOL    C323   323  -0.1200000   12.0115
  324        CT    1  MOL    C324   324  -0.1200000   12.0115
  325        CT    1  MOL    C325   325  -0.1800000   12.0115
  326        HC    1  MOL    H326   326   0.0600000    1.0080
  327        HC    1  MOL    H327   327   0.0600000    1.0080
  328       HAE    1  MOL    H328   328   0.0600000    1.0080
  329       HAE    1  MOL    H329   329   0.0300000    1.0080
  330       HAE    1  MOL    H330   330   0.0300000    1.0080
  331        HC    1  MOL    H331   331   0.0600000    1.0080
  332        HC    1  MOL    H332   332   0.0600000    1.0080
  333        HC    1  MOL    H333   333   0.0600000    1.0080
  334        HC    1  MOL    H334   334   0.0600000    1.0080
  335        HC    1  MOL    H335   335   0.0600000    1.0080
  336        HC    1  MOL    H336   336   0.0600000    1.0080
  337        HC    1  MOL    H337   337   0.0600000    1.0080
  338        CT    1  MOL    C338   338  -0.1200000   12.0115
  339        CT    1  MOL    C339   339  -0.0600000   12.0115
  340       CO4    1  MOL    C340   340   0.5100000   12.0115
  341         O    1  MOL    O341   341  -0.4300000   15.9994
  342       OES    1  MOL    O342   342  -0.3300000   15.9994
  343        CT    1  MOL    C343   343   0.1900000   12.0115
  344        CT    1  MOL    C344   344  -0.1200000   12.0115
  345        CT    1  MOL    C345   345  -0.1200000   12.0115
  346        CT    1  MOL    C346   346  -0.1800000   12.0115
  347        HC    1  MOL    H347   347   0.0600000    1.0080
  348        HC    1  MOL    H348   348   0.0600000    1.0080
  349       HAE    1  MOL    H349   349   0.0600000    1.0080
  350       HAE    1  MOL    H350   350   0.0300000    1.0080
  351       HAE    1  MOL    H351   351   0.0300000    1.0080
  352        HC    1  MOL    H352   352   0.0600000    1.0080
  353        HC    1  MOL    H353   353   0.0600000    1.0080
  354        HC    1  MOL    H354   354   0.0600000    1.0080
  355        HC    1  MOL    H355   355   0.0600000    1.0080
  356        HC    1  MOL    H356   356   0.0600000    1.0080
  357        HC    1  MOL    H357   357   0.0600000    1.0080
  358        HC    1  MOL    H358   358   0.0600000    1.0080
  359        CT    1  MOL    C359   359  -0.1200000   12.0115
  360        CT    1  MOL    C360   360  -0.0600000   12.0115
  361       CO4    1  MOL    C361   361   0.5100000   12.0115
  362         O    1  MOL    O362   362  -0.4300000   15.9994
  363       OES    1  MOL    O363   363  -0.3300000   15.9994
  364        CT    1  MOL    C364   364   0.1900000   12.0115
  365        CT    1  MOL    C365   365  -0.1200000   12.0115
  366        CT    1  MOL    C366   366  -0.1200000   12.0115
  367        CT    1  MOL    C367   367  -0.1800000   12.0115
  368        HC    1  MOL    H368   368   0.0600000    1.0080
  369        HC    1  MOL    H369   369   0.0600000    1.0080
  370       HAE    1  MOL    H370   370   0.0600000    1.0080
  371       HAE    1  MOL    H371   371   0.0300000    1.0080
  372       HAE    1  MOL    H372   372   0.0300000    1.0080
  373        HC    1  MOL    H373   373   0.0600000    1.0080
  374        HC    1  MOL    H374   374   0.0600000    1.0080
  375        HC    1  MOL    H375   375   0.0600000    1.0080
  376        HC    1  MOL    H376   376   0.0600000    1.0080
  377        HC    1  MOL    H377   377   0.0600000    1.0080
  378        HC    1  MOL    H378   378   0.0600000    1.0080
  379        HC    1  MOL    H379   379   0.0600000    1.0080
  380        CT    1  MOL    C380   380  -0.1200000   12.0115
  381        CT    1  MOL    C381   381  -0.0600000   12.0115
  382       CO4    1  MOL    C382   382   0.5100000   12.0115
  383         O    1  MOL    O383   383  -0.4300000   15.9994
  384       OES    1  MOL    O384   384  -0.3300000   15.9994
  385        CT    1  MOL    C385   385   0.1900000   12.0115
  386        CT    1  MOL    C386   386  -0.1200000   12.0115
  387        CT    1  MOL    C387   387  -0.1200000   12.0115
  388        CT    1  MOL    C388   388  -0.1800000   12.0115
  389        HC    1  MOL    H389   389   0.0600000    1.0080
  390        HC    1  MOL    H390   390   0.0600000    1.0080
  391       HAE    1  MOL    H391   391   0.0600000    1.0080
  392       HAE    1  MOL    H392   392   0.0300000    1.0080
  393       HAE    1  MOL    H393   393   0.0300000    1.0080
  394        HC    1  MOL    H394   394   0.0600000    1.0080
  395        HC    1  MOL    H395   395   0.0600000    1.0080
  396        HC    1  MOL    H396   396   0.0600000    1.0080
  397        HC    1  MOL    H397   397   0.0600000    1.0080
  398        HC    1  MOL    H398   398   0.0600000    1.0080
  399        HC    1  MOL    H399   399   0.0600000    1.0080
  400        HC    1  MOL    H400   400   0.0600000    1.0080
  401        CT    1  MOL    C401   401  -0.1200000   12.0115
  402        CT    1  MOL    C402   402  -0.1200000   12.0115
  403       CO4    1  MOL    C403   403   0.5100000   12.0115
  404         O    1  MOL    O404   404  -0.4300000   15.9994
  405       OES    1  MOL    O405   405  -0.3300000   15.9994
  406        CT    1  MOL    C406   406   0.1900000   12.0115
  407        CT    1  MOL    C407   407  -0.1200000   12.0115
  408        CT    1  MOL    C408   408  -0.1200000   12.0115
  409        CT    1  MOL    C409   409  -0.1800000   12.0115
  410        HC    1  MOL    H410   410   0.0600000    1.0080
  411        HC    1  MOL    H411   411   0.0600000    1.0080
  412       HAE    1  MOL    H412   412   0.0600000    1.0080
  413       HAE    1  MOL    H413   413   0.0300000    1.0080
  414       HAE    1  MOL    H414   414   0.0300000    1.0080
  415        HC    1  MOL    H415   415   0.0600000    1.0080
  416        HC    1  MOL    H416   416   0.0600000    1.0080
  417        HC    1  MOL    H417   417   0.0600000    1.0080
  418        HC    1  MOL    H418   418   0.0600000    1.0080
  419        HC    1  MOL    H419   419   0.0600000    1.0080
  420        HC    1  MOL    H420   420   0.0600000    1.0080
  421        HC    1  MOL    H421   421   0.0600000    1.0080
  422       HAE    1  MOL    H422   422   0.0600000    1.0080

[ bonds ]
      1      2   1      0.1529 224262.4000
      1     10   1      0.1090 284512.0000
      1     11   1      0.1090 284512.0000
      1     22   1      0.1090 284512.0000
      2      3   1      0.1522 265265.6000
      2     12   1      0.1090 284512.0000
      2     23   1      0.1529 224262.4000
      3      4   1      0.1229 476976.0000
      3      5   1      0.1327 179075.2000
      5      6   1      0.1410 267776.0000
      6      7   1      0.1529 224262.4000
      6     13   1      0.1090 284512.0000
      6     14   1      0.1090 284512.0000
      7      8   1      0.1529 224262.4000
      7     15   1      0.1090 284512.0000
      7     16   1      0.1090 284512.0000
      8      9   1      0.1529 224262.4000
      8     17   1      0.1090 284512.0000
      8     18   1      0.1090 284512.0000
      9     19   1      0.1090 284512.0000
      9     20   1      0.1090 284512.0000
      9     21   1      0.1090 284512.0000
     23     24   1      0.1529 224262.4000
     23     32   1      0.1090 284512.0000
     23     33   1      0.1090 284512.0000
     24     25   1      0.1522 265265.6000
     24     34   1      0.1090 284512.0000
     24     44   1      0.1529 224262.4000
     25     26   1      0.1229 476976.0000
     25     27   1      0.1327 179075.2000
     27     28   1      0.1410 267776.0000
     28     29   1      0.1529 224262.4000
     28     35   1      0.1090 284512.0000
     28     36   1      0.1090 284512.0000
     29     30   1      0.1529 224262.4000
     29     37   1      0.1090 284512.0000
     29     38   1      0.1090 284512.0000
     30     31   1      0.1529 224262.4000
     30     39   1      0.1090 284512.0000
     30     40   1      0.1090 284512.0000
     31     41   1      0.1090 284512.0000
     31     42   1      0.1090 284512.0000
     31     43   1      0.1090 284512.0000
     44     45   1      0.1529 224262.4000
     44     53   1      0.1090 284512.0000
     44     54   1      0.1090 284512.0000
     45     46   1      0.1522 265265.6000
     45     55   1      0.1090 284512.0000
     45     65   1      0.1529 224262.4000
     46     47   1      0.1229 476976.0000
     46     48   1      0.1327 179075.2000
     48     49   1      0.1410 267776.0000
     49     50   1      0.1529 224262.4000
     49     56   1      0.1090 284512.0000
     49     57   1      0.1090 284512.0000
     50     51   1      0.1529 224262.4000
     50     58   1      0.1090 284512.0000
     50     59   1      0.1090 284512.0000
     51     52   1      0.1529 224262.4000
     51     60   1      0.1090 284512.0000
     51     61   1      0.1090 284512.0000
     52     62   1      0.1090 284512.0000
     52     63   1      0.1090 284512.0000
     52     64   1      0.1090 284512.0000
     65     66   1      0.1529 224262.4000
     65     74   1      0.1090 284512.0000
     65     75   1      0.1090 284512.0000
     66     67   1      0.1522 265265.6000
     66     76   1      0.1090 284512.0000
     66     86   1      0.1529 224262.4000
     67     68   1      0.1229 476976.0000
     67     69   1      0.1327 179075.2000
     69     70   1      0.1410 267776.0000
     70     71   1      0.1529 224262.4000
     70     77   1      0.1090 284512.0000
     70     78   1      0.1090 284512.0000
     71     72   1      0.1529 224262.4000
     71     79   1      0.1090 284512.0000
     71     80   1      0.1090 284512.0000
     72     73   1      0.1529 224262.4000
     72     81   1      0.1090 284512.0000
     72     82   1      0.1090 284512.0000
     73     83   1      0.1090 284512.0000
     73     84   1      0.1090 284512.0000
     73     85   1      0.1090 284512.0000
     86     87   1      0.1529 224262.4000
     86     95   1      0.1090 284512.0000
     86     96   1      0.1090 284512.0000
     87     88   1      0.1522 265265.6000
     87     97   1      0.1090 284512.0000
     87    107   1      0.1529 224262.4000
     88     89   1      0.1229 476976.0000
     88     90   1      0.1327 179075.2000
     90     91   1      0.1410 267776.0000
     91     92   1      0.1529 224262.4000
     91     98   1      0.1090 284512.0000
     91     99   1      0.1090 284512.0000
     92     93   1      0.1529 224262.4000
     92    100   1      0.1090 284512.0000
     92    101   1      0.1090 284512.0000
     93     94   1      0.1529 224262.4000
     93    102   1      0.1090 284512.0000
     93    103   1      0.1090 284512.0000
     94    104   1      0.1090 284512.0000
     94    105   1      0.1090 284512.0000
     94    106   1      0.1090 284512.0000
    107    108   1      0.1529 224262.4000
    107    116   1      0.1090 284512.0000
    107    117   1      0.1090 284512.0000
    108    109   1      0.1522 265265.6000
    108    118   1      0.1090 284512.0000
    108    128   1      0.1529 224262.4000
    109    110   1      0.1229 476976.0000
    109    111   1      0.1327 179075.2000
    111    112   1      0.1410 267776.0000
    112    113   1      0.1529 224262.4000
    112    119   1      0.1090 284512.0000
    112    120   1      0.1090 284512.0000
    113    114   1      0.1529 224262.4000
    113    121   1      0.1090 284512.0000
    113    122   1      0.1090 284512.0000
    114    115   1      0.1529 224262.4000
    114    123   1      0.1090 284512.0000
    114    124   1      0.1090 284512.0000
    115    125   1      0.1090 284512.0000
    115    126   1      0.1090 284512.0000
    115    127   1      0.1090 284512.0000
    128    129   1      0.1529 224262.4000
    128    137   1      0.1090 284512.0000
    128    138   1      0.1090 284512.0000
    129    130   1      0.1522 265265.6000
    129    139   1      0.1090 284512.0000
    129    149   1      0.1529 224262.4000
    130    131   1      0.1229 476976.0000
    130    132   1      0.1327 179075.2000
    132    133   1      0.1410 267776.0000
    133    134   1      0.1529 224262.4000
    133    140   1      0.1090 284512.0000
    133    141   1      0.1090 284512.0000
    134    135   1      0.1529 224262.4000
    134    142   1      0.1090 284512.0000
    134    143   1      0.1090 284512.0000
    135    136   1      0.1529 224262.4000
    135    144   1      0.1090 284512.0000
    135    145   1      0.1090 284512.0000
    136    146   1      0.1090 284512.0000
    136    147   1      0.1090 284512.0000
    136    148   1      0.1090 284512.0000
    149    150   1      0.1529 224262.4000
    149    158   1      0.1090 284512.0000
    149    159   1      0.1090 284512.0000
    150    151   1      0.1522 265265.6000
    150    160   1      0.1090 284512.0000
    150    170   1      0.1529 224262.4000
    151    152   1      0.1229 476976.0000
    151    153   1      0.1327 179075.2000
    153    154   1      0.1410 267776.0000
    154    155   1      0.1529 224262.4000
    154    161   1      0.1090 284512.0000
    154    162   1      0.1090 284512.0000
    155    156   1      0.1529 224262.4000
    155    163   1      0.1090 284512.0000
    155    164   1      0.1090 284512.0000
    156    157   1      0.1529 224262.4000
    156    165   1      0.1090 284512.0000
    156    166   1      0.1090 284512.0000
    157    167   1      0.1090 284512.0000
    157    168   1      0.1090 284512.0000
    157    169   1      0.1090 284512.0000
    170    171   1      0.1529 224262.4000
    170    179   1      0.1090 284512.0000
    170    180   1      0.1090 284512.0000
    171    172   1      0.1522 265265.6000
    171    181   1      0.1090 284512.0000
    171    191   1      0.1529 224262.4000
    172    173   1      0.1229 476976.0000
    172    174   1      0.1327 179075.2000
    174    175   1      0.1410 267776.0000
    175    176   1      0.1529 224262.4000
    175    182   1      0.1090 284512.0000
    175    183   1      0.1090 284512.0000
    176    177   1      0.1529 224262.4000
    176    184   1      0.1090 284512.0000
    176    185   1      0.1090 284512.0000
    177    178   1      0.1529 224262.4000
    177    186   1      0.1090 284512.0000
    177    187   1      0.1090 284512.0000
    178    188   1      0.1090 284512.0000
    178    189   1      0.1090 284512.0000
    178    190   1      0.1090 284512.0000
    191    192   1      0.1529 224262.4000
    191    200   1      0.1090 284512.0000
    191    201   1      0.1090 284512.0000
    192    193   1      0.1522 265265.6000
    192    202   1      0.1090 284512.0000
    192    212   1      0.1529 224262.4000
    193    194   1      0.1229 476976.0000
    193    195   1      0.1327 179075.2000
    195    196   1      0.1410 267776.0000
    196    197   1      0.1529 224262.4000
    196    203   1      0.1090 284512.0000
    196    204   1      0.1090 284512.0000
    197    198   1      0.1529 224262.4000
    197    205   1      0.1090 284512.0000
    197    206   1      0.1090 284512.0000
    198    199   1      0.1529 224262.4000
    198    207   1      0.1090 284512.0000
    198    208   1      0.1090 284512.0000
    199    209   1      0.1090 284512.0000
    199    210   1      0.1090 284512.0000
    199    211   1      0.1090 284512.0000
    212    213   1      0.1529 224262.4000
    212    221   1      0.1090 284512.0000
    212    222   1      0.1090 284512.0000
    213    214   1      0.1522 265265.6000
    213    223   1      0.1090 284512.0000
    213    233   1      0.1529 224262.4000
    214    215   1      0.1229 476976.0000
    214    216   1      0.1327 179075.2000
    216    217   1      0.1410 267776.0000
    217    218   1      0.1529 224262.4000
    217    224   1      0.1090 284512.0000
    217    225   1      0.1090 284512.0000
    218    219   1      0.1529 224262.4000
    218    226   1      0.1090 284512.0000
    218    227   1      0.1090 284512.0000
    219    220   1      0.1529 224262.4000
    219    228   1      0.1090 284512.0000
    219    229   1      0.1090 284512.0000
    220    230   1      0.1090 284512.0000
    220    231   1      0.1090 284512.0000
    220    232   1      0.1090 284512.0000
    233    234   1      0.1529 224262.4000
    233    242   1      0.1090 284512.0000
    233    243   1      0.1090 284512.0000
    234    235   1      0.1522 265265.6000
    234    244   1      0.1090 284512.0000
    234    254   1      0.1529 224262.4000
    235    236   1      0.1229 476976.0000
    235    237   1      0.1327 179075.2000
    237    238   1      0.1410 267776.0000
    238    239   1      0.1529 224262.4000
    238    245   1      0.1090 284512.0000
    238    246   1      0.1090 284512.0000
    239    240   1      0.1529 224262.4000
    239    247   1      0.1090 284512.0000
    239    248   1      0.1090 284512.0000
    240    241   1      0.1529 224262.4000
    240    249   1      0.1090 284512.0000
    240    250   1      0.1090 284512.0000
    241    251   1      0.1090 284512.0000
    241    252   1      0.1090 284512.0000
    241    253   1      0.1090 284512.0000
    254    255   1      0.1529 224262.4000
    254    263   1      0.1090 284512.0000
    254    264   1      0.1090 284512.0000
    255    256   1      0.1522 265265.6000
    255    265   1      0.1090 284512.0000
    255    275   1      0.1529 224262.4000
    256    257   1      0.1229 476976.0000
    256    258   1      0.1327 179075.2000
    258    259   1      0.1410 267776.0000
    259    260   1      0.1529 224262.4000
    259    266   1      0.1090 284512.0000
    259    267   1      0.1090 284512.0000
    260    261   1      0.1529 224262.4000
    260    268   1      0.1090 284512.0000
    260    269   1      0.1090 284512.0000
    261    262   1      0.1529 224262.4000
    261    270   1      0.1090 284512.0000
    261    271   1      0.1090 284512.0000
    262    272   1      0.1090 284512.0000
    262    273   1      0.1090 284512.0000
    262    274   1      0.1090 284512.0000
    275    276   1      0.1529 224262.4000
    275    284   1      0.1090 284512.0000
    275    285   1      0.1090 284512.0000
    276    277   1      0.1522 265265.6000
    276    286   1      0.1090 284512.0000
    276    296   1      0.1529 224262.4000
    277    278   1      0.1229 476976.0000
    277    279   1      0.1327 179075.2000
    279    280   1      0.1410 267776.0000
    280    281   1      0.1529 224262.4000
    280    287   1      0.1090 284512.0000
    280    288   1      0.1090 284512.0000
    281    282   1      0.1529 224262.4000
    281    289   1      0.1090 284512.0000
    281    290   1      0.1090 284512.0000
    282    283   1      0.1529 224262.4000
    282    291   1      0.1090 284512.0000
    282    292   1      0.1090 284512.0000
    283    293   1      0.1090 284512.0000
    283    294   1      0.1090 284512.0000
    283    295   1      0.1090 284512.0000
    296    297   1      0.1529 224262.4000
    296    305   1      0.1090 284512.0000
    296    306   1      0.1090 284512.0000
    297    298   1      0.1522 265265.6000
    297    307   1      0.1090 284512.0000
    297    317   1      0.1529 224262.4000
    298    299   1      0.1229 476976.0000
    298    300   1      0.1327 179075.2000
    300    301   1      0.1410 267776.0000
    301    302   1      0.1529 224262.4000
    301    308   1      0.1090 284512.0000
    301    309   1      0.1090 284512.0000
    302    303   1      0.1529 224262.4000
    302    310   1      0.1090 284512.0000
    302    311   1      0.1090 284512.0000
    303    304   1      0.1529 224262.4000
    303    312   1      0.1090 284512.0000
    303    313   1      0.1090 284512.0000
    304    314   1      0.1090 284512.0000
    304    315   1      0.1090 284512.0000
    304    316   1      0.1090 284512.0000
    317    318   1      0.1529 224262.4000
    317    326   1      0.1090 284512.0000
    317    327   1      0.1090 284512.0000
    318    319   1      0.1522 265265.6000
    318    328   1      0.1090 284512.0000
    318    338   1      0.1529 224262.4000
    319    320   1      0.1229 476976.0000
    319    321   1      0.1327 179075.2000
    321    322   1      0.1410 267776.0000
    322    323   1      0.1529 224262.4000
    322    329   1      0.1090 284512.0000
    322    330   1      0.1090 284512.0000
    323    324   1      0.1529 224262.4000
    323    331   1      0.1090 284512.0000
    323    332   1      0.1090 284512.0000
    324    325   1      0.1529 224262.4000
    324    333   1      0.1090 284512.0000
    324    334   1      0.1090 284512.0000
    325    335   1      0.1090 284512.0000
    325    336   1      0.1090 284512.0000
    325    337   1      0.1090 284512.0000
    338    339   1      0.1529 224262.4000
    338    347   1      0.1090 284512.0000
    338    348   1      0.1090 284512.0000
    339    340   1      0.1522 265265.6000
    339    349   1      0.1090 284512.0000
    339    359   1      0.1529 224262.4000
    340    341   1      0.1229 476976.0000
    340    342   1      0.1327 179075.2000
    342    343   1      0.1410 267776.0000
    343    344   1      0.1529 224262.4000
    343    350   1      0.1090 284512.0000
    343    351   1      0.1090 284512.0000
    344    345   1      0.1529 224262.4000
    344    352   1      0.1090 284512.0000
    344    353   1      0.1090 284512.0000
    345    346   1      0.1529 224262.4000
    345    354   1      0.1090 284512.0000
    345    355   1      0.1090 284512.0000
    346    356   1      0.1090 284512.0000
    346    357   1      0.1090 284512.0000
    346    358   1      0.1090 284512.0000
    359    360   1      0.1529 224262.4000
    359    368   1      0.1090 284512.0000
    359    369   1      0.1090 284512.0000
    360    361   1      0.1522 265265.6000
    360    370   1      0.1090 284512.0000
    360    380   1      0.1529 224262.4000
    361    362   1      0.1229 476976.0000
    361    363   1      0.1327 179075.2000
    363    364   1      0.1410 267776.0000
    364    365   1      0.1529 224262.4000
    364    371   1      0.1090 284512.0000
    364    372   1      0.1090 284512.0000
    365    366   1      0.1529 224262.4000
    365    373   1      0.1090 284512.0000
    365    374   1      0.1090 284512.0000
    366    367   1      0.1529 224262.4000
    366    375   1      0.1090 284512.0000
    366    376   1      0.1090 284512.0000
    367    377   1      0.1090 284512.0000
    367    378   1      0.1090 284512.0000
    367    379   1      0.1090 284512.0000
    380    381   1      0.1529 224262.4000
    380    389   1      0.1090 284512.0000
    380    390   1      0.1090 284512.0000
    381    382   1      0.1522 265265.6000
    381    391   1      0.1090 284512.0000
    381    401   1      0.1529 224262.4000
    382    383   1      0.1229 476976.0000
    382    384   1      0.1327 179075.2000
    384    385   1      0.1410 267776.0000
    385    386   1      0.1529 224262.4000
    385    392   1      0.1090 284512.0000
    385    393   1      0.1090 284512.0000
    386    387   1      0.1529 224262.4000
    386    394   1      0.1090 284512.0000
    386    395   1      0.1090 284512.0000
    387    388   1      0.1529 224262.4000
    387    396   1      0.1090 284512.0000
    387    397   1      0.1090 284512.0000
    388    398   1      0.1090 284512.0000
    388    399   1      0.1090 284512.0000
    388    400   1      0.1090 284512.0000
    401    402   1      0.1529 224262.4000
    401    410   1      0.1090 284512.0000
    401    411   1      0.1090 284512.0000
    402    403   1      0.1522 265265.6000
    402    412   1      0.1090 284512.0000
    402    422   1      0.1090 284512.0000
    403    404   1      0.1229 476976.0000
    403    405   1      0.1327 179075.2000
    405    406   1      0.1410 267776.0000
    406    407   1      0.1529 224262.4000
    406    413   1      0.1090 284512.0000
    406    414   1      0.1090 284512.0000
    407    408   1      0.1529 224262.4000
    407    415   1      0.1090 284512.0000
    407    416   1      0.1090 284512.0000
    408    409   1      0.1529 224262.4000
    408    417   1      0.1090 284512.0000
    408    418   1      0.1090 284512.0000
    409    419   1      0.1090 284512.0000
    409    420   1      0.1090 284512.0000
    409    421   1      0.1090 284512.0000

[ pairs ]
; ai   aj   funct   fudge_QQ  charge_i   charge_j   c6    c12
     10      3   2   0.50000     0.0600000    0.5100000   3.869820e-04  3.188634e-07
     10     12   2   0.50000     0.0600000    0.0600000   3.930919e-05  8.704828e-09
     10     23   2   0.50000     0.0600000   -0.1200000   2.494471e-04  1.671101e-07
     11      3   2   0.50000     0.0600000    0.5100000   3.869820e-04  3.188634e-07
     11     12   2   0.50000     0.0600000    0.0600000   3.930919e-05  8.704828e-09
     11     23   2   0.50000     0.0600000   -0.1200000   2.494471e-04  1.671101e-07
     22      3   2   0.50000     0.0600000    0.5100000   3.869820e-04  3.188634e-07
     22     12   2   0.50000     0.0600000    0.0600000   3.930919e-05  8.704828e-09
     22     23   2   0.50000     0.0600000   -0.1200000   2.494471e-04  1.671101e-07
      1      4   2   0.50000    -0.1800000   -0.4300000   1.095425e-03  1.218041e-06
      1      5   2   0.50000    -0.1800000   -0.3300000   1.026091e-03  1.187829e-06
     12      4   2   0.50000     0.0600000   -0.4300000   1.726228e-04  6.344822e-08
     12      5   2   0.50000     0.0600000   -0.3300000   1.616969e-04  6.187447e-08
     23      4   2   0.50000    -0.1200000   -0.4300000   1.095425e-03  1.218041e-06
     23      5   2   0.50000    -0.1200000   -0.3300000   1.026091e-03  1.187829e-06
      1     24   2   0.50000    -0.1800000   -0.0600000   1.015252e-03  1.866303e-06
      1     32   2   0.50000    -0.1800000    0.0600000   2.494471e-04  1.671101e-07
      1     33   2   0.50000    -0.1800000    0.0600000   2.494471e-04  1.671101e-07
      3     24   2   0.50000     0.5100000   -0.0600000   1.575021e-03  3.561100e-06
      3     32   2   0.50000     0.5100000    0.0600000   3.869820e-04  3.188634e-07
      3     33   2   0.50000     0.5100000    0.0600000   3.869820e-04  3.188634e-07
     12     24   2   0.50000     0.0600000   -0.0600000   1.599888e-04  9.721644e-08
     12     32   2   0.50000     0.0600000    0.0600000   3.930919e-05  8.704828e-09
     12     33   2   0.50000     0.0600000    0.0600000   3.930919e-05  8.704828e-09
      2      6   2   0.50000    -0.0600000    0.1900000   1.015252e-03  1.866303e-06
      4      6   2   0.50000    -0.4300000    0.1900000   1.095425e-03  1.218041e-06
      3      7   2   0.50000     0.5100000   -0.1200000   1.575021e-03  3.561100e-06
      3     13   2   0.50000     0.5100000    0.0300000   2.482000e-04  1.854991e-07
      3     14   2   0.50000     0.5100000    0.0300000   2.482000e-04  1.854991e-07
      5      8   2   0.50000    -0.3300000   -0.1200000   1.026091e-03  1.187829e-06
      5     15   2   0.50000    -0.3300000    0.0600000   2.521103e-04  1.063590e-07
      5     16   2   0.50000    -0.3300000    0.0600000   2.521103e-04  1.063590e-07
     13      8   2   0.50000     0.0300000   -0.1200000   1.599888e-04  9.721644e-08
     13     15   2   0.50000     0.0300000    0.0600000   3.930919e-05  8.704828e-09
     13     16   2   0.50000     0.0300000    0.0600000   3.930919e-05  8.704828e-09
     14      8   2   0.50000     0.0300000   -0.1200000   1.599888e-04  9.721644e-08
     14     15   2   0.50000     0.0300000    0.0600000   3.930919e-05  8.704828e-09
     14     16   2   0.50000     0.0300000    0.0600000   3.930919e-05  8.704828e-09
      6      9   2   0.50000     0.1900000   -0.1800000   1.015252e-03  1.866303e-06
      6     17   2   0.50000     0.1900000    0.0600000   2.494471e-04  1.671101e-07
      6     18   2   0.50000     0.1900000    0.0600000   2.494471e-04  1.671101e-07
     15      9   2   0.50000     0.0600000   -0.1800000   2.494471e-04  1.671101e-07
     15     17   2   0.50000     0.0600000    0.0600000   6.128906e-05  1.496315e-08
     15     18   2   0.50000     0.0600000    0.0600000   6.128906e-05  1.496315e-08
     16      9   2   0.50000     0.0600000   -0.1800000   2.494471e-04  1.671101e-07
     16     17   2   0.50000     0.0600000    0.0600000   6.128906e-05  1.496315e-08
     16     18   2   0.50000     0.0600000    0.0600000   6.128906e-05  1.496315e-08
      7     19   2   0.50000    -0.1200000    0.0600000   2.494471e-04  1.671101e-07
      7     20   2   0.50000    -0.1200000    0.0600000   2.494471e-04  1.671101e-07
      7     21   2   0.50000    -0.1200000    0.0600000   2.494471e-04  1.671101e-07
     17     19   2   0.50000     0.0600000    0.0600000   6.128906e-05  1.496315e-08
     17     20   2   0.50000     0.0600000    0.0600000   6.128906e-05  1.496315e-08
     17     21   2   0.50000     0.0600000    0.0600000   6.128906e-05  1.496315e-08
     18     19   2   0.50000     0.0600000    0.0600000   6.128906e-05  1.496315e-08
     18     20   2   0.50000     0.0600000    0.0600000   6.128906e-05  1.496315e-08
     18     21   2   0.50000     0.0600000    0.0600000   6.128906e-05  1.496315e-08
      2     25   2   0.50000    -0.0600000    0.5100000   1.575021e-03  3.561100e-06
      2     34   2   0.50000    -0.0600000    0.0600000   1.599888e-04  9.721644e-08
      2     44   2   0.50000    -0.0600000   -0.1200000   1.015252e-03  1.866303e-06
     32     25   2   0.50000     0.0600000    0.5100000   3.869820e-04  3.188634e-07
     32     34   2   0.50000     0.0600000    0.0600000   3.930919e-05  8.704828e-09
     32     44   2   0.50000     0.0600000   -0.1200000   2.494471e-04  1.671101e-07
     33     25   2   0.50000     0.0600000    0.5100000   3.869820e-04  3.188634e-07
     33     34   2   0.50000     0.0600000    0.0600000   3.930919e-05  8.704828e-09
     33     44   2   0.50000     0.0600000   -0.1200000   2.494471e-04  1.671101e-07
     23     26   2   0.50000    -0.1200000   -0.4300000   1.095425e-03  1.218041e-06
     23     27   2   0.50000    -0.1200000   -0.3300000   1.026091e-03  1.187829e-06
     34     26   2   0.50000     0.0600000   -0.4300000   1.726228e-04  6.344822e-08
     34     27   2   0.50000     0.0600000   -0.3300000   1.616969e-04  6.187447e-08
     44     26   2   0.50000    -0.1200000   -0.4300000   1.095425e-03  1.218041e-06
     44     27   2   0.50000    -0.1200000   -0.3300000   1.026091e-03  1.187829e-06
     23     45   2   0.50000    -0.1200000   -0.0600000   1.015252e-03  1.866303e-06
     23     53   2   0.50000    -0.1200000    0.0600000   2.494471e-04  1.671101e-07
     23     54   2   0.50000    -0.1200000    0.0600000   2.494471e-04  1.671101e-07
     25     45   2   0.50000     0.5100000   -0.0600000   1.575021e-03  3.561100e-06
     25     53   2   0.50000     0.5100000    0.0600000   3.869820e-04  3.188634e-07
     25     54   2   0.50000     0.5100000    0.0600000   3.869820e-04  3.188634e-07
     34     45   2   0.50000     0.0600000   -0.0600000   1.599888e-04  9.721644e-08
     34     53   2   0.50000     0.0600000    0.0600000   3.930919e-05  8.704828e-09
     34     54   2   0.50000     0.0600000    0.0600000   3.930919e-05  8.704828e-09
     24     28   2   0.50000    -0.0600000    0.1900000   1.015252e-03  1.866303e-06
     26     28   2   0.50000    -0.4300000    0.1900000   1.095425e-03  1.218041e-06
     25     29   2   0.50000     0.5100000   -0.1200000   1.575021e-03  3.561100e-06
     25     35   2   0.50000     0.5100000    0.0300000   2.482000e-04  1.854991e-07
     25     36   2   0.50000     0.5100000    0.0300000   2.482000e-04  1.854991e-07
     27     30   2   0.50000    -0.3300000   -0.1200000   1.026091e-03  1.187829e-06
     27     37   2   0.50000    -0.3300000    0.0600000   2.521103e-04  1.063590e-07
     27     38   2   0.50000    -0.3300000    0.0600000   2.521103e-04  1.063590e-07
     35     30   2   0.50000     0.0300000   -0.1200000   1.599888e-04  9.721644e-08
     35     37   2   0.50000     0.0300000    0.0600000   3.930919e-05  8.704828e-09
     35     38   2   0.50000     0.0300000    0.0600000   3.930919e-05  8.704828e-09
     36     30   2   0.50000     0.0300000   -0.1200000   1.599888e-04  9.721644e-08
     36     37   2   0.50000     0.0300000    0.0600000   3.930919e-05  8.704828e-09
     36     38   2   0.50000     0.0300000    0.0600000   3.930919e-05  8.704828e-09
     28     31   2   0.50000     0.1900000   -0.1800000   1.015252e-03  1.866303e-06
     28     39   2   0.50000     0.1900000    0.0600000   2.494471e-04  1.671101e-07
     28     40   2   0.50000     0.1900000    0.0600000   2.494471e-04  1.671101e-07
     37     31   2   0.50000     0.0600000   -0.1800000   2.494471e-04  1.671101e-07
     37     39   2   0.50000     0.0600000    0.0600000   6.128906e-05  1.496315e-08
     37     40   2   0.50000     0.0600000    0.0600000   6.128906e-05  1.496315e-08
     38     31   2   0.50000     0.0600000   -0.1800000   2.494471e-04  1.671101e-07
     38     39   2   0.50000     0.0600000    0.0600000   6.128906e-05  1.496315e-08
     38     40   2   0.50000     0.0600000    0.0600000   6.128906e-05  1.496315e-08
     29     41   2   0.50000    -0.1200000    0.0600000   2.494471e-04  1.671101e-07
     29     42   2   0.50000    -0.1200000    0.0600000   2.494471e-04  1.671101e-07
     29     43   2   0.50000    -0.1200000    0.0600000   2.494471e-04  1.671101e-07
     39     41   2   0.50000     0.0600000    0.0600000   6.128906e-05  1.496315e-08
     39     42   2   0.50000     0.0600000    0.0600000   6.128906e-05  1.496315e-08
     39     43   2   0.50000     0.0600000    0.0600000   6.128906e-05  1.496315e-08
     40     41   2   0.50000     0.0600000    0.0600000   6.128906e-05  1.496315e-08
     40     42   2   0.50000     0.0600000    0.0600000   6.128906e-05  1.496315e-08
     40     43   2   0.50000     0.0600000    0.0600000   6.128906e-05  1.496315e-08
     24     46   2   0.50000    -0.0600000    0.5100000   1.575021e-03  3.561100e-06
     24     55   2   0.50000    -0.0600000    0.0600000   1.599888e-04  9.721644e-08
     24     65   2   0.50000    -0.0600000   -0.1200000   1.015252e-03  1.866303e-06
     53     46   2   0.50000     0.0600000    0.5100000   3.869820e-04  3.188634e-07
     53     55   2   0.50000     0.0600000    0.0600000   3.930919e-05  8.704828e-09
     53     65   2   0.50000     0.0600000   -0.1200000   2.494471e-04  1.671101e-07
     54     46   2   0.50000     0.0600000    0.5100000   3.869820e-04  3.188634e-07
     54     55   2   0.50000     0.0600000    0.0600000   3.930919e-05  8.704828e-09
     54     65   2   0.50000     0.0600000   -0.1200000   2.494471e-04  1.671101e-07
     44     47   2   0.50000    -0.1200000   -0.4300000   1.095425e-03  1.218041e-06
     44     48   2   0.50000    -0.1200000   -0.3300000   1.026091e-03  1.187829e-06
     55     47   2   0.50000     0.0600000   -0.4300000   1.726228e-04  6.344822e-08
     55     48   2   0.50000     0.0600000   -0.3300000   1.616969e-04  6.187447e-08
     65     47   2   0.50000    -0.1200000   -0.4300000   1.095425e-03  1.218041e-06
     65     48   2   0.50000    -0.1200000   -0.3300000   1.026091e-03  1.187829e-06
     44     66   2   0.50000    -0.1200000   -0.0600000   1.015252e-03  1.866303e-06
     44     74   2   0.50000    -0.1200000    0.0600000   2.494471e-04  1.671101e-07
     44     75   2   0.50000    -0.1200000    0.0600000   2.494471e-04  1.671101e-07
     46     66   2   0.50000     0.5100000   -0.0600000   1.575021e-03  3.561100e-06
     46     74   2   0.50000     0.5100000    0.0600000   3.869820e-04  3.188634e-07
     46     75   2   0.50000     0.5100000    0.0600000   3.869820e-04  3.188634e-07
     55     66   2   0.50000     0.0600000   -0.0600000   1.599888e-04  9.721644e-08
     55     74   2   0.50000     0.0600000    0.0600000   3.930919e-05  8.704828e-09
     55     75   2   0.50000     0.0600000    0.0600000   3.930919e-05  8.704828e-09
     45     49   2   0.50000    -0.0600000    0.1900000   1.015252e-03  1.866303e-06
     47     49   2   0.50000    -0.4300000    0.1900000   1.095425e-03  1.218041e-06
     46     50   2   0.50000     0.5100000   -0.1200000   1.575021e-03  3.561100e-06
     46     56   2   0.50000     0.5100000    0.0300000   2.482000e-04  1.854991e-07
     46     57   2   0.50000     0.5100000    0.0300000   2.482000e-04  1.854991e-07
     48     51   2   0.50000    -0.3300000   -0.1200000   1.026091e-03  1.187829e-06
     48     58   2   0.50000    -0.3300000    0.0600000   2.521103e-04  1.063590e-07
     48     59   2   0.50000    -0.3300000    0.0600000   2.521103e-04  1.063590e-07
     56     51   2   0.50000     0.0300000   -0.1200000   1.599888e-04  9.721644e-08
     56     58   2   0.50000     0.0300000    0.0600000   3.930919e-05  8.704828e-09
     56     59   2   0.50000     0.0300000    0.0600000   3.930919e-05  8.704828e-09
     57     51   2   0.50000     0.0300000   -0.1200000   1.599888e-04  9.721644e-08
     57     58   2   0.50000     0.0300000    0.0600000   3.930919e-05  8.704828e-09
     57     59   2   0.50000     0.0300000    0.0600000   3.930919e-05  8.704828e-09
     49     52   2   0.50000     0.1900000   -0.1800000   1.015252e-03  1.866303e-06
     49     60   2   0.50000     0.1900000    0.0600000   2.494471e-04  1.671101e-07
     49     61   2   0.50000     0.1900000    0.0600000   2.494471e-04  1.671101e-07
     58     52   2   0.50000     0.0600000   -0.1800000   2.494471e-04  1.671101e-07
     58     60   2   0.50000     0.0600000    0.0600000   6.128906e-05  1.496315e-08
     58     61   2   0.50000     0.0600000    0.0600000   6.128906e-05  1.496315e-08
     59     52   2   0.50000     0.0600000   -0.1800000   2.494471e-04  1.671101e-07
     59     60   2   0.50000     0.0600000    0.0600000   6.128906e-05  1.496315e-08
     59     61   2   0.50000     0.0600000    0.0600000   6.128906e-05  1.496315e-08
     50     62   2   0.50000    -0.1200000    0.0600000   2.494471e-04  1.671101e-07
     50     63   2   0.50000    -0.1200000    0.0600000   2.494471e-04  1.671101e-07
     50     64   2   0.50000    -0.1200000    0.0600000   2.494471e-04  1.671101e-07
     60     62   2   0.50000     0.0600000    0.0600000   6.128906e-05  1.496315e-08
     60     63   2   0.50000     0.0600000    0.0600000   6.128906e-05  1.496315e-08
     60     64   2   0.50000     0.0600000    0.0600000   6.128906e-05  1.496315e-08
     61     62   2   0.50000     0.0600000    0.0600000   6.128906e-05  1.496315e-08
     61     63   2   0.50000     0.0600000    0.0600000   6.128906e-05  1.496315e-08
     61     64   2   0.50000     0.0600000    0.0600000   6.128906e-05  1.496315e-08
     45     67   2   0.50000    -0.0600000    0.5100000   1.575021e-03  3.561100e-06
     45     76   2   0.50000    -0.0600000    0.0600000   1.599888e-04  9.721644e-08
     45     86   2   0.50000    -0.0600000   -0.1200000   1.015252e-03  1.866303e-06
     74     67   2   0.50000     0.0600000    0.5100000   3.869820e-04  3.188634e-07
     74     76   2   0.50000     0.0600000    0.0600000   3.930919e-05  8.704828e-09
     74     86   2   0.50000     0.0600000   -0.1200000   2.494471e-04  1.671101e-07
     75     67   2   0.50000     0.0600000    0.5100000   3.869820e-04  3.188634e-07
     75     76   2   0.50000     0.0600000    0.0600000   3.930919e-05  8.704828e-09
     75     86   2   0.50000     0.0600000   -0.1200000   2.494471e-04  1.671101e-07
     65     68   2   0.50000    -0.1200000   -0.4300000   1.095425e-03  1.218041e-06
     65     69   2   0.50000    -0.1200000   -0.3300000   1.026091e-03  1.187829e-06
     76     68   2   0.50000     0.0600000   -0.4300000   1.726228e-04  6.344822e-08
     76     69   2   0.50000     0.0600000   -0.3300000   1.616969e-04  6.187447e-08
     86     68   2   0.50000    -0.1200000   -0.4300000   1.095425e-03  1.218041e-06
     86     69   2   0.50000    -0.1200000   -0.3300000   1.026091e-03  1.187829e-06
     65     87   2   0.50000    -0.1200000   -0.0600000   1.015252e-03  1.866303e-06
     65     95   2   0.50000    -0.1200000    0.0600000   2.494471e-04  1.671101e-07
     65     96   2   0.50000    -0.1200000    0.0600000   2.494471e-04  1.671101e-07
     67     87   2   0.50000     0.5100000   -0.0600000   1.575021e-03  3.561100e-06
     67     95   2   0.50000     0.5100000    0.0600000   3.869820e-04  3.188634e-07
     67     96   2   0.50000     0.5100000    0.0600000   3.869820e-04  3.188634e-07
     76     87   2   0.50000     0.0600000   -0.0600000   1.599888e-04  9.721644e-08
     76     95   2   0.50000     0.0600000    0.0600000   3.930919e-05  8.704828e-09
     76     96   2   0.50000     0.0600000    0.0600000   3.930919e-05  8.704828e-09
     66     70   2   0.50000    -0.0600000    0.1900000   1.015252e-03  1.866303e-06
     68     70   2   0.50000    -0.4300000    0.1900000   1.095425e-03  1.218041e-06
     67     71   2   0.50000     0.5100000   -0.1200000   1.575021e-03  3.561100e-06
     67     77   2   0.50000     0.5100000    0.0300000   2.482000e-04  1.854991e-07
     67     78   2   0.50000     0.5100000    0.0300000   2.482000e-04  1.854991e-07
     69     72   2   0.50000    -0.3300000   -0.1200000   1.026091e-03  1.187829e-06
     69     79   2   0.50000    -0.3300000    0.0600000   2.521103e-04  1.063590e-07
     69     80   2   0.50000    -0.3300000    0.0600000   2.521103e-04  1.063590e-07
     77     72   2   0.50000     0.0300000   -0.1200000   1.599888e-04  9.721644e-08
     77     79   2   0.50000     0.0300000    0.0600000   3.930919e-05  8.704828e-09
     77     80   2   0.50000     0.0300000    0.0600000   3.930919e-05  8.704828e-09
     78     72   2   0.50000     0.0300000   -0.1200000   1.599888e-04  9.721644e-08
     78     79   2   0.50000     0.0300000    0.0600000   3.930919e-05  8.704828e-09
     78     80   2   0.50000     0.0300000    0.0600000   3.930919e-05  8.704828e-09
     70     73   2   0.50000     0.1900000   -0.1800000   1.015252e-03  1.866303e-06
     70     81   2   0.50000     0.1900000    0.0600000   2.494471e-04  1.671101e-07
     70     82   2   0.50000     0.1900000    0.0600000   2.494471e-04  1.671101e-07
     79     73   2   0.50000     0.0600000   -0.1800000   2.494471e-04  1.671101e-07
     79     81   2   0.50000     0.0600000    0.0600000   6.128906e-05  1.496315e-08
     79     82   2   0.50000     0.0600000    0.0600000   6.128906e-05  1.496315e-08
     80     73   2   0.50000     0.0600000   -0.1800000   2.494471e-04  1.671101e-07
     80     81   2   0.50000     0.0600000    0.0600000   6.128906e-05  1.496315e-08
     80     82   2   0.50000     0.0600000    0.0600000   6.128906e-05  1.496315e-08
     71     83   2   0.50000    -0.1200000    0.0600000   2.494471e-04  1.671101e-07
     71     84   2   0.50000    -0.1200000    0.0600000   2.494471e-04  1.671101e-07
     71     85   2   0.50000    -0.1200000    0.0600000   2.494471e-04  1.671101e-07
     81     83   2   0.50000     0.0600000    0.0600000   6.128906e-05  1.496315e-08
     81     84   2   0.50000     0.0600000    0.0600000   6.128906e-05  1.496315e-08
     81     85   2   0.50000     0.0600000    0.0600000   6.128906e-05  1.496315e-08
     82     83   2   0.50000     0.0600000    0.0600000   6.128906e-05  1.496315e-08
     82     84   2   0.50000     0.0600000    0.0600000   6.128906e-05  1.496315e-08
     82     85   2   0.50000     0.0600000    0.0600000   6.128906e-05  1.496315e-08
     66     88   2   0.50000    -0.0600000    0.5100000   1.575021e-03  3.561100e-06
     66     97   2   0.50000    -0.0600000    0.0600000   1.599888e-04  9.721644e-08
     66    107   2   0.50000    -0.0600000   -0.1200000   1.015252e-03  1.866303e-06
     95     88   2   0.50000     0.0600000    0.5100000   3.869820e-04  3.188634e-07
     95     97   2   0.50000     0.0600000    0.0600000   3.930919e-05  8.704828e-09
     95    107   2   0.50000     0.0600000   -0.1200000   2.494471e-04  1.671101e-07
     96     88   2   0.50000     0.0600000    0.5100000   3.869820e-04  3.188634e-07
     96     97   2   0.50000     0.0600000    0.0600000   3.930919e-05  8.704828e-09
     96    107   2   0.50000     0.0600000   -0.1200000   2.494471e-04  1.671101e-07
     86     89   2   0.50000    -0.1200000   -0.4300000   1.095425e-03  1.218041e-06
     86     90   2   0.50000    -0.1200000   -0.3300000   1.026091e-03  1.187829e-06
     97     89   2   0.50000     0.0600000   -0.4300000   1.726228e-04  6.344822e-08
     97     90   2   0.50000     0.0600000   -0.3300000   1.616969e-04  6.187447e-08
    107     89   2   0.50000    -0.1200000   -0.4300000   1.095425e-03  1.218041e-06
    107     90   2   0.50000    -0.1200000   -0.3300000   1.026091e-03  1.187829e-06
     86    108   2   0.50000    -0.1200000   -0.0600000   1.015252e-03  1.866303e-06
     86    116   2   0.50000    -0.1200000    0.0600000   2.494471e-04  1.671101e-07
     86    117   2   0.50000    -0.1200000    0.0600000   2.494471e-04  1.671101e-07
     88    108   2   0.50000     0.5100000   -0.0600000   1.575021e-03  3.561100e-06
     88    116   2   0.50000     0.5100000    0.0600000   3.869820e-04  3.188634e-07
     88    117   2   0.50000     0.5100000    0.0600000   3.869820e-04  3.188634e-07
     97    108   2   0.50000     0.0600000   -0.0600000   1.599888e-04  9.721644e-08
     97    116   2   0.50000     0.0600000    0.0600000   3.930919e-05  8.704828e-09
     97    117   2   0.50000     0.0600000    0.0600000   3.930919e-05  8.704828e-09
     87     91   2   0.50000    -0.0600000    0.1900000   1.015252e-03  1.866303e-06
     89     91   2   0.50000    -0.4300000    0.1900000   1.095425e-03  1.218041e-06
     88     92   2   0.50000     0.5100000   -0.1200000   1.575021e-03  3.561100e-06
     88     98   2   0.50000     0.5100000    0.0300000   2.482000e-04  1.854991e-07
     88     99   2   0.50000     0.5100000    0.0300000   2.482000e-04  1.854991e-07
     90     93   2   0.50000    -0.3300000   -0.1200000   1.026091e-03  1.187829e-06
     90    100   2   0.50000    -0.3300000    0.0600000   2.521103e-04  1.063590e-07
     90    101   2   0.50000    -0.3300000    0.0600000   2.521103e-04  1.063590e-07
     98     93   2   0.50000     0.0300000   -0.1200000   1.599888e-04  9.721644e-08
     98    100   2   0.50000     0.0300000    0.0600000   3.930919e-05  8.704828e-09
     98    101   2   0.50000     0.0300000    0.0600000   3.930919e-05  8.704828e-09
     99     93   2   0.50000     0.0300000   -0.1200000   1.599888e-04  9.721644e-08
     99    100   2   0.50000     0.0300000    0.0600000   3.930919e-05  8.704828e-09
     99    101   2   0.50000     0.0300000    0.0600000   3.930919e-05  8.704828e-09
     91     94   2   0.50000     0.1900000   -0.1800000   1.015252e-03  1.866303e-06
     91    102   2   0.50000     0.1900000    0.0600000   2.494471e-04  1.671101e-07
     91    103   2   0.50000     0.1900000    0.0600000   2.494471e-04  1.671101e-07
    100     94   2   0.50000     0.0600000   -0.1800000   2.494471e-04  1.671101e-07
    100    102   2   0.50000     0.0600000    0.0600000   6.128906e-05  1.496315e-08
    100    103   2   0.50000     0.0600000    0.0600000   6.128906e-05  1.496315e-08
    101     94   2   0.50000     0.0600000   -0.1800000   2.494471e-04  1.671101e-07
    101    102   2   0.50000     0.0600000    0.0600000   6.128906e-05  1.496315e-08
    101    103   2   0.50000     0.0600000    0.0600000   6.128906e-05  1.496315e-08
     92    104   2   0.50000    -0.1200000    0.0600000   2.494471e-04  1.671101e-07
     92    105   2   0.50000    -0.1200000    0.0600000   2.494471e-04  1.671101e-07
     92    106   2   0.50000    -0.1200000    0.0600000   2.494471e-04  1.671101e-07
    102    104   2   0.50000     0.0600000    0.0600000   6.128906e-05  1.496315e-08
    102    105   2   0.50000     0.0600000    0.0600000   6.128906e-05  1.496315e-08
    102    106   2   0.50000     0.0600000    0.0600000   6.128906e-05  1.496315e-08
    103    104   2   0.50000     0.0600000    0.0600000   6.128906e-05  1.496315e-08
    103    105   2   0.50000     0.0600000    0.0600000   6.128906e-05  1.496315e-08
    103    106   2   0.50000     0.0600000    0.0600000   6.128906e-05  1.496315e-08
     87    109   2   0.50000    -0.0600000    0.5100000   1.575021e-03  3.561100e-06
     87    118   2   0.50000    -0.0600000    0.0600000   1.599888e-04  9.721644e-08
     87    128   2   0.50000    -0.0600000   -0.1200000   1.015252e-03  1.866303e-06
    116    109   2   0.50000     0.0600000    0.5100000   3.869820e-04  3.188634e-07
    116    118   2   0.50000     0.0600000    0.0600000   3.930919e-05  8.704828e-09
    116    128   2   0.50000     0.0600000   -0.1200000   2.494471e-04  1.671101e-07
    117    109   2   0.50000     0.0600000    0.5100000   3.869820e-04  3.188634e-07
    117    118   2   0.50000     0.0600000    0.0600000   3.930919e-05  8.704828e-09
    117    128   2   0.50000     0.0600000   -0.1200000   2.494471e-04  1.671101e-07
    107    110   2   0.50000    -0.1200000   -0.4300000   1.095425e-03  1.218041e-06
    107    111   2   0.50000    -0.1200000   -0.3300000   1.026091e-03  1.187829e-06
    118    110   2   0.50000     0.0600000   -0.4300000   1.726228e-04  6.344822e-08
    118    111   2   0.50000     0.0600000   -0.3300000   1.616969e-04  6.187447e-08
    128    110   2   0.50000    -0.1200000   -0.4300000   1.095425e-03  1.218041e-06
    128    111   2   0.50000    -0.1200000   -0.3300000   1.026091e-03  1.187829e-06
    107    129   2   0.50000    -0.1200000   -0.0600000   1.015252e-03  1.866303e-06
    107    137   2   0.50000    -0.1200000    0.0600000   2.494471e-04  1.671101e-07
    107    138   2   0.50000    -0.1200000    0.0600000   2.494471e-04  1.671101e-07
    109    129   2   0.50000     0.5100000   -0.0600000   1.575021e-03  3.561100e-06
    109    137   2   0.50000     0.5100000    0.0600000   3.869820e-04  3.188634e-07
    109    138   2   0.50000     0.5100000    0.0600000   3.869820e-04  3.188634e-07
    118    129   2   0.50000     0.0600000   -0.0600000   1.599888e-04  9.721644e-08
    118    137   2   0.50000     0.0600000    0.0600000   3.930919e-05  8.704828e-09
    118    138   2   0.50000     0.0600000    0.0600000   3.930919e-05  8.704828e-09
    108    112   2   0.50000    -0.0600000    0.1900000   1.015252e-03  1.866303e-06
    110    112   2   0.50000    -0.4300000    0.1900000   1.095425e-03  1.218041e-06
    109    113   2   0.50000     0.5100000   -0.1200000   1.575021e-03  3.561100e-06
    109    119   2   0.50000     0.5100000    0.0300000   2.482000e-04  1.854991e-07
    109    120   2   0.50000     0.5100000    0.0300000   2.482000e-04  1.854991e-07
    111    114   2   0.50000    -0.3300000   -0.1200000   1.026091e-03  1.187829e-06
    111    121   2   0.50000    -0.3300000    0.0600000   2.521103e-04  1.063590e-07
    111    122   2   0.50000    -0.3300000    0.0600000   2.521103e-04  1.063590e-07
    119    114   2   0.50000     0.0300000   -0.1200000   1.599888e-04  9.721644e-08
    119    121   2   0.50000     0.0300000    0.0600000   3.930919e-05  8.704828e-09
    119    122   2   0.50000     0.0300000    0.0600000   3.930919e-05  8.704828e-09
    120    114   2   0.50000     0.0300000   -0.1200000   1.599888e-04  9.721644e-08
    120    121   2   0.50000     0.0300000    0.0600000   3.930919e-05  8.704828e-09
    120    122   2   0.50000     0.0300000    0.0600000   3.930919e-05  8.704828e-09
    112    115   2   0.50000     0.1900000   -0.1800000   1.015252e-03  1.866303e-06
    112    123   2   0.50000     0.1900000    0.0600000   2.494471e-04  1.671101e-07
    112    124   2   0.50000     0.1900000    0.0600000   2.494471e-04  1.671101e-07
    121    115   2   0.50000     0.0600000   -0.1800000   2.494471e-04  1.671101e-07
    121    123   2   0.50000     0.0600000    0.0600000   6.128906e-05  1.496315e-08
    121    124   2   0.50000     0.0600000    0.0600000   6.128906e-05  1.496315e-08
    122    115   2   0.50000     0.0600000   -0.1800000   2.494471e-04  1.671101e-07
    122    123   2   0.50000     0.0600000    0.0600000   6.128906e-05  1.496315e-08
    122    124   2   0.50000     0.0600000    0.0600000   6.128906e-05  1.496315e-08
    113    125   2   0.50000    -0.1200000    0.0600000   2.494471e-04  1.671101e-07
    113    126   2   0.50000    -0.1200000    0.0600000   2.494471e-04  1.671101e-07
    113    127   2   0.50000    -0.1200000    0.0600000   2.494471e-04  1.671101e-07
    123    125   2   0.50000     0.0600000    0.0600000   6.128906e-05  1.496315e-08
    123    126   2   0.50000     0.0600000    0.0600000   6.128906e-05  1.496315e-08
    123    127   2   0.50000     0.0600000    0.0600000   6.128906e-05  1.496315e-08
    124    125   2   0.50000     0.0600000    0.0600000   6.128906e-05  1.496315e-08
    124    126   2   0.50000     0.0600000    0.0600000   6.128906e-05  1.496315e-08
    124    127   2   0.50000     0.0600000    0.0600000   6.128906e-05  1.496315e-08
    108    130   2   0.50000    -0.0600000    0.5100000   1.575021e-03  3.561100e-06
    108    139   2   0.50000    -0.0600000    0.0600000   1.599888e-04  9.721644e-08
    108    149   2   0.50000    -0.0600000   -0.1200000   1.015252e-03  1.866303e-06
    137    130   2   0.50000     0.0600000    0.5100000   3.869820e-04  3.188634e-07
    137    139   2   0.50000     0.0600000    0.0600000   3.930919e-05  8.704828e-09
    137    149   2   0.50000     0.0600000   -0.1200000   2.494471e-04  1.671101e-07
    138    130   2   0.50000     0.0600000    0.5100000   3.869820e-04  3.188634e-07
    138    139   2   0.50000     0.0600000    0.0600000   3.930919e-05  8.704828e-09
    138    149   2   0.50000     0.0600000   -0.1200000   2.494471e-04  1.671101e-07
    128    131   2   0.50000    -0.1200000   -0.4300000   1.095425e-03  1.218041e-06
    128    132   2   0.50000    -0.1200000   -0.3300000   1.026091e-03  1.187829e-06
    139    131   2   0.50000     0.0600000   -0.4300000   1.726228e-04  6.344822e-08
    139    132   2   0.50000     0.0600000   -0.3300000   1.616969e-04  6.187447e-08
    149    131   2   0.50000    -0.1200000   -0.4300000   1.095425e-03  1.218041e-06
    149    132   2   0.50000    -0.1200000   -0.3300000   1.026091e-03  1.187829e-06
    128    150   2   0.50000    -0.1200000   -0.0600000   1.015252e-03  1.866303e-06
    128    158   2   0.50000    -0.1200000    0.0600000   2.494471e-04  1.671101e-07
    128    159   2   0.50000    -0.1200000    0.0600000   2.494471e-04  1.671101e-07
    130    150   2   0.50000     0.5100000   -0.0600000   1.575021e-03  3.561100e-06
    130    158   2   0.50000     0.5100000    0.0600000   3.869820e-04  3.188634e-07
    130    159   2   0.50000     0.5100000    0.0600000   3.869820e-04  3.188634e-07
    139    150   2   0.50000     0.0600000   -0.0600000   1.599888e-04  9.721644e-08
    139    158   2   0.50000     0.0600000    0.0600000   3.930919e-05  8.704828e-09
    139    159   2   0.50000     0.0600000    0.0600000   3.930919e-05  8.704828e-09
    129    133   2   0.50000    -0.0600000    0.1900000   1.015252e-03  1.866303e-06
    131    133   2   0.50000    -0.4300000    0.1900000   1.095425e-03  1.218041e-06
    130    134   2   0.50000     0.5100000   -0.1200000   1.575021e-03  3.561100e-06
    130    140   2   0.50000     0.5100000    0.0300000   2.482000e-04  1.854991e-07
    130    141   2   0.50000     0.5100000    0.0300000   2.482000e-04  1.854991e-07
    132    135   2   0.50000    -0.3300000   -0.1200000   1.026091e-03  1.187829e-06
    132    142   2   0.50000    -0.3300000    0.0600000   2.521103e-04  1.063590e-07
    132    143   2   0.50000    -0.3300000    0.0600000   2.521103e-04  1.063590e-07
    140    135   2   0.50000     0.0300000   -0.1200000   1.599888e-04  9.721644e-08
    140    142   2   0.50000     0.0300000    0.0600000   3.930919e-05  8.704828e-09
    140    143   2   0.50000     0.0300000    0.0600000   3.930919e-05  8.704828e-09
    141    135   2   0.50000     0.0300000   -0.1200000   1.599888e-04  9.721644e-08
    141    142   2   0.50000     0.0300000    0.0600000   3.930919e-05  8.704828e-09
    141    143   2   0.50000     0.0300000    0.0600000   3.930919e-05  8.704828e-09
    133    136   2   0.50000     0.1900000   -0.1800000   1.015252e-03  1.866303e-06
    133    144   2   0.50000     0.1900000    0.0600000   2.494471e-04  1.671101e-07
    133    145   2   0.50000     0.1900000    0.0600000   2.494471e-04  1.671101e-07
    142    136   2   0.50000     0.0600000   -0.1800000   2.494471e-04  1.671101e-07
    142    144   2   0.50000     0.0600000    0.0600000   6.128906e-05  1.496315e-08
    142    145   2   0.50000     0.0600000    0.0600000   6.128906e-05  1.496315e-08
    143    136   2   0.50000     0.0600000   -0.1800000   2.494471e-04  1.671101e-07
    143    144   2   0.50000     0.0600000    0.0600000   6.128906e-05  1.496315e-08
    143    145   2   0.50000     0.0600000    0.0600000   6.128906e-05  1.496315e-08
    134    146   2   0.50000    -0.1200000    0.0600000   2.494471e-04  1.671101e-07
    134    147   2   0.50000    -0.1200000    0.0600000   2.494471e-04  1.671101e-07
    134    148   2   0.50000    -0.1200000    0.0600000   2.494471e-04  1.671101e-07
    144    146   2   0.50000     0.0600000    0.0600000   6.128906e-05  1.496315e-08
    144    147   2   0.50000     0.0600000    0.0600000   6.128906e-05  1.496315e-08
    144    148   2   0.50000     0.0600000    0.0600000   6.128906e-05  1.496315e-08
    145    146   2   0.50000     0.0600000    0.0600000   6.128906e-05  1.496315e-08
    145    147   2   0.50000     0.0600000    0.0600000   6.128906e-05  1.496315e-08
    145    148   2   0.50000     0.0600000    0.0600000   6.128906e-05  1.496315e-08
    129    151   2   0.50000    -0.0600000    0.5100000   1.575021e-03  3.561100e-06
    129    160   2   0.50000    -0.0600000    0.0600000   1.599888e-04  9.721644e-08
    129    170   2   0.50000    -0.0600000   -0.1200000   1.015252e-03  1.866303e-06
    158    151   2   0.50000     0.0600000    0.5100000   3.869820e-04  3.188634e-07
    158    160   2   0.50000     0.0600000    0.0600000   3.930919e-05  8.704828e-09
    158    170   2   0.50000     0.0600000   -0.1200000   2.494471e-04  1.671101e-07
    159    151   2   0.50000     0.0600000    0.5100000   3.869820e-04  3.188634e-07
    159    160   2   0.50000     0.0600000    0.0600000   3.930919e-05  8.704828e-09
    159    170   2   0.50000     0.0600000   -0.1200000   2.494471e-04  1.671101e-07
    149    152   2   0.50000    -0.1200000   -0.4300000   1.095425e-03  1.218041e-06
    149    153   2   0.50000    -0.1200000   -0.3300000   1.026091e-03  1.187829e-06
    160    152   2   0.50000     0.0600000   -0.4300000   1.726228e-04  6.344822e-08
    160    153   2   0.50000     0.0600000   -0.3300000   1.616969e-04  6.187447e-08
    170    152   2   0.50000    -0.1200000   -0.4300000   1.095425e-03  1.218041e-06
    170    153   2   0.50000    -0.1200000   -0.3300000   1.026091e-03  1.187829e-06
    149    171   2   0.50000    -0.1200000   -0.0600000   1.015252e-03  1.866303e-06
    149    179   2   0.50000    -0.1200000    0.0600000   2.494471e-04  1.671101e-07
    149    180   2   0.50000    -0.1200000    0.0600000   2.494471e-04  1.671101e-07
    151    171   2   0.50000     0.5100000   -0.0600000   1.575021e-03  3.561100e-06
    151    179   2   0.50000     0.5100000    0.0600000   3.869820e-04  3.188634e-07
    151    180   2   0.50000     0.5100000    0.0600000   3.869820e-04  3.188634e-07
    160    171   2   0.50000     0.0600000   -0.0600000   1.599888e-04  9.721644e-08
    160    179   2   0.50000     0.0600000    0.0600000   3.930919e-05  8.704828e-09
    160    180   2   0.50000     0.0600000    0.0600000   3.930919e-05  8.704828e-09
    150    154   2   0.50000    -0.0600000    0.1900000   1.015252e-03  1.866303e-06
    152    154   2   0.50000    -0.4300000    0.1900000   1.095425e-03  1.218041e-06
    151    155   2   0.50000     0.5100000   -0.1200000   1.575021e-03  3.561100e-06
    151    161   2   0.50000     0.5100000    0.0300000   2.482000e-04  1.854991e-07
    151    162   2   0.50000     0.5100000    0.0300000   2.482000e-04  1.854991e-07
    153    156   2   0.50000    -0.3300000   -0.1200000   1.026091e-03  1.187829e-06
    153    163   2   0.50000    -0.3300000    0.0600000   2.521103e-04  1.063590e-07
    153    164   2   0.50000    -0.3300000    0.0600000   2.521103e-04  1.063590e-07
    161    156   2   0.50000     0.0300000   -0.1200000   1.599888e-04  9.721644e-08
    161    163   2   0.50000     0.0300000    0.0600000   3.930919e-05  8.704828e-09
    161    164   2   0.50000     0.0300000    0.0600000   3.930919e-05  8.704828e-09
    162    156   2   0.50000     0.0300000   -0.1200000   1.599888e-04  9.721644e-08
    162    163   2   0.50000     0.0300000    0.0600000   3.930919e-05  8.704828e-09
    162    164   2   0.50000     0.0300000    0.0600000   3.930919e-05  8.704828e-09
    154    157   2   0.50000     0.1900000   -0.1800000   1.015252e-03  1.866303e-06
    154    165   2   0.50000     0.1900000    0.0600000   2.494471e-04  1.671101e-07
    154    166   2   0.50000     0.1900000    0.0600000   2.494471e-04  1.671101e-07
    163    157   2   0.50000     0.0600000   -0.1800000   2.494471e-04  1.671101e-07
    163    165   2   0.50000     0.0600000    0.0600000   6.128906e-05  1.496315e-08
    163    166   2   0.50000     0.0600000    0.0600000   6.128906e-05  1.496315e-08
    164    157   2   0.50000     0.0600000   -0.1800000   2.494471e-04  1.671101e-07
    164    165   2   0.50000     0.0600000    0.0600000   6.128906e-05  1.496315e-08
    164    166   2   0.50000     0.0600000    0.0600000   6.128906e-05  1.496315e-08
    155    167   2   0.50000    -0.1200000    0.0600000   2.494471e-04  1.671101e-07
    155    168   2   0.50000    -0.1200000    0.0600000   2.494471e-04  1.671101e-07
    155    169   2   0.50000    -0.1200000    0.0600000   2.494471e-04  1.671101e-07
    165    167   2   0.50000     0.0600000    0.0600000   6.128906e-05  1.496315e-08
    165    168   2   0.50000     0.0600000    0.0600000   6.128906e-05  1.496315e-08
    165    169   2   0.50000     0.0600000    0.0600000   6.128906e-05  1.496315e-08
    166    167   2   0.50000     0.0600000    0.0600000   6.128906e-05  1.496315e-08
    166    168   2   0.50000     0.0600000    0.0600000   6.128906e-05  1.496315e-08
    166    169   2   0.50000     0.0600000    0.0600000   6.128906e-05  1.496315e-08
    150    172   2   0.50000    -0.0600000    0.5100000   1.575021e-03  3.561100e-06
    150    181   2   0.50000    -0.0600000    0.0600000   1.599888e-04  9.721644e-08
    150    191   2   0.50000    -0.0600000   -0.1200000   1.015252e-03  1.866303e-06
    179    172   2   0.50000     0.0600000    0.5100000   3.869820e-04  3.188634e-07
    179    181   2   0.50000     0.0600000    0.0600000   3.930919e-05  8.704828e-09
    179    191   2   0.50000     0.0600000   -0.1200000   2.494471e-04  1.671101e-07
    180    172   2   0.50000     0.0600000    0.5100000   3.869820e-04  3.188634e-07
    180    181   2   0.50000     0.0600000    0.0600000   3.930919e-05  8.704828e-09
    180    191   2   0.50000     0.0600000   -0.1200000   2.494471e-04  1.671101e-07
    170    173   2   0.50000    -0.1200000   -0.4300000   1.095425e-03  1.218041e-06
    170    174   2   0.50000    -0.1200000   -0.3300000   1.026091e-03  1.187829e-06
    181    173   2   0.50000     0.0600000   -0.4300000   1.726228e-04  6.344822e-08
    181    174   2   0.50000     0.0600000   -0.3300000   1.616969e-04  6.187447e-08
    191    173   2   0.50000    -0.1200000   -0.4300000   1.095425e-03  1.218041e-06
    191    174   2   0.50000    -0.1200000   -0.3300000   1.026091e-03  1.187829e-06
    170    192   2   0.50000    -0.1200000   -0.0600000   1.015252e-03  1.866303e-06
    170    200   2   0.50000    -0.1200000    0.0600000   2.494471e-04  1.671101e-07
    170    201   2   0.50000    -0.1200000    0.0600000   2.494471e-04  1.671101e-07
    172    192   2   0.50000     0.5100000   -0.0600000   1.575021e-03  3.561100e-06
    172    200   2   0.50000     0.5100000    0.0600000   3.869820e-04  3.188634e-07
    172    201   2   0.50000     0.5100000    0.0600000   3.869820e-04  3.188634e-07
    181    192   2   0.50000     0.0600000   -0.0600000   1.599888e-04  9.721644e-08
    181    200   2   0.50000     0.0600000    0.0600000   3.930919e-05  8.704828e-09
    181    201   2   0.50000     0.0600000    0.0600000   3.930919e-05  8.704828e-09
    171    175   2   0.50000    -0.0600000    0.1900000   1.015252e-03  1.866303e-06
    173    175   2   0.50000    -0.4300000    0.1900000   1.095425e-03  1.218041e-06
    172    176   2   0.50000     0.5100000   -0.1200000   1.575021e-03  3.561100e-06
    172    182   2   0.50000     0.5100000    0.0300000   2.482000e-04  1.854991e-07
    172    183   2   0.50000     0.5100000    0.0300000   2.482000e-04  1.854991e-07
    174    177   2   0.50000    -0.3300000   -0.1200000   1.026091e-03  1.187829e-06
    174    184   2   0.50000    -0.3300000    0.0600000   2.521103e-04  1.063590e-07
    174    185   2   0.50000    -0.3300000    0.0600000   2.521103e-04  1.063590e-07
    182    177   2   0.50000     0.0300000   -0.1200000   1.599888e-04  9.721644e-08
    182    184   2   0.50000     0.0300000    0.0600000   3.930919e-05  8.704828e-09
    182    185   2   0.50000     0.0300000    0.0600000   3.930919e-05  8.704828e-09
    183    177   2   0.50000     0.0300000   -0.1200000   1.599888e-04  9.721644e-08
    183    184   2   0.50000     0.0300000    0.0600000   3.930919e-05  8.704828e-09
    183    185   2   0.50000     0.0300000    0.0600000   3.930919e-05  8.704828e-09
    175    178   2   0.50000     0.1900000   -0.1800000   1.015252e-03  1.866303e-06
    175    186   2   0.50000     0.1900000    0.0600000   2.494471e-04  1.671101e-07
    175    187   2   0.50000     0.1900000    0.0600000   2.494471e-04  1.671101e-07
    184    178   2   0.50000     0.0600000   -0.1800000   2.494471e-04  1.671101e-07
    184    186   2   0.50000     0.0600000    0.0600000   6.128906e-05  1.496315e-08
    184    187   2   0.50000     0.0600000    0.0600000   6.128906e-05  1.496315e-08
    185    178   2   0.50000     0.0600000   -0.1800000   2.494471e-04  1.671101e-07
    185    186   2   0.50000     0.0600000    0.0600000   6.128906e-05  1.496315e-08
    185    187   2   0.50000     0.0600000    0.0600000   6.128906e-05  1.496315e-08
    176    188   2   0.50000    -0.1200000    0.0600000   2.494471e-04  1.671101e-07
    176    189   2   0.50000    -0.1200000    0.0600000   2.494471e-04  1.671101e-07
    176    190   2   0.50000    -0.1200000    0.0600000   2.494471e-04  1.671101e-07
    186    188   2   0.50000     0.0600000    0.0600000   6.128906e-05  1.496315e-08
    186    189   2   0.50000     0.0600000    0.0600000   6.128906e-05  1.496315e-08
    186    190   2   0.50000     0.0600000    0.0600000   6.128906e-05  1.496315e-08
    187    188   2   0.50000     0.0600000    0.0600000   6.128906e-05  1.496315e-08
    187    189   2   0.50000     0.0600000    0.0600000   6.128906e-05  1.496315e-08
    187    190   2   0.50000     0.0600000    0.0600000   6.128906e-05  1.496315e-08
    171    193   2   0.50000    -0.0600000    0.5100000   1.575021e-03  3.561100e-06
    171    202   2   0.50000    -0.0600000    0.0600000   1.599888e-04  9.721644e-08
    171    212   2   0.50000    -0.0600000   -0.1200000   1.015252e-03  1.866303e-06
    200    193   2   0.50000     0.0600000    0.5100000   3.869820e-04  3.188634e-07
    200    202   2   0.50000     0.0600000    0.0600000   3.930919e-05  8.704828e-09
    200    212   2   0.50000     0.0600000   -0.1200000   2.494471e-04  1.671101e-07
    201    193   2   0.50000     0.0600000    0.5100000   3.869820e-04  3.188634e-07
    201    202   2   0.50000     0.0600000    0.0600000   3.930919e-05  8.704828e-09
    201    212   2   0.50000     0.0600000   -0.1200000   2.494471e-04  1.671101e-07
    191    194   2   0.50000    -0.1200000   -0.4300000   1.095425e-03  1.218041e-06
    191    195   2   0.50000    -0.1200000   -0.3300000   1.026091e-03  1.187829e-06
    202    194   2   0.50000     0.0600000   -0.4300000   1.726228e-04  6.344822e-08
    202    195   2   0.50000     0.0600000   -0.3300000   1.616969e-04  6.187447e-08
    212    194   2   0.50000    -0.1200000   -0.4300000   1.095425e-03  1.218041e-06
    212    195   2   0.50000    -0.1200000   -0.3300000   1.026091e-03  1.187829e-06
    191    213   2   0.50000    -0.1200000   -0.0600000   1.015252e-03  1.866303e-06
    191    221   2   0.50000    -0.1200000    0.0600000   2.494471e-04  1.671101e-07
    191    222   2   0.50000    -0.1200000    0.0600000   2.494471e-04  1.671101e-07
    193    213   2   0.50000     0.5100000   -0.0600000   1.575021e-03  3.561100e-06
    193    221   2   0.50000     0.5100000    0.0600000   3.869820e-04  3.188634e-07
    193    222   2   0.50000     0.5100000    0.0600000   3.869820e-04  3.188634e-07
    202    213   2   0.50000     0.0600000   -0.0600000   1.599888e-04  9.721644e-08
    202    221   2   0.50000     0.0600000    0.0600000   3.930919e-05  8.704828e-09
    202    222   2   0.50000     0.0600000    0.0600000   3.930919e-05  8.704828e-09
    192    196   2   0.50000    -0.0600000    0.1900000   1.015252e-03  1.866303e-06
    194    196   2   0.50000    -0.4300000    0.1900000   1.095425e-03  1.218041e-06
    193    197   2   0.50000     0.5100000   -0.1200000   1.575021e-03  3.561100e-06
    193    203   2   0.50000     0.5100000    0.0300000   2.482000e-04  1.854991e-07
    193    204   2   0.50000     0.5100000    0.0300000   2.482000e-04  1.854991e-07
    195    198   2   0.50000    -0.3300000   -0.1200000   1.026091e-03  1.187829e-06
    195    205   2   0.50000    -0.3300000    0.0600000   2.521103e-04  1.063590e-07
    195    206   2   0.50000    -0.3300000    0.0600000   2.521103e-04  1.063590e-07
    203    198   2   0.50000     0.0300000   -0.1200000   1.599888e-04  9.721644e-08
    203    205   2   0.50000     0.0300000    0.0600000   3.930919e-05  8.704828e-09
    203    206   2   0.50000     0.0300000    0.0600000   3.930919e-05  8.704828e-09
    204    198   2   0.50000     0.0300000   -0.1200000   1.599888e-04  9.721644e-08
    204    205   2   0.50000     0.0300000    0.0600000   3.930919e-05  8.704828e-09
    204    206   2   0.50000     0.0300000    0.0600000   3.930919e-05  8.704828e-09
    196    199   2   0.50000     0.1900000   -0.1800000   1.015252e-03  1.866303e-06
    196    207   2   0.50000     0.1900000    0.0600000   2.494471e-04  1.671101e-07
    196    208   2   0.50000     0.1900000    0.0600000   2.494471e-04  1.671101e-07
    205    199   2   0.50000     0.0600000   -0.1800000   2.494471e-04  1.671101e-07
    205    207   2   0.50000     0.0600000    0.0600000   6.128906e-05  1.496315e-08
    205    208   2   0.50000     0.0600000    0.0600000   6.128906e-05  1.496315e-08
    206    199   2   0.50000     0.0600000   -0.1800000   2.494471e-04  1.671101e-07
    206    207   2   0.50000     0.0600000    0.0600000   6.128906e-05  1.496315e-08
    206    208   2   0.50000     0.0600000    0.0600000   6.128906e-05  1.496315e-08
    197    209   2   0.50000    -0.1200000    0.0600000   2.494471e-04  1.671101e-07
    197    210   2   0.50000    -0.1200000    0.0600000   2.494471e-04  1.671101e-07
    197    211   2   0.50000    -0.1200000    0.0600000   2.494471e-04  1.671101e-07
    207    209   2   0.50000     0.0600000    0.0600000   6.128906e-05  1.496315e-08
    207    210   2   0.50000     0.0600000    0.0600000   6.128906e-05  1.496315e-08
    207    211   2   0.50000     0.0600000    0.0600000   6.128906e-05  1.496315e-08
    208    209   2   0.50000     0.0600000    0.0600000   6.128906e-05  1.496315e-08
    208    210   2   0.50000     0.0600000    0.0600000   6.128906e-05  1.496315e-08
    208    211   2   0.50000     0.0600000    0.0600000   6.128906e-05  1.496315e-08
    192    214   2   0.50000    -0.0600000    0.5100000   1.575021e-03  3.561100e-06
    192    223   2   0.50000    -0.0600000    0.0600000   1.599888e-04  9.721644e-08
    192    233   2   0.50000    -0.0600000   -0.1200000   1.015252e-03  1.866303e-06
    221    214   2   0.50000     0.0600000    0.5100000   3.869820e-04  3.188634e-07
    221    223   2   0.50000     0.0600000    0.0600000   3.930919e-05  8.704828e-09
    221    233   2   0.50000     0.0600000   -0.1200000   2.494471e-04  1.671101e-07
    222    214   2   0.50000     0.0600000    0.5100000   3.869820e-04  3.188634e-07
    222    223   2   0.50000     0.0600000    0.0600000   3.930919e-05  8.704828e-09
    222    233   2   0.50000     0.0600000   -0.1200000   2.494471e-04  1.671101e-07
    212    215   2   0.50000    -0.1200000   -0.4300000   1.095425e-03  1.218041e-06
    212    216   2   0.50000    -0.1200000   -0.3300000   1.026091e-03  1.187829e-06
    223    215   2   0.50000     0.0600000   -0.4300000   1.726228e-04  6.344822e-08
    223    216   2   0.50000     0.0600000   -0.3300000   1.616969e-04  6.187447e-08
    233    215   2   0.50000    -0.1200000   -0.4300000   1.095425e-03  1.218041e-06
    233    216   2   0.50000    -0.1200000   -0.3300000   1.026091e-03  1.187829e-06
    212    234   2   0.50000    -0.1200000   -0.0600000   1.015252e-03  1.866303e-06
    212    242   2   0.50000    -0.1200000    0.0600000   2.494471e-04  1.671101e-07
    212    243   2   0.50000    -0.1200000    0.0600000   2.494471e-04  1.671101e-07
    214    234   2   0.50000     0.5100000   -0.0600000   1.575021e-03  3.561100e-06
    214    242   2   0.50000     0.5100000    0.0600000   3.869820e-04  3.188634e-07
    214    243   2   0.50000     0.5100000    0.0600000   3.869820e-04  3.188634e-07
    223    234   2   0.50000     0.0600000   -0.0600000   1.599888e-04  9.721644e-08
    223    242   2   0.50000     0.0600000    0.0600000   3.930919e-05  8.704828e-09
    223    243   2   0.50000     0.0600000    0.0600000   3.930919e-05  8.704828e-09
    213    217   2   0.50000    -0.0600000    0.1900000   1.015252e-03  1.866303e-06
    215    217   2   0.50000    -0.4300000    0.1900000   1.095425e-03  1.218041e-06
    214    218   2   0.50000     0.5100000   -0.1200000   1.575021e-03  3.561100e-06
    214    224   2   0.50000     0.5100000    0.0300000   2.482000e-04  1.854991e-07
    214    225   2   0.50000     0.5100000    0.0300000   2.482000e-04  1.854991e-07
    216    219   2   0.50000    -0.3300000   -0.1200000   1.026091e-03  1.187829e-06
    216    226   2   0.50000    -0.3300000    0.0600000   2.521103e-04  1.063590e-07
    216    227   2   0.50000    -0.3300000    0.0600000   2.521103e-04  1.063590e-07
    224    219   2   0.50000     0.0300000   -0.1200000   1.599888e-04  9.721644e-08
    224    226   2   0.50000     0.0300000    0.0600000   3.930919e-05  8.704828e-09
    224    227   2   0.50000     0.0300000    0.0600000   3.930919e-05  8.704828e-09
    225    219   2   0.50000     0.0300000   -0.1200000   1.599888e-04  9.721644e-08
    225    226   2   0.50000     0.0300000    0.0600000   3.930919e-05  8.704828e-09
    225    227   2   0.50000     0.0300000    0.0600000   3.930919e-05  8.704828e-09
    217    220   2   0.50000     0.1900000   -0.1800000   1.015252e-03  1.866303e-06
    217    228   2   0.50000     0.1900000    0.0600000   2.494471e-04  1.671101e-07
    217    229   2   0.50000     0.1900000    0.0600000   2.494471e-04  1.671101e-07
    226    220   2   0.50000     0.0600000   -0.1800000   2.494471e-04  1.671101e-07
    226    228   2   0.50000     0.0600000    0.0600000   6.128906e-05  1.496315e-08
    226    229   2   0.50000     0.0600000    0.0600000   6.128906e-05  1.496315e-08
    227    220   2   0.50000     0.0600000   -0.1800000   2.494471e-04  1.671101e-07
    227    228   2   0.50000     0.0600000    0.0600000   6.128906e-05  1.496315e-08
    227    229   2   0.50000     0.0600000    0.0600000   6.128906e-05  1.496315e-08
    218    230   2   0.50000    -0.1200000    0.0600000   2.494471e-04  1.671101e-07
    218    231   2   0.50000    -0.1200000    0.0600000   2.494471e-04  1.671101e-07
    218    232   2   0.50000    -0.1200000    0.0600000   2.494471e-04  1.671101e-07
    228    230   2   0.50000     0.0600000    0.0600000   6.128906e-05  1.496315e-08
    228    231   2   0.50000     0.0600000    0.0600000   6.128906e-05  1.496315e-08
    228    232   2   0.50000     0.0600000    0.0600000   6.128906e-05  1.496315e-08
    229    230   2   0.50000     0.0600000    0.0600000   6.128906e-05  1.496315e-08
    229    231   2   0.50000     0.0600000    0.0600000   6.128906e-05  1.496315e-08
    229    232   2   0.50000     0.0600000    0.0600000   6.128906e-05  1.496315e-08
    213    235   2   0.50000    -0.0600000    0.5100000   1.575021e-03  3.561100e-06
    213    244   2   0.50000    -0.0600000    0.0600000   1.599888e-04  9.721644e-08
    213    254   2   0.50000    -0.0600000   -0.1200000   1.015252e-03  1.866303e-06
    242    235   2   0.50000     0.0600000    0.5100000   3.869820e-04  3.188634e-07
    242    244   2   0.50000     0.0600000    0.0600000   3.930919e-05  8.704828e-09
    242    254   2   0.50000     0.0600000   -0.1200000   2.494471e-04  1.671101e-07
    243    235   2   0.50000     0.0600000    0.5100000   3.869820e-04  3.188634e-07
    243    244   2   0.50000     0.0600000    0.0600000   3.930919e-05  8.704828e-09
    243    254   2   0.50000     0.0600000   -0.1200000   2.494471e-04  1.671101e-07
    233    236   2   0.50000    -0.1200000   -0.4300000   1.095425e-03  1.218041e-06
    233    237   2   0.50000    -0.1200000   -0.3300000   1.026091e-03  1.187829e-06
    244    236   2   0.50000     0.0600000   -0.4300000   1.726228e-04  6.344822e-08
    244    237   2   0.50000     0.0600000   -0.3300000   1.616969e-04  6.187447e-08
    254    236   2   0.50000    -0.1200000   -0.4300000   1.095425e-03  1.218041e-06
    254    237   2   0.50000    -0.1200000   -0.3300000   1.026091e-03  1.187829e-06
    233    255   2   0.50000    -0.1200000   -0.0600000   1.015252e-03  1.866303e-06
    233    263   2   0.50000    -0.1200000    0.0600000   2.494471e-04  1.671101e-07
    233    264   2   0.50000    -0.1200000    0.0600000   2.494471e-04  1.671101e-07
    235    255   2   0.50000     0.5100000   -0.0600000   1.575021e-03  3.561100e-06
    235    263   2   0.50000     0.5100000    0.0600000   3.869820e-04  3.188634e-07
    235    264   2   0.50000     0.5100000    0.0600000   3.869820e-04  3.188634e-07
    244    255   2   0.50000     0.0600000   -0.0600000   1.599888e-04  9.721644e-08
    244    263   2   0.50000     0.0600000    0.0600000   3.930919e-05  8.704828e-09
    244    264   2   0.50000     0.0600000    0.0600000   3.930919e-05  8.704828e-09
    234    238   2   0.50000    -0.0600000    0.1900000   1.015252e-03  1.866303e-06
    236    238   2   0.50000    -0.4300000    0.1900000   1.095425e-03  1.218041e-06
    235    239   2   0.50000     0.5100000   -0.1200000   1.575021e-03  3.561100e-06
    235    245   2   0.50000     0.5100000    0.0300000   2.482000e-04  1.854991e-07
    235    246   2   0.50000     0.5100000    0.0300000   2.482000e-04  1.854991e-07
    237    240   2   0.50000    -0.3300000   -0.1200000   1.026091e-03  1.187829e-06
    237    247   2   0.50000    -0.3300000    0.0600000   2.521103e-04  1.063590e-07
    237    248   2   0.50000    -0.3300000    0.0600000   2.521103e-04  1.063590e-07
    245    240   2   0.50000     0.0300000   -0.1200000   1.599888e-04  9.721644e-08
    245    247   2   0.50000     0.0300000    0.0600000   3.930919e-05  8.704828e-09
    245    248   2   0.50000     0.0300000    0.0600000   3.930919e-05  8.704828e-09
    246    240   2   0.50000     0.0300000   -0.1200000   1.599888e-04  9.721644e-08
    246    247   2   0.50000     0.0300000    0.0600000   3.930919e-05  8.704828e-09
    246    248   2   0.50000     0.0300000    0.0600000   3.930919e-05  8.704828e-09
    238    241   2   0.50000     0.1900000   -0.1800000   1.015252e-03  1.866303e-06
    238    249   2   0.50000     0.1900000    0.0600000   2.494471e-04  1.671101e-07
    238    250   2   0.50000     0.1900000    0.0600000   2.494471e-04  1.671101e-07
    247    241   2   0.50000     0.0600000   -0.1800000   2.494471e-04  1.671101e-07
    247    249   2   0.50000     0.0600000    0.0600000   6.128906e-05  1.496315e-08
    247    250   2   0.50000     0.0600000    0.0600000   6.128906e-05  1.496315e-08
    248    241   2   0.50000     0.0600000   -0.1800000   2.494471e-04  1.671101e-07
    248    249   2   0.50000     0.0600000    0.0600000   6.128906e-05  1.496315e-08
    248    250   2   0.50000     0.0600000    0.0600000   6.128906e-05  1.496315e-08
    239    251   2   0.50000    -0.1200000    0.0600000   2.494471e-04  1.671101e-07
    239    252   2   0.50000    -0.1200000    0.0600000   2.494471e-04  1.671101e-07
    239    253   2   0.50000    -0.1200000    0.0600000   2.494471e-04  1.671101e-07
    249    251   2   0.50000     0.0600000    0.0600000   6.128906e-05  1.496315e-08
    249    252   2   0.50000     0.0600000    0.0600000   6.128906e-05  1.496315e-08
    249    253   2   0.50000     0.0600000    0.0600000   6.128906e-05  1.496315e-08
    250    251   2   0.50000     0.0600000    0.0600000   6.128906e-05  1.496315e-08
    250    252   2   0.50000     0.0600000    0.0600000   6.128906e-05  1.496315e-08
    250    253   2   0.50000     0.0600000    0.0600000   6.128906e-05  1.496315e-08
    234    256   2   0.50000    -0.0600000    0.5100000   1.575021e-03  3.561100e-06
    234    265   2   0.50000    -0.0600000    0.0600000   1.599888e-04  9.721644e-08
    234    275   2   0.50000    -0.0600000   -0.1200000   1.015252e-03  1.866303e-06
    263    256   2   0.50000     0.0600000    0.5100000   3.869820e-04  3.188634e-07
    263    265   2   0.50000     0.0600000    0.0600000   3.930919e-05  8.704828e-09
    263    275   2   0.50000     0.0600000   -0.1200000   2.494471e-04  1.671101e-07
    264    256   2   0.50000     0.0600000    0.5100000   3.869820e-04  3.188634e-07
    264    265   2   0.50000     0.0600000    0.0600000   3.930919e-05  8.704828e-09
    264    275   2   0.50000     0.0600000   -0.1200000   2.494471e-04  1.671101e-07
    254    257   2   0.50000    -0.1200000   -0.4300000   1.095425e-03  1.218041e-06
    254    258   2   0.50000    -0.1200000   -0.3300000   1.026091e-03  1.187829e-06
    265    257   2   0.50000     0.0600000   -0.4300000   1.726228e-04  6.344822e-08
    265    258   2   0.50000     0.0600000   -0.3300000   1.616969e-04  6.187447e-08
    275    257   2   0.50000    -0.1200000   -0.4300000   1.095425e-03  1.218041e-06
    275    258   2   0.50000    -0.1200000   -0.3300000   1.026091e-03  1.187829e-06
    254    276   2   0.50000    -0.1200000   -0.0600000   1.015252e-03  1.866303e-06
    254    284   2   0.50000    -0.1200000    0.0600000   2.494471e-04  1.671101e-07
    254    285   2   0.50000    -0.1200000    0.0600000   2.494471e-04  1.671101e-07
    256    276   2   0.50000     0.5100000   -0.0600000   1.575021e-03  3.561100e-06
    256    284   2   0.50000     0.5100000    0.0600000   3.869820e-04  3.188634e-07
    256    285   2   0.50000     0.5100000    0.0600000   3.869820e-04  3.188634e-07
    265    276   2   0.50000     0.0600000   -0.0600000   1.599888e-04  9.721644e-08
    265    284   2   0.50000     0.0600000    0.0600000   3.930919e-05  8.704828e-09
    265    285   2   0.50000     0.0600000    0.0600000   3.930919e-05  8.704828e-09
    255    259   2   0.50000    -0.0600000    0.1900000   1.015252e-03  1.866303e-06
    257    259   2   0.50000    -0.4300000    0.1900000   1.095425e-03  1.218041e-06
    256    260   2   0.50000     0.5100000   -0.1200000   1.575021e-03  3.561100e-06
    256    266   2   0.50000     0.5100000    0.0300000   2.482000e-04  1.854991e-07
    256    267   2   0.50000     0.5100000    0.0300000   2.482000e-04  1.854991e-07
    258    261   2   0.50000    -0.3300000   -0.1200000   1.026091e-03  1.187829e-06
    258    268   2   0.50000    -0.3300000    0.0600000   2.521103e-04  1.063590e-07
    258    269   2   0.50000    -0.3300000    0.0600000   2.521103e-04  1.063590e-07
    266    261   2   0.50000     0.0300000   -0.1200000   1.599888e-04  9.721644e-08
    266    268   2   0.50000     0.0300000    0.0600000   3.930919e-05  8.704828e-09
    266    269   2   0.50000     0.0300000    0.0600000   3.930919e-05  8.704828e-09
    267    261   2   0.50000     0.0300000   -0.1200000   1.599888e-04  9.721644e-08
    267    268   2   0.50000     0.0300000    0.0600000   3.930919e-05  8.704828e-09
    267    269   2   0.50000     0.0300000    0.0600000   3.930919e-05  8.704828e-09
    259    262   2   0.50000     0.1900000   -0.1800000   1.015252e-03  1.866303e-06
    259    270   2   0.50000     0.1900000    0.0600000   2.494471e-04  1.671101e-07
    259    271   2   0.50000     0.1900000    0.0600000   2.494471e-04  1.671101e-07
    268    262   2   0.50000     0.0600000   -0.1800000   2.494471e-04  1.671101e-07
    268    270   2   0.50000     0.0600000    0.0600000   6.128906e-05  1.496315e-08
    268    271   2   0.50000     0.0600000    0.0600000   6.128906e-05  1.496315e-08
    269    262   2   0.50000     0.0600000   -0.1800000   2.494471e-04  1.671101e-07
    269    270   2   0.50000     0.0600000    0.0600000   6.128906e-05  1.496315e-08
    269    271   2   0.50000     0.0600000    0.0600000   6.128906e-05  1.496315e-08
    260    272   2   0.50000    -0.1200000    0.0600000   2.494471e-04  1.671101e-07
    260    273   2   0.50000    -0.1200000    0.0600000   2.494471e-04  1.671101e-07
    260    274   2   0.50000    -0.1200000    0.0600000   2.494471e-04  1.671101e-07
    270    272   2   0.50000     0.0600000    0.0600000   6.128906e-05  1.496315e-08
    270    273   2   0.50000     0.0600000    0.0600000   6.128906e-05  1.496315e-08
    270    274   2   0.50000     0.0600000    0.0600000   6.128906e-05  1.496315e-08
    271    272   2   0.50000     0.0600000    0.0600000   6.128906e-05  1.496315e-08
    271    273   2   0.50000     0.0600000    0.0600000   6.128906e-05  1.496315e-08
    271    274   2   0.50000     0.0600000    0.0600000   6.128906e-05  1.496315e-08
    255    277   2   0.50000    -0.0600000    0.5100000   1.575021e-03  3.561100e-06
    255    286   2   0.50000    -0.0600000    0.0600000   1.599888e-04  9.721644e-08
    255    296   2   0.50000    -0.0600000   -0.1200000   1.015252e-03  1.866303e-06
    284    277   2   0.50000     0.0600000    0.5100000   3.869820e-04  3.188634e-07
    284    286   2   0.50000     0.0600000    0.0600000   3.930919e-05  8.704828e-09
    284    296   2   0.50000     0.0600000   -0.1200000   2.494471e-04  1.671101e-07
    285    277   2   0.50000     0.0600000    0.5100000   3.869820e-04  3.188634e-07
    285    286   2   0.50000     0.0600000    0.0600000   3.930919e-05  8.704828e-09
    285    296   2   0.50000     0.0600000   -0.1200000   2.494471e-04  1.671101e-07
    275    278   2   0.50000    -0.1200000   -0.4300000   1.095425e-03  1.218041e-06
    275    279   2   0.50000    -0.1200000   -0.3300000   1.026091e-03  1.187829e-06
    286    278   2   0.50000     0.0600000   -0.4300000   1.726228e-04  6.344822e-08
    286    279   2   0.50000     0.0600000   -0.3300000   1.616969e-04  6.187447e-08
    296    278   2   0.50000    -0.1200000   -0.4300000   1.095425e-03  1.218041e-06
    296    279   2   0.50000    -0.1200000   -0.3300000   1.026091e-03  1.187829e-06
    275    297   2   0.50000    -0.1200000   -0.0600000   1.015252e-03  1.866303e-06
    275    305   2   0.50000    -0.1200000    0.0600000   2.494471e-04  1.671101e-07
    275    306   2   0.50000    -0.1200000    0.0600000   2.494471e-04  1.671101e-07
    277    297   2   0.50000     0.5100000   -0.0600000   1.575021e-03  3.561100e-06
    277    305   2   0.50000     0.5100000    0.0600000   3.869820e-04  3.188634e-07
    277    306   2   0.50000     0.5100000    0.0600000   3.869820e-04  3.188634e-07
    286    297   2   0.50000     0.0600000   -0.0600000   1.599888e-04  9.721644e-08
    286    305   2   0.50000     0.0600000    0.0600000   3.930919e-05  8.704828e-09
    286    306   2   0.50000     0.0600000    0.0600000   3.930919e-05  8.704828e-09
    276    280   2   0.50000    -0.0600000    0.1900000   1.015252e-03  1.866303e-06
    278    280   2   0.50000    -0.4300000    0.1900000   1.095425e-03  1.218041e-06
    277    281   2   0.50000     0.5100000   -0.1200000   1.575021e-03  3.561100e-06
    277    287   2   0.50000     0.5100000    0.0300000   2.482000e-04  1.854991e-07
    277    288   2   0.50000     0.5100000    0.0300000   2.482000e-04  1.854991e-07
    279    282   2   0.50000    -0.3300000   -0.1200000   1.026091e-03  1.187829e-06
    279    289   2   0.50000    -0.3300000    0.0600000   2.521103e-04  1.063590e-07
    279    290   2   0.50000    -0.3300000    0.0600000   2.521103e-04  1.063590e-07
    287    282   2   0.50000     0.0300000   -0.1200000   1.599888e-04  9.721644e-08
    287    289   2   0.50000     0.0300000    0.0600000   3.930919e-05  8.704828e-09
    287    290   2   0.50000     0.0300000    0.0600000   3.930919e-05  8.704828e-09
    288    282   2   0.50000     0.0300000   -0.1200000   1.599888e-04  9.721644e-08
    288    289   2   0.50000     0.0300000    0.0600000   3.930919e-05  8.704828e-09
    288    290   2   0.50000     0.0300000    0.0600000   3.930919e-05  8.704828e-09
    280    283   2   0.50000     0.1900000   -0.1800000   1.015252e-03  1.866303e-06
    280    291   2   0.50000     0.1900000    0.0600000   2.494471e-04  1.671101e-07
    280    292   2   0.50000     0.1900000    0.0600000   2.494471e-04  1.671101e-07
    289    283   2   0.50000     0.0600000   -0.1800000   2.494471e-04  1.671101e-07
    289    291   2   0.50000     0.0600000    0.0600000   6.128906e-05  1.496315e-08
    289    292   2   0.50000     0.0600000    0.0600000   6.128906e-05  1.496315e-08
    290    283   2   0.50000     0.0600000   -0.1800000   2.494471e-04  1.671101e-07
    290    291   2   0.50000     0.0600000    0.0600000   6.128906e-05  1.496315e-08
    290    292   2   0.50000     0.0600000    0.0600000   6.128906e-05  1.496315e-08
    281    293   2   0.50000    -0.1200000    0.0600000   2.494471e-04  1.671101e-07
    281    294   2   0.50000    -0.1200000    0.0600000   2.494471e-04  1.671101e-07
    281    295   2   0.50000    -0.1200000    0.0600000   2.494471e-04  1.671101e-07
    291    293   2   0.50000     0.0600000    0.0600000   6.128906e-05  1.496315e-08
    291    294   2   0.50000     0.0600000    0.0600000   6.128906e-05  1.496315e-08
    291    295   2   0.50000     0.0600000    0.0600000   6.128906e-05  1.496315e-08
    292    293   2   0.50000     0.0600000    0.0600000   6.128906e-05  1.496315e-08
    292    294   2   0.50000     0.0600000    0.0600000   6.128906e-05  1.496315e-08
    292    295   2   0.50000     0.0600000    0.0600000   6.128906e-05  1.496315e-08
    276    298   2   0.50000    -0.0600000    0.5100000   1.575021e-03  3.561100e-06
    276    307   2   0.50000    -0.0600000    0.0600000   1.599888e-04  9.721644e-08
    276    317   2   0.50000    -0.0600000   -0.1200000   1.015252e-03  1.866303e-06
    305    298   2   0.50000     0.0600000    0.5100000   3.869820e-04  3.188634e-07
    305    307   2   0.50000     0.0600000    0.0600000   3.930919e-05  8.704828e-09
    305    317   2   0.50000     0.0600000   -0.1200000   2.494471e-04  1.671101e-07
    306    298   2   0.50000     0.0600000    0.5100000   3.869820e-04  3.188634e-07
    306    307   2   0.50000     0.0600000    0.0600000   3.930919e-05  8.704828e-09
    306    317   2   0.50000     0.0600000   -0.1200000   2.494471e-04  1.671101e-07
    296    299   2   0.50000    -0.1200000   -0.4300000   1.095425e-03  1.218041e-06
    296    300   2   0.50000    -0.1200000   -0.3300000   1.026091e-03  1.187829e-06
    307    299   2   0.50000     0.0600000   -0.4300000   1.726228e-04  6.344822e-08
    307    300   2   0.50000     0.0600000   -0.3300000   1.616969e-04  6.187447e-08
    317    299   2   0.50000    -0.1200000   -0.4300000   1.095425e-03  1.218041e-06
    317    300   2   0.50000    -0.1200000   -0.3300000   1.026091e-03  1.187829e-06
    296    318   2   0.50000    -0.1200000   -0.0600000   1.015252e-03  1.866303e-06
    296    326   2   0.50000    -0.1200000    0.0600000   2.494471e-04  1.671101e-07
    296    327   2   0.50000    -0.1200000    0.0600000   2.494471e-04  1.671101e-07
    298    318   2   0.50000     0.5100000   -0.0600000   1.575021e-03  3.561100e-06
    298    326   2   0.50000     0.5100000    0.0600000   3.869820e-04  3.188634e-07
    298    327   2   0.50000     0.5100000    0.0600000   3.869820e-04  3.188634e-07
    307    318   2   0.50000     0.0600000   -0.0600000   1.599888e-04  9.721644e-08
    307    326   2   0.50000     0.0600000    0.0600000   3.930919e-05  8.704828e-09
    307    327   2   0.50000     0.0600000    0.0600000   3.930919e-05  8.704828e-09
    297    301   2   0.50000    -0.0600000    0.1900000   1.015252e-03  1.866303e-06
    299    301   2   0.50000    -0.4300000    0.1900000   1.095425e-03  1.218041e-06
    298    302   2   0.50000     0.5100000   -0.1200000   1.575021e-03  3.561100e-06
    298    308   2   0.50000     0.5100000    0.0300000   2.482000e-04  1.854991e-07
    298    309   2   0.50000     0.5100000    0.0300000   2.482000e-04  1.854991e-07
    300    303   2   0.50000    -0.3300000   -0.1200000   1.026091e-03  1.187829e-06
    300    310   2   0.50000    -0.3300000    0.0600000   2.521103e-04  1.063590e-07
    300    311   2   0.50000    -0.3300000    0.0600000   2.521103e-04  1.063590e-07
    308    303   2   0.50000     0.0300000   -0.1200000   1.599888e-04  9.721644e-08
    308    310   2   0.50000     0.0300000    0.0600000   3.930919e-05  8.704828e-09
    308    311   2   0.50000     0.0300000    0.0600000   3.930919e-05  8.704828e-09
    309    303   2   0.50000     0.0300000   -0.1200000   1.599888e-04  9.721644e-08
    309    310   2   0.50000     0.0300000    0.0600000   3.930919e-05  8.704828e-09
    309    311   2   0.50000     0.0300000    0.0600000   3.930919e-05  8.704828e-09
    301    304   2   0.50000     0.1900000   -0.1800000   1.015252e-03  1.866303e-06
    301    312   2   0.50000     0.1900000    0.0600000   2.494471e-04  1.671101e-07
    301    313   2   0.50000     0.1900000    0.0600000   2.494471e-04  1.671101e-07
    310    304   2   0.50000     0.0600000   -0.1800000   2.494471e-04  1.671101e-07
    310    312   2   0.50000     0.0600000    0.0600000   6.128906e-05  1.496315e-08
    310    313   2   0.50000     0.0600000    0.0600000   6.128906e-05  1.496315e-08
    311    304   2   0.50000     0.0600000   -0.1800000   2.494471e-04  1.671101e-07
    311    312   2   0.50000     0.0600000    0.0600000   6.128906e-05  1.496315e-08
    311    313   2   0.50000     0.0600000    0.0600000   6.128906e-05  1.496315e-08
    302    314   2   0.50000    -0.1200000    0.0600000   2.494471e-04  1.671101e-07
    302    315   2   0.50000    -0.1200000    0.0600000   2.494471e-04  1.671101e-07
    302    316   2   0.50000    -0.1200000    0.0600000   2.494471e-04  1.671101e-07
    312    314   2   0.50000     0.0600000    0.0600000   6.128906e-05  1.496315e-08
    312    315   2   0.50000     0.0600000    0.0600000   6.128906e-05  1.496315e-08
    312    316   2   0.50000     0.0600000    0.0600000   6.128906e-05  1.496315e-08
    313    314   2   0.50000     0.0600000    0.0600000   6.128906e-05  1.496315e-08
    313    315   2   0.50000     0.0600000    0.0600000   6.128906e-05  1.496315e-08
    313    316   2   0.50000     0.0600000    0.0600000   6.128906e-05  1.496315e-08
    297    319   2   0.50000    -0.0600000    0.5100000   1.575021e-03  3.561100e-06
    297    328   2   0.50000    -0.0600000    0.0600000   1.599888e-04  9.721644e-08
    297    338   2   0.50000    -0.0600000   -0.1200000   1.015252e-03  1.866303e-06
    326    319   2   0.50000     0.0600000    0.5100000   3.869820e-04  3.188634e-07
    326    328   2   0.50000     0.0600000    0.0600000   3.930919e-05  8.704828e-09
    326    338   2   0.50000     0.0600000   -0.1200000   2.494471e-04  1.671101e-07
    327    319   2   0.50000     0.0600000    0.5100000   3.869820e-04  3.188634e-07
    327    328   2   0.50000     0.0600000    0.0600000   3.930919e-05  8.704828e-09
    327    338   2   0.50000     0.0600000   -0.1200000   2.494471e-04  1.671101e-07
    317    320   2   0.50000    -0.1200000   -0.4300000   1.095425e-03  1.218041e-06
    317    321   2   0.50000    -0.1200000   -0.3300000   1.026091e-03  1.187829e-06
    328    320   2   0.50000     0.0600000   -0.4300000   1.726228e-04  6.344822e-08
    328    321   2   0.50000     0.0600000   -0.3300000   1.616969e-04  6.187447e-08
    338    320   2   0.50000    -0.1200000   -0.4300000   1.095425e-03  1.218041e-06
    338    321   2   0.50000    -0.1200000   -0.3300000   1.026091e-03  1.187829e-06
    317    339   2   0.50000    -0.1200000   -0.0600000   1.015252e-03  1.866303e-06
    317    347   2   0.50000    -0.1200000    0.0600000   2.494471e-04  1.671101e-07
    317    348   2   0.50000    -0.1200000    0.0600000   2.494471e-04  1.671101e-07
    319    339   2   0.50000     0.5100000   -0.0600000   1.575021e-03  3.561100e-06
    319    347   2   0.50000     0.5100000    0.0600000   3.869820e-04  3.188634e-07
    319    348   2   0.50000     0.5100000    0.0600000   3.869820e-04  3.188634e-07
    328    339   2   0.50000     0.0600000   -0.0600000   1.599888e-04  9.721644e-08
    328    347   2   0.50000     0.0600000    0.0600000   3.930919e-05  8.704828e-09
    328    348   2   0.50000     0.0600000    0.0600000   3.930919e-05  8.704828e-09
    318    322   2   0.50000    -0.0600000    0.1900000   1.015252e-03  1.866303e-06
    320    322   2   0.50000    -0.4300000    0.1900000   1.095425e-03  1.218041e-06
    319    323   2   0.50000     0.5100000   -0.1200000   1.575021e-03  3.561100e-06
    319    329   2   0.50000     0.5100000    0.0300000   2.482000e-04  1.854991e-07
    319    330   2   0.50000     0.5100000    0.0300000   2.482000e-04  1.854991e-07
    321    324   2   0.50000    -0.3300000   -0.1200000   1.026091e-03  1.187829e-06
    321    331   2   0.50000    -0.3300000    0.0600000   2.521103e-04  1.063590e-07
    321    332   2   0.50000    -0.3300000    0.0600000   2.521103e-04  1.063590e-07
    329    324   2   0.50000     0.0300000   -0.1200000   1.599888e-04  9.721644e-08
    329    331   2   0.50000     0.0300000    0.0600000   3.930919e-05  8.704828e-09
    329    332   2   0.50000     0.0300000    0.0600000   3.930919e-05  8.704828e-09
    330    324   2   0.50000     0.0300000   -0.1200000   1.599888e-04  9.721644e-08
    330    331   2   0.50000     0.0300000    0.0600000   3.930919e-05  8.704828e-09
    330    332   2   0.50000     0.0300000    0.0600000   3.930919e-05  8.704828e-09
    322    325   2   0.50000     0.1900000   -0.1800000   1.015252e-03  1.866303e-06
    322    333   2   0.50000     0.1900000    0.0600000   2.494471e-04  1.671101e-07
    322    334   2   0.50000     0.1900000    0.0600000   2.494471e-04  1.671101e-07
    331    325   2   0.50000     0.0600000   -0.1800000   2.494471e-04  1.671101e-07
    331    333   2   0.50000     0.0600000    0.0600000   6.128906e-05  1.496315e-08
    331    334   2   0.50000     0.0600000    0.0600000   6.128906e-05  1.496315e-08
    332    325   2   0.50000     0.0600000   -0.1800000   2.494471e-04  1.671101e-07
    332    333   2   0.50000     0.0600000    0.0600000   6.128906e-05  1.496315e-08
    332    334   2   0.50000     0.0600000    0.0600000   6.128906e-05  1.496315e-08
    323    335   2   0.50000    -0.1200000    0.0600000   2.494471e-04  1.671101e-07
    323    336   2   0.50000    -0.1200000    0.0600000   2.494471e-04  1.671101e-07
    323    337   2   0.50000    -0.1200000    0.0600000   2.494471e-04  1.671101e-07
    333    335   2   0.50000     0.0600000    0.0600000   6.128906e-05  1.496315e-08
    333    336   2   0.50000     0.0600000    0.0600000   6.128906e-05  1.496315e-08
    333    337   2   0.50000     0.0600000    0.0600000   6.128906e-05  1.496315e-08
    334    335   2   0.50000     0.0600000    0.0600000   6.128906e-05  1.496315e-08
    334    336   2   0.50000     0.0600000    0.0600000   6.128906e-05  1.496315e-08
    334    337   2   0.50000     0.0600000    0.0600000   6.128906e-05  1.496315e-08
    318    340   2   0.50000    -0.0600000    0.5100000   1.575021e-03  3.561100e-06
    318    349   2   0.50000    -0.0600000    0.0600000   1.599888e-04  9.721644e-08
    318    359   2   0.50000    -0.0600000   -0.1200000   1.015252e-03  1.866303e-06
    347    340   2   0.50000     0.0600000    0.5100000   3.869820e-04  3.188634e-07
    347    349   2   0.50000     0.0600000    0.0600000   3.930919e-05  8.704828e-09
    347    359   2   0.50000     0.0600000   -0.1200000   2.494471e-04  1.671101e-07
    348    340   2   0.50000     0.0600000    0.5100000   3.869820e-04  3.188634e-07
    348    349   2   0.50000     0.0600000    0.0600000   3.930919e-05  8.704828e-09
    348    359   2   0.50000     0.0600000   -0.1200000   2.494471e-04  1.671101e-07
    338    341   2   0.50000    -0.1200000   -0.4300000   1.095425e-03  1.218041e-06
    338    342   2   0.50000    -0.1200000   -0.3300000   1.026091e-03  1.187829e-06
    349    341   2   0.50000     0.0600000   -0.4300000   1.726228e-04  6.344822e-08
    349    342   2   0.50000     0.0600000   -0.3300000   1.616969e-04  6.187447e-08
    359    341   2   0.50000    -0.1200000   -0.4300000   1.095425e-03  1.218041e-06
    359    342   2   0.50000    -0.1200000   -0.3300000   1.026091e-03  1.187829e-06
    338    360   2   0.50000    -0.1200000   -0.0600000   1.015252e-03  1.866303e-06
    338    368   2   0.50000    -0.1200000    0.0600000   2.494471e-04  1.671101e-07
    338    369   2   0.50000    -0.1200000    0.0600000   2.494471e-04  1.671101e-07
    340    360   2   0.50000     0.5100000   -0.0600000   1.575021e-03  3.561100e-06
    340    368   2   0.50000     0.5100000    0.0600000   3.869820e-04  3.188634e-07
    340    369   2   0.50000     0.5100000    0.0600000   3.869820e-04  3.188634e-07
    349    360   2   0.50000     0.0600000   -0.0600000   1.599888e-04  9.721644e-08
    349    368   2   0.50000     0.0600000    0.0600000   3.930919e-05  8.704828e-09
    349    369   2   0.50000     0.0600000    0.0600000   3.930919e-05  8.704828e-09
    339    343   2   0.50000    -0.0600000    0.1900000   1.015252e-03  1.866303e-06
    341    343   2   0.50000    -0.4300000    0.1900000   1.095425e-03  1.218041e-06
    340    344   2   0.50000     0.5100000   -0.1200000   1.575021e-03  3.561100e-06
    340    350   2   0.50000     0.5100000    0.0300000   2.482000e-04  1.854991e-07
    340    351   2   0.50000     0.5100000    0.0300000   2.482000e-04  1.854991e-07
    342    345   2   0.50000    -0.3300000   -0.1200000   1.026091e-03  1.187829e-06
    342    352   2   0.50000    -0.3300000    0.0600000   2.521103e-04  1.063590e-07
    342    353   2   0.50000    -0.3300000    0.0600000   2.521103e-04  1.063590e-07
    350    345   2   0.50000     0.0300000   -0.1200000   1.599888e-04  9.721644e-08
    350    352   2   0.50000     0.0300000    0.0600000   3.930919e-05  8.704828e-09
    350    353   2   0.50000     0.0300000    0.0600000   3.930919e-05  8.704828e-09
    351    345   2   0.50000     0.0300000   -0.1200000   1.599888e-04  9.721644e-08
    351    352   2   0.50000     0.0300000    0.0600000   3.930919e-05  8.704828e-09
    351    353   2   0.50000     0.0300000    0.0600000   3.930919e-05  8.704828e-09
    343    346   2   0.50000     0.1900000   -0.1800000   1.015252e-03  1.866303e-06
    343    354   2   0.50000     0.1900000    0.0600000   2.494471e-04  1.671101e-07
    343    355   2   0.50000     0.1900000    0.0600000   2.494471e-04  1.671101e-07
    352    346   2   0.50000     0.0600000   -0.1800000   2.494471e-04  1.671101e-07
    352    354   2   0.50000     0.0600000    0.0600000   6.128906e-05  1.496315e-08
    352    355   2   0.50000     0.0600000    0.0600000   6.128906e-05  1.496315e-08
    353    346   2   0.50000     0.0600000   -0.1800000   2.494471e-04  1.671101e-07
    353    354   2   0.50000     0.0600000    0.0600000   6.128906e-05  1.496315e-08
    353    355   2   0.50000     0.0600000    0.0600000   6.128906e-05  1.496315e-08
    344    356   2   0.50000    -0.1200000    0.0600000   2.494471e-04  1.671101e-07
    344    357   2   0.50000    -0.1200000    0.0600000   2.494471e-04  1.671101e-07
    344    358   2   0.50000    -0.1200000    0.0600000   2.494471e-04  1.671101e-07
    354    356   2   0.50000     0.0600000    0.0600000   6.128906e-05  1.496315e-08
    354    357   2   0.50000     0.0600000    0.0600000   6.128906e-05  1.496315e-08
    354    358   2   0.50000     0.0600000    0.0600000   6.128906e-05  1.496315e-08
    355    356   2   0.50000     0.0600000    0.0600000   6.128906e-05  1.496315e-08
    355    357   2   0.50000     0.0600000    0.0600000   6.128906e-05  1.496315e-08
    355    358   2   0.50000     0.0600000    0.0600000   6.128906e-05  1.496315e-08
    339    361   2   0.50000    -0.0600000    0.5100000   1.575021e-03  3.561100e-06
    339    370   2   0.50000    -0.0600000    0.0600000   1.599888e-04  9.721644e-08
    339    380   2   0.50000    -0.0600000   -0.1200000   1.015252e-03  1.866303e-06
    368    361   2   0.50000     0.0600000    0.5100000   3.869820e-04  3.188634e-07
    368    370   2   0.50000     0.0600000    0.0600000   3.930919e-05  8.704828e-09
    368    380   2   0.50000     0.0600000   -0.1200000   2.494471e-04  1.671101e-07
    369    361   2   0.50000     0.0600000    0.5100000   3.869820e-04  3.188634e-07
    369    370   2   0.50000     0.0600000    0.0600000   3.930919e-05  8.704828e-09
    369    380   2   0.50000     0.0600000   -0.1200000   2.494471e-04  1.671101e-07
    359    362   2   0.50000    -0.1200000   -0.4300000   1.095425e-03  1.218041e-06
    359    363   2   0.50000    -0.1200000   -0.3300000   1.026091e-03  1.187829e-06
    370    362   2   0.50000     0.0600000   -0.4300000   1.726228e-04  6.344822e-08
    370    363   2   0.50000     0.0600000   -0.3300000   1.616969e-04  6.187447e-08
    380    362   2   0.50000    -0.1200000   -0.4300000   1.095425e-03  1.218041e-06
    380    363   2   0.50000    -0.1200000   -0.3300000   1.026091e-03  1.187829e-06
    359    381   2   0.50000    -0.1200000   -0.0600000   1.015252e-03  1.866303e-06
    359    389   2   0.50000    -0.1200000    0.0600000   2.494471e-04  1.671101e-07
    359    390   2   0.50000    -0.1200000    0.0600000   2.494471e-04  1.671101e-07
    361    381   2   0.50000     0.5100000   -0.0600000   1.575021e-03  3.561100e-06
    361    389   2   0.50000     0.5100000    0.0600000   3.869820e-04  3.188634e-07
    361    390   2   0.50000     0.5100000    0.0600000   3.869820e-04  3.188634e-07
    370    381   2   0.50000     0.0600000   -0.0600000   1.599888e-04  9.721644e-08
    370    389   2   0.50000     0.0600000    0.0600000   3.930919e-05  8.704828e-09
    370    390   2   0.50000     0.0600000    0.0600000   3.930919e-05  8.704828e-09
    360    364   2   0.50000    -0.0600000    0.1900000   1.015252e-03  1.866303e-06
    362    364   2   0.50000    -0.4300000    0.1900000   1.095425e-03  1.218041e-06
    361    365   2   0.50000     0.5100000   -0.1200000   1.575021e-03  3.561100e-06
    361    371   2   0.50000     0.5100000    0.0300000   2.482000e-04  1.854991e-07
    361    372   2   0.50000     0.5100000    0.0300000   2.482000e-04  1.854991e-07
    363    366   2   0.50000    -0.3300000   -0.1200000   1.026091e-03  1.187829e-06
    363    373   2   0.50000    -0.3300000    0.0600000   2.521103e-04  1.063590e-07
    363    374   2   0.50000    -0.3300000    0.0600000   2.521103e-04  1.063590e-07
    371    366   2   0.50000     0.0300000   -0.1200000   1.599888e-04  9.721644e-08
    371    373   2   0.50000     0.0300000    0.0600000   3.930919e-05  8.704828e-09
    371    374   2   0.50000     0.0300000    0.0600000   3.930919e-05  8.704828e-09
    372    366   2   0.50000     0.0300000   -0.1200000   1.599888e-04  9.721644e-08
    372    373   2   0.50000     0.0300000    0.0600000   3.930919e-05  8.704828e-09
    372    374   2   0.50000     0.0300000    0.0600000   3.930919e-05  8.704828e-09
    364    367   2   0.50000     0.1900000   -0.1800000   1.015252e-03  1.866303e-06
    364    375   2   0.50000     0.1900000    0.0600000   2.494471e-04  1.671101e-07
    364    376   2   0.50000     0.1900000    0.0600000   2.494471e-04  1.671101e-07
    373    367   2   0.50000     0.0600000   -0.1800000   2.494471e-04  1.671101e-07
    373    375   2   0.50000     0.0600000    0.0600000   6.128906e-05  1.496315e-08
    373    376   2   0.50000     0.0600000    0.0600000   6.128906e-05  1.496315e-08
    374    367   2   0.50000     0.0600000   -0.1800000   2.494471e-04  1.671101e-07
    374    375   2   0.50000     0.0600000    0.0600000   6.128906e-05  1.496315e-08
    374    376   2   0.50000     0.0600000    0.0600000   6.128906e-05  1.496315e-08
    365    377   2   0.50000    -0.1200000    0.0600000   2.494471e-04  1.671101e-07
    365    378   2   0.50000    -0.1200000    0.0600000   2.494471e-04  1.671101e-07
    365    379   2   0.50000    -0.1200000    0.0600000   2.494471e-04  1.671101e-07
    375    377   2   0.50000     0.0600000    0.0600000   6.128906e-05  1.496315e-08
    375    378   2   0.50000     0.0600000    0.0600000   6.128906e-05  1.496315e-08
    375    379   2   0.50000     0.0600000    0.0600000   6.128906e-05  1.496315e-08
    376    377   2   0.50000     0.0600000    0.0600000   6.128906e-05  1.496315e-08
    376    378   2   0.50000     0.0600000    0.0600000   6.128906e-05  1.496315e-08
    376    379   2   0.50000     0.0600000    0.0600000   6.128906e-05  1.496315e-08
    360    382   2   0.50000    -0.0600000    0.5100000   1.575021e-03  3.561100e-06
    360    391   2   0.50000    -0.0600000    0.0600000   1.599888e-04  9.721644e-08
    360    401   2   0.50000    -0.0600000   -0.1200000   1.015252e-03  1.866303e-06
    389    382   2   0.50000     0.0600000    0.5100000   3.869820e-04  3.188634e-07
    389    391   2   0.50000     0.0600000    0.0600000   3.930919e-05  8.704828e-09
    389    401   2   0.50000     0.0600000   -0.1200000   2.494471e-04  1.671101e-07
    390    382   2   0.50000     0.0600000    0.5100000   3.869820e-04  3.188634e-07
    390    391   2   0.50000     0.0600000    0.0600000   3.930919e-05  8.704828e-09
    390    401   2   0.50000     0.0600000   -0.1200000   2.494471e-04  1.671101e-07
    380    383   2   0.50000    -0.1200000   -0.4300000   1.095425e-03  1.218041e-06
    380    384   2   0.50000    -0.1200000   -0.3300000   1.026091e-03  1.187829e-06
    391    383   2   0.50000     0.0600000   -0.4300000   1.726228e-04  6.344822e-08
    391    384   2   0.50000     0.0600000   -0.3300000   1.616969e-04  6.187447e-08
    401    383   2   0.50000    -0.1200000   -0.4300000   1.095425e-03  1.218041e-06
    401    384   2   0.50000    -0.1200000   -0.3300000   1.026091e-03  1.187829e-06
    380    402   2   0.50000    -0.1200000   -0.1200000   1.015252e-03  1.866303e-06
    380    410   2   0.50000    -0.1200000    0.0600000   2.494471e-04  1.671101e-07
    380    411   2   0.50000    -0.1200000    0.0600000   2.494471e-04  1.671101e-07
    382    402   2   0.50000     0.5100000   -0.1200000   1.575021e-03  3.561100e-06
    382    410   2   0.50000     0.5100000    0.0600000   3.869820e-04  3.188634e-07
    382    411   2   0.50000     0.5100000    0.0600000   3.869820e-04  3.188634e-07
    391    402   2   0.50000     0.0600000   -0.1200000   1.599888e-04  9.721644e-08
    391    410   2   0.50000     0.0600000    0.0600000   3.930919e-05  8.704828e-09
    391    411   2   0.50000     0.0600000    0.0600000   3.930919e-05  8.704828e-09
    381    385   2   0.50000    -0.0600000    0.1900000   1.015252e-03  1.866303e-06
    383    385   2   0.50000    -0.4300000    0.1900000   1.095425e-03  1.218041e-06
    382    386   2   0.50000     0.5100000   -0.1200000   1.575021e-03  3.561100e-06
    382    392   2   0.50000     0.5100000    0.0300000   2.482000e-04  1.854991e-07
    382    393   2   0.50000     0.5100000    0.0300000   2.482000e-04  1.854991e-07
    384    387   2   0.50000    -0.3300000   -0.1200000   1.026091e-03  1.187829e-06
    384    394   2   0.50000    -0.3300000    0.0600000   2.521103e-04  1.063590e-07
    384    395   2   0.50000    -0.3300000    0.0600000   2.521103e-04  1.063590e-07
    392    387   2   0.50000     0.0300000   -0.1200000   1.599888e-04  9.721644e-08
    392    394   2   0.50000     0.0300000    0.0600000   3.930919e-05  8.704828e-09
    392    395   2   0.50000     0.0300000    0.0600000   3.930919e-05  8.704828e-09
    393    387   2   0.50000     0.0300000   -0.1200000   1.599888e-04  9.721644e-08
    393    394   2   0.50000     0.0300000    0.0600000   3.930919e-05  8.704828e-09
    393    395   2   0.50000     0.0300000    0.0600000   3.930919e-05  8.704828e-09
    385    388   2   0.50000     0.1900000   -0.1800000   1.015252e-03  1.866303e-06
    385    396   2   0.50000     0.1900000    0.0600000   2.494471e-04  1.671101e-07
    385    397   2   0.50000     0.1900000    0.0600000   2.494471e-04  1.671101e-07
    394    388   2   0.50000     0.0600000   -0.1800000   2.494471e-04  1.671101e-07
    394    396   2   0.50000     0.0600000    0.0600000   6.128906e-05  1.496315e-08
    394    397   2   0.50000     0.0600000    0.0600000   6.128906e-05  1.496315e-08
    395    388   2   0.50000     0.0600000   -0.1800000   2.494471e-04  1.671101e-07
    395    396   2   0.50000     0.0600000    0.0600000   6.128906e-05  1.496315e-08
    395    397   2   0.50000     0.0600000    0.0600000   6.128906e-05  1.496315e-08
    386    398   2   0.50000    -0.1200000    0.0600000   2.494471e-04  1.671101e-07
    386    399   2   0.50000    -0.1200000    0.0600000   2.494471e-04  1.671101e-07
    386    400   2   0.50000    -0.1200000    0.0600000   2.494471e-04  1.671101e-07
    396    398   2   0.50000     0.0600000    0.0600000   6.128906e-05  1.496315e-08
    396    399   2   0.50000     0.0600000    0.0600000   6.128906e-05  1.496315e-08
    396    400   2   0.50000     0.0600000    0.0600000   6.128906e-05  1.496315e-08
    397    398   2   0.50000     0.0600000    0.0600000   6.128906e-05  1.496315e-08
    397    399   2   0.50000     0.0600000    0.0600000   6.128906e-05  1.496315e-08
    397    400   2   0.50000     0.0600000    0.0600000   6.128906e-05  1.496315e-08
    381    403   2   0.50000    -0.0600000    0.5100000   1.575021e-03  3.561100e-06
    381    412   2   0.50000    -0.0600000    0.0600000   1.599888e-04  9.721644e-08
    381    422   2   0.50000    -0.0600000    0.0600000   1.599888e-04  9.721644e-08
    410    403   2   0.50000     0.0600000    0.5100000   3.869820e-04  3.188634e-07
    410    412   2   0.50000     0.0600000    0.0600000   3.930919e-05  8.704828e-09
    410    422   2   0.50000     0.0600000    0.0600000   3.930919e-05  8.704828e-09
    411    403   2   0.50000     0.0600000    0.5100000   3.869820e-04  3.188634e-07
    411    412   2   0.50000     0.0600000    0.0600000   3.930919e-05  8.704828e-09
    411    422   2   0.50000     0.0600000    0.0600000   3.930919e-05  8.704828e-09
    401    404   2   0.50000    -0.1200000   -0.4300000   1.095425e-03  1.218041e-06
    401    405   2   0.50000    -0.1200000   -0.3300000   1.026091e-03  1.187829e-06
    412    404   2   0.50000     0.0600000   -0.4300000   1.726228e-04  6.344822e-08
    412    405   2   0.50000     0.0600000   -0.3300000   1.616969e-04  6.187447e-08
    422    404   2   0.50000     0.0600000   -0.4300000   1.726228e-04  6.344822e-08
    422    405   2   0.50000     0.0600000   -0.3300000   1.616969e-04  6.187447e-08
    402    406   2   0.50000    -0.1200000    0.1900000   1.015252e-03  1.866303e-06
    404    406   2   0.50000    -0.4300000    0.1900000   1.095425e-03  1.218041e-06
    403    407   2   0.50000     0.5100000   -0.1200000   1.575021e-03  3.561100e-06
    403    413   2   0.50000     0.5100000    0.0300000   2.482000e-04  1.854991e-07
    403    414   2   0.50000     0.5100000    0.0300000   2.482000e-04  1.854991e-07
    405    408   2   0.50000    -0.3300000   -0.1200000   1.026091e-03  1.187829e-06
    405    415   2   0.50000    -0.3300000    0.0600000   2.521103e-04  1.063590e-07
    405    416   2   0.50000    -0.3300000    0.0600000   2.521103e-04  1.063590e-07
    413    408   2   0.50000     0.0300000   -0.1200000   1.599888e-04  9.721644e-08
    413    415   2   0.50000     0.0300000    0.0600000   3.930919e-05  8.704828e-09
    413    416   2   0.50000     0.0300000    0.0600000   3.930919e-05  8.704828e-09
    414    408   2   0.50000     0.0300000   -0.1200000   1.599888e-04  9.721644e-08
    414    415   2   0.50000     0.0300000    0.0600000   3.930919e-05  8.704828e-09
    414    416   2   0.50000     0.0300000    0.0600000   3.930919e-05  8.704828e-09
    406    409   2   0.50000     0.1900000   -0.1800000   1.015252e-03  1.866303e-06
    406    417   2   0.50000     0.1900000    0.0600000   2.494471e-04  1.671101e-07
    406    418   2   0.50000     0.1900000    0.0600000   2.494471e-04  1.671101e-07
    415    409   2   0.50000     0.0600000   -0.1800000   2.494471e-04  1.671101e-07
    415    417   2   0.50000     0.0600000    0.0600000   6.128906e-05  1.496315e-08
    415    418   2   0.50000     0.0600000    0.0600000   6.128906e-05  1.496315e-08
    416    409   2   0.50000     0.0600000   -0.1800000   2.494471e-04  1.671101e-07
    416    417   2   0.50000     0.0600000    0.0600000   6.128906e-05  1.496315e-08
    416    418   2   0.50000     0.0600000    0.0600000   6.128906e-05  1.496315e-08
    407    419   2   0.50000    -0.1200000    0.0600000   2.494471e-04  1.671101e-07
    407    420   2   0.50000    -0.1200000    0.0600000   2.494471e-04  1.671101e-07
    407    421   2   0.50000    -0.1200000    0.0600000   2.494471e-04  1.671101e-07
    417    419   2   0.50000     0.0600000    0.0600000   6.128906e-05  1.496315e-08
    417    420   2   0.50000     0.0600000    0.0600000   6.128906e-05  1.496315e-08
    417    421   2   0.50000     0.0600000    0.0600000   6.128906e-05  1.496315e-08
    418    419   2   0.50000     0.0600000    0.0600000   6.128906e-05  1.496315e-08
    418    420   2   0.50000     0.0600000    0.0600000   6.128906e-05  1.496315e-08
    418    421   2   0.50000     0.0600000    0.0600000   6.128906e-05  1.496315e-08

[ angles ]
; ai  aj  ak
      2      1     10   1    110.7000    313.8000
      2      1     11   1    110.7000    313.8000
      2      1     22   1    110.7000    313.8000
     10      1     11   1    107.8000    276.1440
     10      1     22   1    107.8000    276.1440
     11      1     22   1    107.8000    276.1440
      1      2      3   1    111.1000    527.1840
      1      2     12   1    110.7000    313.8000
      1      2     23   1    112.7000    488.2728
      3      2     12   1    109.5000    292.8800
      3      2     23   1    111.1000    527.1840
     12      2     23   1    110.7000    313.8000
      2      3      4   1    120.4000    669.4400
      2      3      5   1    111.4000    677.8080
      4      3      5   1    123.4000    694.5440
      3      5      6   1    116.9000    694.5440
      5      6      7   1    109.5000    418.4000
      5      6     13   1    109.5000    292.8800
      5      6     14   1    109.5000    292.8800
      7      6     13   1    110.7000    313.8000
      7      6     14   1    110.7000    313.8000
     13      6     14   1    107.8000    276.1440
      6      7      8   1    112.7000    488.2728
      6      7     15   1    110.7000    313.8000
      6      7     16   1    110.7000    313.8000
      8      7     15   1    110.7000    313.8000
      8      7     16   1    110.7000    313.8000
     15      7     16   1    107.8000    276.1440
      7      8      9   1    112.7000    488.2728
      7      8     17   1    110.7000    313.8000
      7      8     18   1    110.7000    313.8000
      9      8     17   1    110.7000    313.8000
      9      8     18   1    110.7000    313.8000
     17      8     18   1    107.8000    276.1440
      8      9     19   1    110.7000    313.8000
      8      9     20   1    110.7000    313.8000
      8      9     21   1    110.7000    313.8000
     19      9     20   1    107.8000    276.1440
     19      9     21   1    107.8000    276.1440
     20      9     21   1    107.8000    276.1440
      2     23     24   1    112.7000    488.2728
      2     23     32   1    110.7000    313.8000
      2     23     33   1    110.7000    313.8000
     24     23     32   1    110.7000    313.8000
     24     23     33   1    110.7000    313.8000
     32     23     33   1    107.8000    276.1440
     23     24     25   1    111.1000    527.1840
     23     24     34   1    110.7000    313.8000
     23     24     44   1    112.7000    488.2728
     25     24     34   1    109.5000    292.8800
     25     24     44   1    111.1000    527.1840
     34     24     44   1    110.7000    313.8000
     24     25     26   1    120.4000    669.4400
     24     25     27   1    111.4000    677.8080
     26     25     27   1    123.4000    694.5440
     25     27     28   1    116.9000    694.5440
     27     28     29   1    109.5000    418.4000
     27     28     35   1    109.5000    292.8800
     27     28     36   1    109.5000    292.8800
     29     28     35   1    110.7000    313.8000
     29     28     36   1    110.7000    313.8000
     35     28     36   1    107.8000    276.1440
     28     29     30   1    112.7000    488.2728
     28     29     37   1    110.7000    313.8000
     28     29     38   1    110.7000    313.8000
     30     29     37   1    110.7000    313.8000
     30     29     38   1    110.7000    313.8000
     37     29     38   1    107.8000    276.1440
     29     30     31   1    112.7000    488.2728
     29     30     39   1    110.7000    313.8000
     29     30     40   1    110.7000    313.8000
     31     30     39   1    110.7000    313.8000
     31     30     40   1    110.7000    313.8000
     39     30     40   1    107.8000    276.1440
     30     31     41   1    110.7000    313.8000
     30     31     42   1    110.7000    313.8000
     30     31     43   1    110.7000    313.8000
     41     31     42   1    107.8000    276.1440
     41     31     43   1    107.8000    276.1440
     42     31     43   1    107.8000    276.1440
     24     44     45   1    112.7000    488.2728
     24     44     53   1    110.7000    313.8000
     24     44     54   1    110.7000    313.8000
     45     44     53   1    110.7000    313.8000
     45     44     54   1    110.7000    313.8000
     53     44     54   1    107.8000    276.1440
     44     45     46   1    111.1000    527.1840
     44     45     55   1    110.7000    313.8000
     44     45     65   1    112.7000    488.2728
     46     45     55   1    109.5000    292.8800
     46     45     65   1    111.1000    527.1840
     55     45     65   1    110.7000    313.8000
     45     46     47   1    120.4000    669.4400
     45     46     48   1    111.4000    677.8080
     47     46     48   1    123.4000    694.5440
     46     48     49   1    116.9000    694.5440
     48     49     50   1    109.5000    418.4000
     48     49     56   1    109.5000    292.8800
     48     49     57   1    109.5000    292.8800
     50     49     56   1    110.7000    313.8000
     50     49     57   1    110.7000    313.8000
     56     49     57   1    107.8000    276.1440
     49     50     51   1    112.7000    488.2728
     49     50     58   1    110.7000    313.8000
     49     50     59   1    110.7000    313.8000
     51     50     58   1    110.7000    313.8000
     51     50     59   1    110.7000    313.8000
     58     50     59   1    107.8000    276.1440
     50     51     52   1    112.7000    488.2728
     50     51     60   1    110.7000    313.8000
     50     51     61   1    110.7000    313.8000
     52     51     60   1    110.7000    313.8000
     52     51     61   1    110.7000    313.8000
     60     51     61   1    107.8000    276.1440
     51     52     62   1    110.7000    313.8000
     51     52     63   1    110.7000    313.8000
     51     52     64   1    110.7000    313.8000
     62     52     63   1    107.8000    276.1440
     62     52     64   1    107.8000    276.1440
     63     52     64   1    107.8000    276.1440
     45     65     66   1    112.7000    488.2728
     45     65     74   1    110.7000    313.8000
     45     65     75   1    110.7000    313.8000
     66     65     74   1    110.7000    313.8000
     66     65     75   1    110.7000    313.8000
     74     65     75   1    107.8000    276.1440
     65     66     67   1    111.1000    527.1840
     65     66     76   1    110.7000    313.8000
     65     66     86   1    112.7000    488.2728
     67     66     76   1    109.5000    292.8800
     67     66     86   1    111.1000    527.1840
     76     66     86   1    110.7000    313.8000
     66     67     68   1    120.4000    669.4400
     66     67     69   1    111.4000    677.8080
     68     67     69   1    123.4000    694.5440
     67     69     70   1    116.9000    694.5440
     69     70     71   1    109.5000    418.4000
     69     70     77   1    109.5000    292.8800
     69     70     78   1    109.5000    292.8800
     71     70     77   1    110.7000    313.8000
     71     70     78   1    110.7000    313.8000
     77     70     78   1    107.8000    276.1440
     70     71     72   1    112.7000    488.2728
     70     71     79   1    110.7000    313.8000
     70     71     80   1    110.7000    313.8000
     72     71     79   1    110.7000    313.8000
     72     71     80   1    110.7000    313.8000
     79     71     80   1    107.8000    276.1440
     71     72     73   1    112.7000    488.2728
     71     72     81   1    110.7000    313.8000
     71     72     82   1    110.7000    313.8000
     73     72     81   1    110.7000    313.8000
     73     72     82   1    110.7000    313.8000
     81     72     82   1    107.8000    276.1440
     72     73     83   1    110.7000    313.8000
     72     73     84   1    110.7000    313.8000
     72     73     85   1    110.7000    313.8000
     83     73     84   1    107.8000    276.1440
     83     73     85   1    107.8000    276.1440
     84     73     85   1    107.8000    276.1440
     66     86     87   1    112.7000    488.2728
     66     86     95   1    110.7000    313.8000
     66     86     96   1    110.7000    313.8000
     87     86     95   1    110.7000    313.8000
     87     86     96   1    110.7000    313.8000
     95     86     96   1    107.8000    276.1440
     86     87     88   1    111.1000    527.1840
     86     87     97   1    110.7000    313.8000
     86     87    107   1    112.7000    488.2728
     88     87     97   1    109.5000    292.8800
     88     87    107   1    111.1000    527.1840
     97     87    107   1    110.7000    313.8000
     87     88     89   1    120.4000    669.4400
     87     88     90   1    111.4000    677.8080
     89     88     90   1    123.4000    694.5440
     88     90     91   1    116.9000    694.5440
     90     91     92   1    109.5000    418.4000
     90     91     98   1    109.5000    292.8800
     90     91     99   1    109.5000    292.8800
     92     91     98   1    110.7000    313.8000
     92     91     99   1    110.7000    313.8000
     98     91     99   1    107.8000    276.1440
     91     92     93   1    112.7000    488.2728
     91     92    100   1    110.7000    313.8000
     91     92    101   1    110.7000    313.8000
     93     92    100   1    110.7000    313.8000
     93     92    101   1    110.7000    313.8000
    100     92    101   1    107.8000    276.1440
     92     93     94   1    112.7000    488.2728
     92     93    102   1    110.7000    313.8000
     92     93    103   1    110.7000    313.8000
     94     93    102   1    110.7000    313.8000
     94     93    103   1    110.7000    313.8000
    102     93    103   1    107.8000    276.1440
     93     94    104   1    110.7000    313.8000
     93     94    105   1    110.7000    313.8000
     93     94    106   1    110.7000    313.8000
    104     94    105   1    107.8000    276.1440
    104     94    106   1    107.8000    276.1440
    105     94    106   1    107.8000    276.1440
     87    107    108   1    112.7000    488.2728
     87    107    116   1    110.7000    313.8000
     87    107    117   1    110.7000    313.8000
    108    107    116   1    110.7000    313.8000
    108    107    117   1    110.7000    313.8000
    116    107    117   1    107.8000    276.1440
    107    108    109   1    111.1000    527.1840
    107    108    118   1    110.7000    313.8000
    107    108    128   1    112.7000    488.2728
    109    108    118   1    109.5000    292.8800
    109    108    128   1    111.1000    527.1840
    118    108    128   1    110.7000    313.8000
    108    109    110   1    120.4000    669.4400
    108    109    111   1    111.4000    677.8080
    110    109    111   1    123.4000    694.5440
    109    111    112   1    116.9000    694.5440
    111    112    113   1    109.5000    418.4000
    111    112    119   1    109.5000    292.8800
    111    112    120   1    109.5000    292.8800
    113    112    119   1    110.7000    313.8000
    113    112    120   1    110.7000    313.8000
    119    112    120   1    107.8000    276.1440
    112    113    114   1    112.7000    488.2728
    112    113    121   1    110.7000    313.8000
    112    113    122   1    110.7000    313.8000
    114    113    121   1    110.7000    313.8000
    114    113    122   1    110.7000    313.8000
    121    113    122   1    107.8000    276.1440
    113    114    115   1    112.7000    488.2728
    113    114    123   1    110.7000    313.8000
    113    114    124   1    110.7000    313.8000
    115    114    123   1    110.7000    313.8000
    115    114    124   1    110.7000    313.8000
    123    114    124   1    107.8000    276.1440
    114    115    125   1    110.7000    313.8000
    114    115    126   1    110.7000    313.8000
    114    115    127   1    110.7000    313.8000
    125    115    126   1    107.8000    276.1440
    125    115    127   1    107.8000    276.1440
    126    115    127   1    107.8000    276.1440
    108    128    129   1    112.7000    488.2728
    108    128    137   1    110.7000    313.8000
    108    128    138   1    110.7000    313.8000
    129    128    137   1    110.7000    313.8000
    129    128    138   1    110.7000    313.8000
    137    128    138   1    107.8000    276.1440
    128    129    130   1    111.1000    527.1840
    128    129    139   1    110.7000    313.8000
    128    129    149   1    112.7000    488.2728
    130    129    139   1    109.5000    292.8800
    130    129    149   1    111.1000    527.1840
    139    129    149   1    110.7000    313.8000
    129    130    131   1    120.4000    669.4400
    129    130    132   1    111.4000    677.8080
    131    130    132   1    123.4000    694.5440
    130    132    133   1    116.9000    694.5440
    132    133    134   1    109.5000    418.4000
    132    133    140   1    109.5000    292.8800
    132    133    141   1    109.5000    292.8800
    134    133    140   1    110.7000    313.8000
    134    133    141   1    110.7000    313.8000
    140    133    141   1    107.8000    276.1440
    133    134    135   1    112.7000    488.2728
    133    134    142   1    110.7000    313.8000
    133    134    143   1    110.7000    313.8000
    135    134    142   1    110.7000    313.8000
    135    134    143   1    110.7000    313.8000
    142    134    143   1    107.8000    276.1440
    134    135    136   1    112.7000    488.2728
    134    135    144   1    110.7000    313.8000
    134    135    145   1    110.7000    313.8000
    136    135    144   1    110.7000    313.8000
    136    135    145   1    110.7000    313.8000
    144    135    145   1    107.8000    276.1440
    135    136    146   1    110.7000    313.8000
    135    136    147   1    110.7000    313.8000
    135    136    148   1    110.7000    313.8000
    146    136    147   1    107.8000    276.1440
    146    136    148   1    107.8000    276.1440
    147    136    148   1    107.8000    276.1440
    129    149    150   1    112.7000    488.2728
    129    149    158   1    110.7000    313.8000
    129    149    159   1    110.7000    313.8000
    150    149    158   1    110.7000    313.8000
    150    149    159   1    110.7000    313.8000
    158    149    159   1    107.8000    276.1440
    149    150    151   1    111.1000    527.1840
    149    150    160   1    110.7000    313.8000
    149    150    170   1    112.7000    488.2728
    151    150    160   1    109.5000    292.8800
    151    150    170   1    111.1000    527.1840
    160    150    170   1    110.7000    313.8000
    150    151    152   1    120.4000    669.4400
    150    151    153   1    111.4000    677.8080
    152    151    153   1    123.4000    694.5440
    151    153    154   1    116.9000    694.5440
    153    154    155   1    109.5000    418.4000
    153    154    161   1    109.5000    292.8800
    153    154    162   1    109.5000    292.8800
    155    154    161   1    110.7000    313.8000
    155    154    162   1    110.7000    313.8000
    161    154    162   1    107.8000    276.1440
    154    155    156   1    112.7000    488.2728
    154    155    163   1    110.7000    313.8000
    154    155    164   1    110.7000    313.8000
    156    155    163   1    110.7000    313.8000
    156    155    164   1    110.7000    313.8000
    163    155    164   1    107.8000    276.1440
    155    156    157   1    112.7000    488.2728
    155    156    165   1    110.7000    313.8000
    155    156    166   1    110.7000    313.8000
    157    156    165   1    110.7000    313.8000
    157    156    166   1    110.7000    313.8000
    165    156    166   1    107.8000    276.1440
    156    157    167   1    110.7000    313.8000
    156    157    168   1    110.7000    313.8000
    156    157    169   1    110.7000    313.8000
    167    157    168   1    107.8000    276.1440
    167    157    169   1    107.8000    276.1440
    168    157    169   1    107.8000    276.1440
    150    170    171   1    112.7000    488.2728
    150    170    179   1    110.7000    313.8000
    150    170    180   1    110.7000    313.8000
    171    170    179   1    110.7000    313.8000
    171    170    180   1    110.7000    313.8000
    179    170    180   1    107.8000    276.1440
    170    171    172   1    111.1000    527.1840
    170    171    181   1    110.7000    313.8000
    170    171    191   1    112.7000    488.2728
    172    171    181   1    109.5000    292.8800
    172    171    191   1    111.1000    527.1840
    181    171    191   1    110.7000    313.8000
    171    172    173   1    120.4000    669.4400
    171    172    174   1    111.4000    677.8080
    173    172    174   1    123.4000    694.5440
    172    174    175   1    116.9000    694.5440
    174    175    176   1    109.5000    418.4000
    174    175    182   1    109.5000    292.8800
    174    175    183   1    109.5000    292.8800
    176    175    182   1    110.7000    313.8000
    176    175    183   1    110.7000    313.8000
    182    175    183   1    107.8000    276.1440
    175    176    177   1    112.7000    488.2728
    175    176    184   1    110.7000    313.8000
    175    176    185   1    110.7000    313.8000
    177    176    184   1    110.7000    313.8000
    177    176    185   1    110.7000    313.8000
    184    176    185   1    107.8000    276.1440
    176    177    178   1    112.7000    488.2728
    176    177    186   1    110.7000    313.8000
    176    177    187   1    110.7000    313.8000
    178    177    186   1    110.7000    313.8000
    178    177    187   1    110.7000    313.8000
    186    177    187   1    107.8000    276.1440
    177    178    188   1    110.7000    313.8000
    177    178    189   1    110.7000    313.8000
    177    178    190   1    110.7000    313.8000
    188    178    189   1    107.8000    276.1440
    188    178    190   1    107.8000    276.1440
    189    178    190   1    107.8000    276.1440
    171    191    192   1    112.7000    488.2728
    171    191    200   1    110.7000    313.8000
    171    191    201   1    110.7000    313.8000
    192    191    200   1    110.7000    313.8000
    192    191    201   1    110.7000    313.8000
    200    191    201   1    107.8000    276.1440
    191    192    193   1    111.1000    527.1840
    191    192    202   1    110.7000    313.8000
    191    192    212   1    112.7000    488.2728
    193    192    202   1    109.5000    292.8800
    193    192    212   1    111.1000    527.1840
    202    192    212   1    110.7000    313.8000
    192    193    194   1    120.4000    669.4400
    192    193    195   1    111.4000    677.8080
    194    193    195   1    123.4000    694.5440
    193    195    196   1    116.9000    694.5440
    195    196    197   1    109.5000    418.4000
    195    196    203   1    109.5000    292.8800
    195    196    204   1    109.5000    292.8800
    197    196    203   1    110.7000    313.8000
    197    196    204   1    110.7000    313.8000
    203    196    204   1    107.8000    276.1440
    196    197    198   1    112.7000    488.2728
    196    197    205   1    110.7000    313.8000
    196    197    206   1    110.7000    313.8000
    198    197    205   1    110.7000    313.8000
    198    197    206   1    110.7000    313.8000
    205    197    206   1    107.8000    276.1440
    197    198    199   1    112.7000    488.2728
    197    198    207   1    110.7000    313.8000
    197    198    208   1    110.7000    313.8000
    199    198    207   1    110.7000    313.8000
    199    198    208   1    110.7000    313.8000
    207    198    208   1    107.8000    276.1440
    198    199    209   1    110.7000    313.8000
    198    199    210   1    110.7000    313.8000
    198    199    211   1    110.7000    313.8000
    209    199    210   1    107.8000    276.1440
    209    199    211   1    107.8000    276.1440
    210    199    211   1    107.8000    276.1440
    192    212    213   1    112.7000    488.2728
    192    212    221   1    110.7000    313.8000
    192    212    222   1    110.7000    313.8000
    213    212    221   1    110.7000    313.8000
    213    212    222   1    110.7000    313.8000
    221    212    222   1    107.8000    276.1440
    212    213    214   1    111.1000    527.1840
    212    213    223   1    110.7000    313.8000
    212    213    233   1    112.7000    488.2728
    214    213    223   1    109.5000    292.8800
    214    213    233   1    111.1000    527.1840
    223    213    233   1    110.7000    313.8000
    213    214    215   1    120.4000    669.4400
    213    214    216   1    111.4000    677.8080
    215    214    216   1    123.4000    694.5440
    214    216    217   1    116.9000    694.5440
    216    217    218   1    109.5000    418.4000
    216    217    224   1    109.5000    292.8800
    216    217    225   1    109.5000    292.8800
    218    217    224   1    110.7000    313.8000
    218    217    225   1    110.7000    313.8000
    224    217    225   1    107.8000    276.1440
    217    218    219   1    112.7000    488.2728
    217    218    226   1    110.7000    313.8000
    217    218    227   1    110.7000    313.8000
    219    218    226   1    110.7000    313.8000
    219    218    227   1    110.7000    313.8000
    226    218    227   1    107.8000    276.1440
    218    219    220   1    112.7000    488.2728
    218    219    228   1    110.7000    313.8000
    218    219    229   1    110.7000    313.8000
    220    219    228   1    110.7000    313.8000
    220    219    229   1    110.7000    313.8000
    228    219    229   1    107.8000    276.1440
    219    220    230   1    110.7000    313.8000
    219    220    231   1    110.7000    313.8000
    219    220    232   1    110.7000    313.8000
    230    220    231   1    107.8000    276.1440
    230    220    232   1    107.8000    276.1440
    231    220    232   1    107.8000    276.1440
    213    233    234   1    112.7000    488.2728
    213    233    242   1    110.7000    313.8000
    213    233    243   1    110.7000    313.8000
    234    233    242   1    110.7000    313.8000
    234    233    243   1    110.7000    313.8000
    242    233    243   1    107.8000    276.1440
    233    234    235   1    111.1000    527.1840
    233    234    244   1    110.7000    313.8000
    233    234    254   1    112.7000    488.2728
    235    234    244   1    109.5000    292.8800
    235    234    254   1    111.1000    527.1840
    244    234    254   1    110.7000    313.8000
    234    235    236   1    120.4000    669.4400
    234    235    237   1    111.4000    677.8080
    236    235    237   1    123.4000    694.5440
    235    237    238   1    116.9000    694.5440
    237    238    239   1    109.5000    418.4000
    237    238    245   1    109.5000    292.8800
    237    238    246   1    109.5000    292.8800
    239    238    245   1    110.7000    313.8000
    239    238    246   1    110.7000    313.8000
    245    238    246   1    107.8000    276.1440
    238    239    240   1    112.7000    488.2728
    238    239    247   1    110.7000    313.8000
    238    239    248   1    110.7000    313.8000
    240    239    247   1    110.7000    313.8000
    240    239    248   1    110.7000    313.8000
    247    239    248   1    107.8000    276.1440
    239    240    241   1    112.7000    488.2728
    239    240    249   1    110.7000    313.8000
    239    240    250   1    110.7000    313.8000
    241    240    249   1    110.7000    313.8000
    241    240    250   1    110.7000    313.8000
    249    240    250   1    107.8000    276.1440
    240    241    251   1    110.7000    313.8000
    240    241    252   1    110.7000    313.8000
    240    241    253   1    110.7000    313.8000
    251    241    252   1    107.8000    276.1440
    251    241    253   1    107.8000    276.1440
    252    241    253   1    107.8000    276.1440
    234    254    255   1    112.7000    488.2728
    234    254    263   1    110.7000    313.8000
    234    254    264   1    110.7000    313.8000
    255    254    263   1    110.7000    313.8000
    255    254    264   1    110.7000    313.8000
    263    254    264   1    107.8000    276.1440
    254    255    256   1    111.1000    527.1840
    254    255    265   1    110.7000    313.8000
    254    255    275   1    112.7000    488.2728
    256    255    265   1    109.5000    292.8800
    256    255    275   1    111.1000    527.1840
    265    255    275   1    110.7000    313.8000
    255    256    257   1    120.4000    669.4400
    255    256    258   1    111.4000    677.8080
    257    256    258   1    123.4000    694.5440
    256    258    259   1    116.9000    694.5440
    258    259    260   1    109.5000    418.4000
    258    259    266   1    109.5000    292.8800
    258    259    267   1    109.5000    292.8800
    260    259    266   1    110.7000    313.8000
    260    259    267   1    110.7000    313.8000
    266    259    267   1    107.8000    276.1440
    259    260    261   1    112.7000    488.2728
    259    260    268   1    110.7000    313.8000
    259    260    269   1    110.7000    313.8000
    261    260    268   1    110.7000    313.8000
    261    260    269   1    110.7000    313.8000
    268    260    269   1    107.8000    276.1440
    260    261    262   1    112.7000    488.2728
    260    261    270   1    110.7000    313.8000
    260    261    271   1    110.7000    313.8000
    262    261    270   1    110.7000    313.8000
    262    261    271   1    110.7000    313.8000
    270    261    271   1    107.8000    276.1440
    261    262    272   1    110.7000    313.8000
    261    262    273   1    110.7000    313.8000
    261    262    274   1    110.7000    313.8000
    272    262    273   1    107.8000    276.1440
    272    262    274   1    107.8000    276.1440
    273    262    274   1    107.8000    276.1440
    255    275    276   1    112.7000    488.2728
    255    275    284   1    110.7000    313.8000
    255    275    285   1    110.7000    313.8000
    276    275    284   1    110.7000    313.8000
    276    275    285   1    110.7000    313.8000
    284    275    285   1    107.8000    276.1440
    275    276    277   1    111.1000    527.1840
    275    276    286   1    110.7000    313.8000
    275    276    296   1    112.7000    488.2728
    277    276    286   1    109.5000    292.8800
    277    276    296   1    111.1000    527.1840
    286    276    296   1    110.7000    313.8000
    276    277    278   1    120.4000    669.4400
    276    277    279   1    111.4000    677.8080
    278    277    279   1    123.4000    694.5440
    277    279    280   1    116.9000    694.5440
    279    280    281   1    109.5000    418.4000
    279    280    287   1    109.5000    292.8800
    279    280    288   1    109.5000    292.8800
    281    280    287   1    110.7000    313.8000
    281    280    288   1    110.7000    313.8000
    287    280    288   1    107.8000    276.1440
    280    281    282   1    112.7000    488.2728
    280    281    289   1    110.7000    313.8000
    280    281    290   1    110.7000    313.8000
    282    281    289   1    110.7000    313.8000
    282    281    290   1    110.7000    313.8000
    289    281    290   1    107.8000    276.1440
    281    282    283   1    112.7000    488.2728
    281    282    291   1    110.7000    313.8000
    281    282    292   1    110.7000    313.8000
    283    282    291   1    110.7000    313.8000
    283    282    292   1    110.7000    313.8000
    291    282    292   1    107.8000    276.1440
    282    283    293   1    110.7000    313.8000
    282    283    294   1    110.7000    313.8000
    282    283    295   1    110.7000    313.8000
    293    283    294   1    107.8000    276.1440
    293    283    295   1    107.8000    276.1440
    294    283    295   1    107.8000    276.1440
    276    296    297   1    112.7000    488.2728
    276    296    305   1    110.7000    313.8000
    276    296    306   1    110.7000    313.8000
    297    296    305   1    110.7000    313.8000
    297    296    306   1    110.7000    313.8000
    305    296    306   1    107.8000    276.1440
    296    297    298   1    111.1000    527.1840
    296    297    307   1    110.7000    313.8000
    296    297    317   1    112.7000    488.2728
    298    297    307   1    109.5000    292.8800
    298    297    317   1    111.1000    527.1840
    307    297    317   1    110.7000    313.8000
    297    298    299   1    120.4000    669.4400
    297    298    300   1    111.4000    677.8080
    299    298    300   1    123.4000    694.5440
    298    300    301   1    116.9000    694.5440
    300    301    302   1    109.5000    418.4000
    300    301    308   1    109.5000    292.8800
    300    301    309   1    109.5000    292.8800
    302    301    308   1    110.7000    313.8000
    302    301    309   1    110.7000    313.8000
    308    301    309   1    107.8000    276.1440
    301    302    303   1    112.7000    488.2728
    301    302    310   1    110.7000    313.8000
    301    302    311   1    110.7000    313.8000
    303    302    310   1    110.7000    313.8000
    303    302    311   1    110.7000    313.8000
    310    302    311   1    107.8000    276.1440
    302    303    304   1    112.7000    488.2728
    302    303    312   1    110.7000    313.8000
    302    303    313   1    110.7000    313.8000
    304    303    312   1    110.7000    313.8000
    304    303    313   1    110.7000    313.8000
    312    303    313   1    107.8000    276.1440
    303    304    314   1    110.7000    313.8000
    303    304    315   1    110.7000    313.8000
    303    304    316   1    110.7000    313.8000
    314    304    315   1    107.8000    276.1440
    314    304    316   1    107.8000    276.1440
    315    304    316   1    107.8000    276.1440
    297    317    318   1    112.7000    488.2728
    297    317    326   1    110.7000    313.8000
    297    317    327   1    110.7000    313.8000
    318    317    326   1    110.7000    313.8000
    318    317    327   1    110.7000    313.8000
    326    317    327   1    107.8000    276.1440
    317    318    319   1    111.1000    527.1840
    317    318    328   1    110.7000    313.8000
    317    318    338   1    112.7000    488.2728
    319    318    328   1    109.5000    292.8800
    319    318    338   1    111.1000    527.1840
    328    318    338   1    110.7000    313.8000
    318    319    320   1    120.4000    669.4400
    318    319    321   1    111.4000    677.8080
    320    319    321   1    123.4000    694.5440
    319    321    322   1    116.9000    694.5440
    321    322    323   1    109.5000    418.4000
    321    322    329   1    109.5000    292.8800
    321    322    330   1    109.5000    292.8800
    323    322    329   1    110.7000    313.8000
    323    322    330   1    110.7000    313.8000
    329    322    330   1    107.8000    276.1440
    322    323    324   1    112.7000    488.2728
    322    323    331   1    110.7000    313.8000
    322    323    332   1    110.7000    313.8000
    324    323    331   1    110.7000    313.8000
    324    323    332   1    110.7000    313.8000
    331    323    332   1    107.8000    276.1440
    323    324    325   1    112.7000    488.2728
    323    324    333   1    110.7000    313.8000
    323    324    334   1    110.7000    313.8000
    325    324    333   1    110.7000    313.8000
    325    324    334   1    110.7000    313.8000
    333    324    334   1    107.8000    276.1440
    324    325    335   1    110.7000    313.8000
    324    325    336   1    110.7000    313.8000
    324    325    337   1    110.7000    313.8000
    335    325    336   1    107.8000    276.1440
    335    325    337   1    107.8000    276.1440
    336    325    337   1    107.8000    276.1440
    318    338    339   1    112.7000    488.2728
    318    338    347   1    110.7000    313.8000
    318    338    348   1    110.7000    313.8000
    339    338    347   1    110.7000    313.8000
    339    338    348   1    110.7000    313.8000
    347    338    348   1    107.8000    276.1440
    338    339    340   1    111.1000    527.1840
    338    339    349   1    110.7000    313.8000
    338    339    359   1    112.7000    488.2728
    340    339    349   1    109.5000    292.8800
    340    339    359   1    111.1000    527.1840
    349    339    359   1    110.7000    313.8000
    339    340    341   1    120.4000    669.4400
    339    340    342   1    111.4000    677.8080
    341    340    342   1    123.4000    694.5440
    340    342    343   1    116.9000    694.5440
    342    343    344   1    109.5000    418.4000
    342    343    350   1    109.5000    292.8800
    342    343    351   1    109.5000    292.8800
    344    343    350   1    110.7000    313.8000
    344    343    351   1    110.7000    313.8000
    350    343    351   1    107.8000    276.1440
    343    344    345   1    112.7000    488.2728
    343    344    352   1    110.7000    313.8000
    343    344    353   1    110.7000    313.8000
    345    344    352   1    110.7000    313.8000
    345    344    353   1    110.7000    313.8000
    352    344    353   1    107.8000    276.1440
    344    345    346   1    112.7000    488.2728
    344    345    354   1    110.7000    313.8000
    344    345    355   1    110.7000    313.8000
    346    345    354   1    110.7000    313.8000
    346    345    355   1    110.7000    313.8000
    354    345    355   1    107.8000    276.1440
    345    346    356   1    110.7000    313.8000
    345    346    357   1    110.7000    313.8000
    345    346    358   1    110.7000    313.8000
    356    346    357   1    107.8000    276.1440
    356    346    358   1    107.8000    276.1440
    357    346    358   1    107.8000    276.1440
    339    359    360   1    112.7000    488.2728
    339    359    368   1    110.7000    313.8000
    339    359    369   1    110.7000    313.8000
    360    359    368   1    110.7000    313.8000
    360    359    369   1    110.7000    313.8000
    368    359    369   1    107.8000    276.1440
    359    360    361   1    111.1000    527.1840
    359    360    370   1    110.7000    313.8000
    359    360    380   1    112.7000    488.2728
    361    360    370   1    109.5000    292.8800
    361    360    380   1    111.1000    527.1840
    370    360    380   1    110.7000    313.8000
    360    361    362   1    120.4000    669.4400
    360    361    363   1    111.4000    677.8080
    362    361    363   1    123.4000    694.5440
    361    363    364   1    116.9000    694.5440
    363    364    365   1    109.5000    418.4000
    363    364    371   1    109.5000    292.8800
    363    364    372   1    109.5000    292.8800
    365    364    371   1    110.7000    313.8000
    365    364    372   1    110.7000    313.8000
    371    364    372   1    107.8000    276.1440
    364    365    366   1    112.7000    488.2728
    364    365    373   1    110.7000    313.8000
    364    365    374   1    110.7000    313.8000
    366    365    373   1    110.7000    313.8000
    366    365    374   1    110.7000    313.8000
    373    365    374   1    107.8000    276.1440
    365    366    367   1    112.7000    488.2728
    365    366    375   1    110.7000    313.8000
    365    366    376   1    110.7000    313.8000
    367    366    375   1    110.7000    313.8000
    367    366    376   1    110.7000    313.8000
    375    366    376   1    107.8000    276.1440
    366    367    377   1    110.7000    313.8000
    366    367    378   1    110.7000    313.8000
    366    367    379   1    110.7000    313.8000
    377    367    378   1    107.8000    276.1440
    377    367    379   1    107.8000    276.1440
    378    367    379   1    107.8000    276.1440
    360    380    381   1    112.7000    488.2728
    360    380    389   1    110.7000    313.8000
    360    380    390   1    110.7000    313.8000
    381    380    389   1    110.7000    313.8000
    381    380    390   1    110.7000    313.8000
    389    380    390   1    107.8000    276.1440
    380    381    382   1    111.1000    527.1840
    380    381    391   1    110.7000    313.8000
    380    381    401   1    112.7000    488.2728
    382    381    391   1    109.5000    292.8800
    382    381    401   1    111.1000    527.1840
    391    381    401   1    110.7000    313.8000
    381    382    383   1    120.4000    669.4400
    381    382    384   1    111.4000    677.8080
    383    382    384   1    123.4000    694.5440
    382    384    385   1    116.9000    694.5440
    384    385    386   1    109.5000    418.4000
    384    385    392   1    109.5000    292.8800
    384    385    393   1    109.5000    292.8800
    386    385    392   1    110.7000    313.8000
    386    385    393   1    110.7000    313.8000
    392    385    393   1    107.8000    276.1440
    385    386    387   1    112.7000    488.2728
    385    386    394   1    110.7000    313.8000
    385    386    395   1    110.7000    313.8000
    387    386    394   1    110.7000    313.8000
    387    386    395   1    110.7000    313.8000
    394    386    395   1    107.8000    276.1440
    386    387    388   1    112.7000    488.2728
    386    387    396   1    110.7000    313.8000
    386    387    397   1    110.7000    313.8000
    388    387    396   1    110.7000    313.8000
    388    387    397   1    110.7000    313.8000
    396    387    397   1    107.8000    276.1440
    387    388    398   1    110.7000    313.8000
    387    388    399   1    110.7000    313.8000
    387    388    400   1    110.7000    313.8000
    398    388    399   1    107.8000    276.1440
    398    388    400   1    107.8000    276.1440
    399    388    400   1    107.8000    276.1440
    381    401    402   1    112.7000    488.2728
    381    401    410   1    110.7000    313.8000
    381    401    411   1    110.7000    313.8000
    402    401    410   1    110.7000    313.8000
    402    401    411   1    110.7000    313.8000
    410    401    411   1    107.8000    276.1440
    401    402    403   1    111.1000    527.1840
    401    402    412   1    110.7000    313.8000
    401    402    422   1    110.7000    313.8000
    403    402    412   1    109.5000    292.8800
    403    402    422   1    109.5000    292.8800
    412    402    422   1    107.8000    276.1440
    402    403    404   1    120.4000    669.4400
    402    403    405   1    111.4000    677.8080
    404    403    405   1    123.4000    694.5440
    403    405    406   1    116.9000    694.5440
    405    406    407   1    109.5000    418.4000
    405    406    413   1    109.5000    292.8800
    405    406    414   1    109.5000    292.8800
    407    406    413   1    110.7000    313.8000
    407    406    414   1    110.7000    313.8000
    413    406    414   1    107.8000    276.1440
    406    407    408   1    112.7000    488.2728
    406    407    415   1    110.7000    313.8000
    406    407    416   1    110.7000    313.8000
    408    407    415   1    110.7000    313.8000
    408    407    416   1    110.7000    313.8000
    415    407    416   1    107.8000    276.1440
    407    408    409   1    112.7000    488.2728
    407    408    417   1    110.7000    313.8000
    407    408    418   1    110.7000    313.8000
    409    408    417   1    110.7000    313.8000
    409    408    418   1    110.7000    313.8000
    417    408    418   1    107.8000    276.1440
    408    409    419   1    110.7000    313.8000
    408    409    420   1    110.7000    313.8000
    408    409    421   1    110.7000    313.8000
    419    409    420   1    107.8000    276.1440
    419    409    421   1    107.8000    276.1440
    420    409    421   1    107.8000    276.1440

[ dihedrals ]
; Proper dihedrals
     10      1      2      3   5     0.00000     0.00000    -0.94140  0.0
     10      1      2     12   5     0.00000     0.00000     1.25520  0.0
     10      1      2     23   5     0.00000     0.00000     1.25520  0.0
     11      1      2      3   5     0.00000     0.00000    -0.94140  0.0
     11      1      2     12   5     0.00000     0.00000     1.25520  0.0
     11      1      2     23   5     0.00000     0.00000     1.25520  0.0
     22      1      2      3   5     0.00000     0.00000    -0.94140  0.0
     22      1      2     12   5     0.00000     0.00000     1.25520  0.0
     22      1      2     23   5     0.00000     0.00000     1.25520  0.0
      1      2      3      4   5     0.00000     2.52295     0.00000  0.0
      1      2      3      5   5     0.00000     0.00000     3.07524  0.0
     12      2      3      4   5     0.00000     0.00000     0.00000  0.0
     12      2      3      5   5     0.00000     0.00000     0.00000  0.0
     23      2      3      4   5     0.00000     2.52295     0.00000  0.0
     23      2      3      5   5     0.00000     0.00000     3.07524  0.0
      1      2     23     24   5     4.74884    -0.63178     1.67360  0.0
      1      2     23     32   5     0.00000     0.00000     1.25520  0.0
      1      2     23     33   5     0.00000     0.00000     1.25520  0.0
      3      2     23     24   5    -8.00818    -1.52298     2.46438  0.0
      3      2     23     32   5     0.00000     0.00000    -0.94140  0.0
      3      2     23     33   5     0.00000     0.00000    -0.94140  0.0
     12      2     23     24   5     0.00000     0.00000     1.25520  0.0
     12      2     23     32   5     0.00000     0.00000     1.25520  0.0
     12      2     23     33   5     0.00000     0.00000     1.25520  0.0
      2      3      5      6   5    13.65239    24.43456     0.00000  0.0
      4      3      5      6   5     0.00000    25.10400     0.00000  0.0
      3      5      6      7   5    -2.16731    -3.93296     0.98324  0.0
      3      5      6     13   5     0.00000     0.00000     0.67362  0.0
      3      5      6     14   5     0.00000     0.00000     0.67362  0.0
      5      6      7      8   5     5.25092    -2.58990     2.28446  0.0
      5      6      7     15   5     0.00000     0.00000     1.95811  0.0
      5      6      7     16   5     0.00000     0.00000     1.95811  0.0
     13      6      7      8   5     0.00000     0.00000     1.25520  0.0
     13      6      7     15   5     0.00000     0.00000     1.25520  0.0
     13      6      7     16   5     0.00000     0.00000     1.25520  0.0
     14      6      7      8   5     0.00000     0.00000     1.25520  0.0
     14      6      7     15   5     0.00000     0.00000     1.25520  0.0
     14      6      7     16   5     0.00000     0.00000     1.25520  0.0
      6      7      8      9   5     4.74884    -0.63178     1.67360  0.0
      6      7      8     17   5     0.00000     0.00000     1.25520  0.0
      6      7      8     18   5     0.00000     0.00000     1.25520  0.0
     15      7      8      9   5     0.00000     0.00000     1.25520  0.0
     15      7      8     17   5     0.00000     0.00000     1.25520  0.0
     15      7      8     18   5     0.00000     0.00000     1.25520  0.0
     16      7      8      9   5     0.00000     0.00000     1.25520  0.0
     16      7      8     17   5     0.00000     0.00000     1.25520  0.0
     16      7      8     18   5     0.00000     0.00000     1.25520  0.0
      7      8      9     19   5     0.00000     0.00000     1.25520  0.0
      7      8      9     20   5     0.00000     0.00000     1.25520  0.0
      7      8      9     21   5     0.00000     0.00000     1.25520  0.0
     17      8      9     19   5     0.00000     0.00000     1.25520  0.0
     17      8      9     20   5     0.00000     0.00000     1.25520  0.0
     17      8      9     21   5     0.00000     0.00000     1.25520  0.0
     18      8      9     19   5     0.00000     0.00000     1.25520  0.0
     18      8      9     20   5     0.00000     0.00000     1.25520  0.0
     18      8      9     21   5     0.00000     0.00000     1.25520  0.0
      2     23     24     25   5    -8.00818    -1.52298     2.46438  0.0
      2     23     24     34   5     0.00000     0.00000     1.25520  0.0
      2     23     24     44   5     4.74884    -0.63178     1.67360  0.0
     32     23     24     25   5     0.00000     0.00000    -0.94140  0.0
     32     23     24     34   5     0.00000     0.00000     1.25520  0.0
     32     23     24     44   5     0.00000     0.00000     1.25520  0.0
     33     23     24     25   5     0.00000     0.00000    -0.94140  0.0
     33     23     24     34   5     0.00000     0.00000     1.25520  0.0
     33     23     24     44   5     0.00000     0.00000     1.25520  0.0
     23     24     25     26   5     0.00000     2.52295     0.00000  0.0
     23     24     25     27   5     0.00000     0.00000     3.07524  0.0
     34     24     25     26   5     0.00000     0.00000     0.00000  0.0
     34     24     25     27   5     0.00000     0.00000     0.00000  0.0
     44     24     25     26   5     0.00000     2.52295     0.00000  0.0
     44     24     25     27   5     0.00000     0.00000     3.07524  0.0
     23     24     44     45   5     4.74884    -0.63178     1.67360  0.0
     23     24     44     53   5     0.00000     0.00000     1.25520  0.0
     23     24     44     54   5     0.00000     0.00000     1.25520  0.0
     25     24     44     45   5    -8.00818    -1.52298     2.46438  0.0
     25     24     44     53   5     0.00000     0.00000    -0.94140  0.0
     25     24     44     54   5     0.00000     0.00000    -0.94140  0.0
     34     24     44     45   5     0.00000     0.00000     1.25520  0.0
     34     24     44     53   5     0.00000     0.00000     1.25520  0.0
     34     24     44     54   5     0.00000     0.00000     1.25520  0.0
     24     25     27     28   5    13.65239    24.43456     0.00000  0.0
     26     25     27     28   5     0.00000    25.10400     0.00000  0.0
     25     27     28     29   5    -2.16731    -3.93296     0.98324  0.0
     25     27     28     35   5     0.00000     0.00000     0.67362  0.0
     25     27     28     36   5     0.00000     0.00000     0.67362  0.0
     27     28     29     30   5     5.25092    -2.58990     2.28446  0.0
     27     28     29     37   5     0.00000     0.00000     1.95811  0.0
     27     28     29     38   5     0.00000     0.00000     1.95811  0.0
     35     28     29     30   5     0.00000     0.00000     1.25520  0.0
     35     28     29     37   5     0.00000     0.00000     1.25520  0.0
     35     28     29     38   5     0.00000     0.00000     1.25520  0.0
     36     28     29     30   5     0.00000     0.00000     1.25520  0.0
     36     28     29     37   5     0.00000     0.00000     1.25520  0.0
     36     28     29     38   5     0.00000     0.00000     1.25520  0.0
     28     29     30     31   5     4.74884    -0.63178     1.67360  0.0
     28     29     30     39   5     0.00000     0.00000     1.25520  0.0
     28     29     30     40   5     0.00000     0.00000     1.25520  0.0
     37     29     30     31   5     0.00000     0.00000     1.25520  0.0
     37     29     30     39   5     0.00000     0.00000     1.25520  0.0
     37     29     30     40   5     0.00000     0.00000     1.25520  0.0
     38     29     30     31   5     0.00000     0.00000     1.25520  0.0
     38     29     30     39   5     0.00000     0.00000     1.25520  0.0
     38     29     30     40   5     0.00000     0.00000     1.25520  0.0
     29     30     31     41   5     0.00000     0.00000     1.25520  0.0
     29     30     31     42   5     0.00000     0.00000     1.25520  0.0
     29     30     31     43   5     0.00000     0.00000     1.25520  0.0
     39     30     31     41   5     0.00000     0.00000     1.25520  0.0
     39     30     31     42   5     0.00000     0.00000     1.25520  0.0
     39     30     31     43   5     0.00000     0.00000     1.25520  0.0
     40     30     31     41   5     0.00000     0.00000     1.25520  0.0
     40     30     31     42   5     0.00000     0.00000     1.25520  0.0
     40     30     31     43   5     0.00000     0.00000     1.25520  0.0
     24     44     45     46   5    -8.00818    -1.52298     2.46438  0.0
     24     44     45     55   5     0.00000     0.00000     1.25520  0.0
     24     44     45     65   5     4.74884    -0.63178     1.67360  0.0
     53     44     45     46   5     0.00000     0.00000    -0.94140  0.0
     53     44     45     55   5     0.00000     0.00000     1.25520  0.0
     53     44     45     65   5     0.00000     0.00000     1.25520  0.0
     54     44     45     46   5     0.00000     0.00000    -0.94140  0.0
     54     44     45     55   5     0.00000     0.00000     1.25520  0.0
     54     44     45     65   5     0.00000     0.00000     1.25520  0.0
     44     45     46     47   5     0.00000     2.52295     0.00000  0.0
     44     45     46     48   5     0.00000     0.00000     3.07524  0.0
     55     45     46     47   5     0.00000     0.00000     0.00000  0.0
     55     45     46     48   5     0.00000     0.00000     0.00000  0.0
     65     45     46     47   5     0.00000     2.52295     0.00000  0.0
     65     45     46     48   5     0.00000     0.00000     3.07524  0.0
     44     45     65     66   5     4.74884    -0.63178     1.67360  0.0
     44     45     65     74   5     0.00000     0.00000     1.25520  0.0
     44     45     65     75   5     0.00000     0.00000     1.25520  0.0
     46     45     65     66   5    -8.00818    -1.52298     2.46438  0.0
     46     45     65     74   5     0.00000     0.00000    -0.94140  0.0
     46     45     65     75   5     0.00000     0.00000    -0.94140  0.0
     55     45     65     66   5     0.00000     0.00000     1.25520  0.0
     55     45     65     74   5     0.00000     0.00000     1.25520  0.0
     55     45     65     75   5     0.00000     0.00000     1.25520  0.0
     45     46     48     49   5    13.65239    24.43456     0.00000  0.0
     47     46     48     49   5     0.00000    25.10400     0.00000  0.0
     46     48     49     50   5    -2.16731    -3.93296     0.98324  0.0
     46     48     49     56   5     0.00000     0.00000     0.67362  0.0
     46     48     49     57   5     0.00000     0.00000     0.67362  0.0
     48     49     50     51   5     5.25092    -2.58990     2.28446  0.0
     48     49     50     58   5     0.00000     0.00000     1.95811  0.0
     48     49     50     59   5     0.00000     0.00000     1.95811  0.0
     56     49     50     51   5     0.00000     0.00000     1.25520  0.0
     56     49     50     58   5     0.00000     0.00000     1.25520  0.0
     56     49     50     59   5     0.00000     0.00000     1.25520  0.0
     57     49     50     51   5     0.00000     0.00000     1.25520  0.0
     57     49     50     58   5     0.00000     0.00000     1.25520  0.0
     57     49     50     59   5     0.00000     0.00000     1.25520  0.0
     49     50     51     52   5     4.74884    -0.63178     1.67360  0.0
     49     50     51     60   5     0.00000     0.00000     1.25520  0.0
     49     50     51     61   5     0.00000     0.00000     1.25520  0.0
     58     50     51     52   5     0.00000     0.00000     1.25520  0.0
     58     50     51     60   5     0.00000     0.00000     1.25520  0.0
     58     50     51     61   5     0.00000     0.00000     1.25520  0.0
     59     50     51     52   5     0.00000     0.00000     1.25520  0.0
     59     50     51     60   5     0.00000     0.00000     1.25520  0.0
     59     50     51     61   5     0.00000     0.00000     1.25520  0.0
     50     51     52     62   5     0.00000     0.00000     1.25520  0.0
     50     51     52     63   5     0.00000     0.00000     1.25520  0.0
     50     51     52     64   5     0.00000     0.00000     1.25520  0.0
     60     51     52     62   5     0.00000     0.00000     1.25520  0.0
     60     51     52     63   5     0.00000     0.00000     1.25520  0.0
     60     51     52     64   5     0.00000     0.00000     1.25520  0.0
     61     51     52     62   5     0.00000     0.00000     1.25520  0.0
     61     51     52     63   5     0.00000     0.00000     1.25520  0.0
     61     51     52     64   5     0.00000     0.00000     1.25520  0.0
     45     65     66     67   5    -8.00818    -1.52298     2.46438  0.0
     45     65     66     76   5     0.00000     0.00000     1.25520  0.0
     45     65     66     86   5     4.74884    -0.63178     1.67360  0.0
     74     65     66     67   5     0.00000     0.00000    -0.94140  0.0
     74     65     66     76   5     0.00000     0.00000     1.25520  0.0
     74     65     66     86   5     0.00000     0.00000     1.25520  0.0
     75     65     66     67   5     0.00000     0.00000    -0.94140  0.0
     75     65     66     76   5     0.00000     0.00000     1.25520  0.0
     75     65     66     86   5     0.00000     0.00000     1.25520  0.0
     65     66     67     68   5     0.00000     2.52295     0.00000  0.0
     65     66     67     69   5     0.00000     0.00000     3.07524  0.0
     76     66     67     68   5     0.00000     0.00000     0.00000  0.0
     76     66     67     69   5     0.00000     0.00000     0.00000  0.0
     86     66     67     68   5     0.00000     2.52295     0.00000  0.0
     86     66     67     69   5     0.00000     0.00000     3.07524  0.0
     65     66     86     87   5     4.74884    -0.63178     1.67360  0.0
     65     66     86     95   5     0.00000     0.00000     1.25520  0.0
     65     66     86     96   5     0.00000     0.00000     1.25520  0.0
     67     66     86     87   5    -8.00818    -1.52298     2.46438  0.0
     67     66     86     95   5     0.00000     0.00000    -0.94140  0.0
     67     66     86     96   5     0.00000     0.00000    -0.94140  0.0
     76     66     86     87   5     0.00000     0.00000     1.25520  0.0
     76     66     86     95   5     0.00000     0.00000     1.25520  0.0
     76     66     86     96   5     0.00000     0.00000     1.25520  0.0
     66     67     69     70   5    13.65239    24.43456     0.00000  0.0
     68     67     69     70   5     0.00000    25.10400     0.00000  0.0
     67     69     70     71   5    -2.16731    -3.93296     0.98324  0.0
     67     69     70     77   5     0.00000     0.00000     0.67362  0.0
     67     69     70     78   5     0.00000     0.00000     0.67362  0.0
     69     70     71     72   5     5.25092    -2.58990     2.28446  0.0
     69     70     71     79   5     0.00000     0.00000     1.95811  0.0
     69     70     71     80   5     0.00000     0.00000     1.95811  0.0
     77     70     71     72   5     0.00000     0.00000     1.25520  0.0
     77     70     71     79   5     0.00000     0.00000     1.25520  0.0
     77     70     71     80   5     0.00000     0.00000     1.25520  0.0
     78     70     71     72   5     0.00000     0.00000     1.25520  0.0
     78     70     71     79   5     0.00000     0.00000     1.25520  0.0
     78     70     71     80   5     0.00000     0.00000     1.25520  0.0
     70     71     72     73   5     4.74884    -0.63178     1.67360  0.0
     70     71     72     81   5     0.00000     0.00000     1.25520  0.0
     70     71     72     82   5     0.00000     0.00000     1.25520  0.0
     79     71     72     73   5     0.00000     0.00000     1.25520  0.0
     79     71     72     81   5     0.00000     0.00000     1.25520  0.0
     79     71     72     82   5     0.00000     0.00000     1.25520  0.0
     80     71     72     73   5     0.00000     0.00000     1.25520  0.0
     80     71     72     81   5     0.00000     0.00000     1.25520  0.0
     80     71     72     82   5     0.00000     0.00000     1.25520  0.0
     71     72     73     83   5     0.00000     0.00000     1.25520  0.0
     71     72     73     84   5     0.00000     0.00000     1.25520  0.0
     71     72     73     85   5     0.00000     0.00000     1.25520  0.0
     81     72     73     83   5     0.00000     0.00000     1.25520  0.0
     81     72     73     84   5     0.00000     0.00000     1.25520  0.0
     81     72     73     85   5     0.00000     0.00000     1.25520  0.0
     82     72     73     83   5     0.00000     0.00000     1.25520  0.0
     82     72     73     84   5     0.00000     0.00000     1.25520  0.0
     82     72     73     85   5     0.00000     0.00000     1.25520  0.0
     66     86     87     88   5    -8.00818    -1.52298     2.46438  0.0
     66     86     87     97   5     0.00000     0.00000     1.25520  0.0
     66     86     87    107   5     4.74884    -0.63178     1.67360  0.0
     95     86     87     88   5     0.00000     0.00000    -0.94140  0.0
     95     86     87     97   5     0.00000     0.00000     1.25520  0.0
     95     86     87    107   5     0.00000     0.00000     1.25520  0.0
     96     86     87     88   5     0.00000     0.00000    -0.94140  0.0
     96     86     87     97   5     0.00000     0.00000     1.25520  0.0
     96     86     87    107   5     0.00000     0.00000     1.25520  0.0
     86     87     88     89   5     0.00000     2.52295     0.00000  0.0
     86     87     88     90   5     0.00000     0.00000     3.07524  0.0
     97     87     88     89   5     0.00000     0.00000     0.00000  0.0
     97     87     88     90   5     0.00000     0.00000     0.00000  0.0
    107     87     88     89   5     0.00000     2.52295     0.00000  0.0
    107     87     88     90   5     0.00000     0.00000     3.07524  0.0
     86     87    107    108   5     4.74884    -0.63178     1.67360  0.0
     86     87    107    116   5     0.00000     0.00000     1.25520  0.0
     86     87    107    117   5     0.00000     0.00000     1.25520  0.0
     88     87    107    108   5    -8.00818    -1.52298     2.46438  0.0
     88     87    107    116   5     0.00000     0.00000    -0.94140  0.0
     88     87    107    117   5     0.00000     0.00000    -0.94140  0.0
     97     87    107    108   5     0.00000     0.00000     1.25520  0.0
     97     87    107    116   5     0.00000     0.00000     1.25520  0.0
     97     87    107    117   5     0.00000     0.00000     1.25520  0.0
     87     88     90     91   5    13.65239    24.43456     0.00000  0.0
     89     88     90     91   5     0.00000    25.10400     0.00000  0.0
     88     90     91     92   5    -2.16731    -3.93296     0.98324  0.0
     88     90     91     98   5     0.00000     0.00000     0.67362  0.0
     88     90     91     99   5     0.00000     0.00000     0.67362  0.0
     90     91     92     93   5     5.25092    -2.58990     2.28446  0.0
     90     91     92    100   5     0.00000     0.00000     1.95811  0.0
     90     91     92    101   5     0.00000     0.00000     1.95811  0.0
     98     91     92     93   5     0.00000     0.00000     1.25520  0.0
     98     91     92    100   5     0.00000     0.00000     1.25520  0.0
     98     91     92    101   5     0.00000     0.00000     1.25520  0.0
     99     91     92     93   5     0.00000     0.00000     1.25520  0.0
     99     91     92    100   5     0.00000     0.00000     1.25520  0.0
     99     91     92    101   5     0.00000     0.00000     1.25520  0.0
     91     92     93     94   5     4.74884    -0.63178     1.67360  0.0
     91     92     93    102   5     0.00000     0.00000     1.25520  0.0
     91     92     93    103   5     0.00000     0.00000     1.25520  0.0
    100     92     93     94   5     0.00000     0.00000     1.25520  0.0
    100     92     93    102   5     0.00000     0.00000     1.25520  0.0
    100     92     93    103   5     0.00000     0.00000     1.25520  0.0
    101     92     93     94   5     0.00000     0.00000     1.25520  0.0
    101     92     93    102   5     0.00000     0.00000     1.25520  0.0
    101     92     93    103   5     0.00000     0.00000     1.25520  0.0
     92     93     94    104   5     0.00000     0.00000     1.25520  0.0
     92     93     94    105   5     0.00000     0.00000     1.25520  0.0
     92     93     94    106   5     0.00000     0.00000     1.25520  0.0
    102     93     94    104   5     0.00000     0.00000     1.25520  0.0
    102     93     94    105   5     0.00000     0.00000     1.25520  0.0
    102     93     94    106   5     0.00000     0.00000     1.25520  0.0
    103     93     94    104   5     0.00000     0.00000     1.25520  0.0
    103     93     94    105   5     0.00000     0.00000     1.25520  0.0
    103     93     94    106   5     0.00000     0.00000     1.25520  0.0
     87    107    108    109   5    -8.00818    -1.52298     2.46438  0.0
     87    107    108    118   5     0.00000     0.00000     1.25520  0.0
     87    107    108    128   5     4.74884    -0.63178     1.67360  0.0
    116    107    108    109   5     0.00000     0.00000    -0.94140  0.0
    116    107    108    118   5     0.00000     0.00000     1.25520  0.0
    116    107    108    128   5     0.00000     0.00000     1.25520  0.0
    117    107    108    109   5     0.00000     0.00000    -0.94140  0.0
    117    107    108    118   5     0.00000     0.00000     1.25520  0.0
    117    107    108    128   5     0.00000     0.00000     1.25520  0.0
    107    108    109    110   5     0.00000     2.52295     0.00000  0.0
    107    108    109    111   5     0.00000     0.00000     3.07524  0.0
    118    108    109    110   5     0.00000     0.00000     0.00000  0.0
    118    108    109    111   5     0.00000     0.00000     0.00000  0.0
    128    108    109    110   5     0.00000     2.52295     0.00000  0.0
    128    108    109    111   5     0.00000     0.00000     3.07524  0.0
    107    108    128    129   5     4.74884    -0.63178     1.67360  0.0
    107    108    128    137   5     0.00000     0.00000     1.25520  0.0
    107    108    128    138   5     0.00000     0.00000     1.25520  0.0
    109    108    128    129   5    -8.00818    -1.52298     2.46438  0.0
    109    108    128    137   5     0.00000     0.00000    -0.94140  0.0
    109    108    128    138   5     0.00000     0.00000    -0.94140  0.0
    118    108    128    129   5     0.00000     0.00000     1.25520  0.0
    118    108    128    137   5     0.00000     0.00000     1.25520  0.0
    118    108    128    138   5     0.00000     0.00000     1.25520  0.0
    108    109    111    112   5    13.65239    24.43456     0.00000  0.0
    110    109    111    112   5     0.00000    25.10400     0.00000  0.0
    109    111    112    113   5    -2.16731    -3.93296     0.98324  0.0
    109    111    112    119   5     0.00000     0.00000     0.67362  0.0
    109    111    112    120   5     0.00000     0.00000     0.67362  0.0
    111    112    113    114   5     5.25092    -2.58990     2.28446  0.0
    111    112    113    121   5     0.00000     0.00000     1.95811  0.0
    111    112    113    122   5     0.00000     0.00000     1.95811  0.0
    119    112    113    114   5     0.00000     0.00000     1.25520  0.0
    119    112    113    121   5     0.00000     0.00000     1.25520  0.0
    119    112    113    122   5     0.00000     0.00000     1.25520  0.0
    120    112    113    114   5     0.00000     0.00000     1.25520  0.0
    120    112    113    121   5     0.00000     0.00000     1.25520  0.0
    120    112    113    122   5     0.00000     0.00000     1.25520  0.0
    112    113    114    115   5     4.74884    -0.63178     1.67360  0.0
    112    113    114    123   5     0.00000     0.00000     1.25520  0.0
    112    113    114    124   5     0.00000     0.00000     1.25520  0.0
    121    113    114    115   5     0.00000     0.00000     1.25520  0.0
    121    113    114    123   5     0.00000     0.00000     1.25520  0.0
    121    113    114    124   5     0.00000     0.00000     1.25520  0.0
    122    113    114    115   5     0.00000     0.00000     1.25520  0.0
    122    113    114    123   5     0.00000     0.00000     1.25520  0.0
    122    113    114    124   5     0.00000     0.00000     1.25520  0.0
    113    114    115    125   5     0.00000     0.00000     1.25520  0.0
    113    114    115    126   5     0.00000     0.00000     1.25520  0.0
    113    114    115    127   5     0.00000     0.00000     1.25520  0.0
    123    114    115    125   5     0.00000     0.00000     1.25520  0.0
    123    114    115    126   5     0.00000     0.00000     1.25520  0.0
    123    114    115    127   5     0.00000     0.00000     1.25520  0.0
    124    114    115    125   5     0.00000     0.00000     1.25520  0.0
    124    114    115    126   5     0.00000     0.00000     1.25520  0.0
    124    114    115    127   5     0.00000     0.00000     1.25520  0.0
    108    128    129    130   5    -8.00818    -1.52298     2.46438  0.0
    108    128    129    139   5     0.00000     0.00000     1.25520  0.0
    108    128    129    149   5     4.74884    -0.63178     1.67360  0.0
    137    128    129    130   5     0.00000     0.00000    -0.94140  0.0
    137    128    129    139   5     0.00000     0.00000     1.25520  0.0
    137    128    129    149   5     0.00000     0.00000     1.25520  0.0
    138    128    129    130   5     0.00000     0.00000    -0.94140  0.0
    138    128    129    139   5     0.00000     0.00000     1.25520  0.0
    138    128    129    149   5     0.00000     0.00000     1.25520  0.0
    128    129    130    131   5     0.00000     2.52295     0.00000  0.0
    128    129    130    132   5     0.00000     0.00000     3.07524  0.0
    139    129    130    131   5     0.00000     0.00000     0.00000  0.0
    139    129    130    132   5     0.00000     0.00000     0.00000  0.0
    149    129    130    131   5     0.00000     2.52295     0.00000  0.0
    149    129    130    132   5     0.00000     0.00000     3.07524  0.0
    128    129    149    150   5     4.74884    -0.63178     1.67360  0.0
    128    129    149    158   5     0.00000     0.00000     1.25520  0.0
    128    129    149    159   5     0.00000     0.00000     1.25520  0.0
    130    129    149    150   5    -8.00818    -1.52298     2.46438  0.0
    130    129    149    158   5     0.00000     0.00000    -0.94140  0.0
    130    129    149    159   5     0.00000     0.00000    -0.94140  0.0
    139    129    149    150   5     0.00000     0.00000     1.25520  0.0
    139    129    149    158   5     0.00000     0.00000     1.25520  0.0
    139    129    149    159   5     0.00000     0.00000     1.25520  0.0
    129    130    132    133   5    13.65239    24.43456     0.00000  0.0
    131    130    132    133   5     0.00000    25.10400     0.00000  0.0
    130    132    133    134   5    -2.16731    -3.93296     0.98324  0.0
    130    132    133    140   5     0.00000     0.00000     0.67362  0.0
    130    132    133    141   5     0.00000     0.00000     0.67362  0.0
    132    133    134    135   5     5.25092    -2.58990     2.28446  0.0
    132    133    134    142   5     0.00000     0.00000     1.95811  0.0
    132    133    134    143   5     0.00000     0.00000     1.95811  0.0
    140    133    134    135   5     0.00000     0.00000     1.25520  0.0
    140    133    134    142   5     0.00000     0.00000     1.25520  0.0
    140    133    134    143   5     0.00000     0.00000     1.25520  0.0
    141    133    134    135   5     0.00000     0.00000     1.25520  0.0
    141    133    134    142   5     0.00000     0.00000     1.25520  0.0
    141    133    134    143   5     0.00000     0.00000     1.25520  0.0
    133    134    135    136   5     4.74884    -0.63178     1.67360  0.0
    133    134    135    144   5     0.00000     0.00000     1.25520  0.0
    133    134    135    145   5     0.00000     0.00000     1.25520  0.0
    142    134    135    136   5     0.00000     0.00000     1.25520  0.0
    142    134    135    144   5     0.00000     0.00000     1.25520  0.0
    142    134    135    145   5     0.00000     0.00000     1.25520  0.0
    143    134    135    136   5     0.00000     0.00000     1.25520  0.0
    143    134    135    144   5     0.00000     0.00000     1.25520  0.0
    143    134    135    145   5     0.00000     0.00000     1.25520  0.0
    134    135    136    146   5     0.00000     0.00000     1.25520  0.0
    134    135    136    147   5     0.00000     0.00000     1.25520  0.0
    134    135    136    148   5     0.00000     0.00000     1.25520  0.0
    144    135    136    146   5     0.00000     0.00000     1.25520  0.0
    144    135    136    147   5     0.00000     0.00000     1.25520  0.0
    144    135    136    148   5     0.00000     0.00000     1.25520  0.0
    145    135    136    146   5     0.00000     0.00000     1.25520  0.0
    145    135    136    147   5     0.00000     0.00000     1.25520  0.0
    145    135    136    148   5     0.00000     0.00000     1.25520  0.0
    129    149    150    151   5    -8.00818    -1.52298     2.46438  0.0
    129    149    150    160   5     0.00000     0.00000     1.25520  0.0
    129    149    150    170   5     4.74884    -0.63178     1.67360  0.0
    158    149    150    151   5     0.00000     0.00000    -0.94140  0.0
    158    149    150    160   5     0.00000     0.00000     1.25520  0.0
    158    149    150    170   5     0.00000     0.00000     1.25520  0.0
    159    149    150    151   5     0.00000     0.00000    -0.94140  0.0
    159    149    150    160   5     0.00000     0.00000     1.25520  0.0
    159    149    150    170   5     0.00000     0.00000     1.25520  0.0
    149    150    151    152   5     0.00000     2.52295     0.00000  0.0
    149    150    151    153   5     0.00000     0.00000     3.07524  0.0
    160    150    151    152   5     0.00000     0.00000     0.00000  0.0
    160    150    151    153   5     0.00000     0.00000     0.00000  0.0
    170    150    151    152   5     0.00000     2.52295     0.00000  0.0
    170    150    151    153   5     0.00000     0.00000     3.07524  0.0
    149    150    170    171   5     4.74884    -0.63178     1.67360  0.0
    149    150    170    179   5     0.00000     0.00000     1.25520  0.0
    149    150    170    180   5     0.00000     0.00000     1.25520  0.0
    151    150    170    171   5    -8.00818    -1.52298     2.46438  0.0
    151    150    170    179   5     0.00000     0.00000    -0.94140  0.0
    151    150    170    180   5     0.00000     0.00000    -0.94140  0.0
    160    150    170    171   5     0.00000     0.00000     1.25520  0.0
    160    150    170    179   5     0.00000     0.00000     1.25520  0.0
    160    150    170    180   5     0.00000     0.00000     1.25520  0.0
    150    151    153    154   5    13.65239    24.43456     0.00000  0.0
    152    151    153    154   5     0.00000    25.10400     0.00000  0.0
    151    153    154    155   5    -2.16731    -3.93296     0.98324  0.0
    151    153    154    161   5     0.00000     0.00000     0.67362  0.0
    151    153    154    162   5     0.00000     0.00000     0.67362  0.0
    153    154    155    156   5     5.25092    -2.58990     2.28446  0.0
    153    154    155    163   5     0.00000     0.00000     1.95811  0.0
    153    154    155    164   5     0.00000     0.00000     1.95811  0.0
    161    154    155    156   5     0.00000     0.00000     1.25520  0.0
    161    154    155    163   5     0.00000     0.00000     1.25520  0.0
    161    154    155    164   5     0.00000     0.00000     1.25520  0.0
    162    154    155    156   5     0.00000     0.00000     1.25520  0.0
    162    154    155    163   5     0.00000     0.00000     1.25520  0.0
    162    154    155    164   5     0.00000     0.00000     1.25520  0.0
    154    155    156    157   5     4.74884    -0.63178     1.67360  0.0
    154    155    156    165   5     0.00000     0.00000     1.25520  0.0
    154    155    156    166   5     0.00000     0.00000     1.25520  0.0
    163    155    156    157   5     0.00000     0.00000     1.25520  0.0
    163    155    156    165   5     0.00000     0.00000     1.25520  0.0
    163    155    156    166   5     0.00000     0.00000     1.25520  0.0
    164    155    156    157   5     0.00000     0.00000     1.25520  0.0
    164    155    156    165   5     0.00000     0.00000     1.25520  0.0
    164    155    156    166   5     0.00000     0.00000     1.25520  0.0
    155    156    157    167   5     0.00000     0.00000     1.25520  0.0
    155    156    157    168   5     0.00000     0.00000     1.25520  0.0
    155    156    157    169   5     0.00000     0.00000     1.25520  0.0
    165    156    157    167   5     0.00000     0.00000     1.25520  0.0
    165    156    157    168   5     0.00000     0.00000     1.25520  0.0
    165    156    157    169   5     0.00000     0.00000     1.25520  0.0
    166    156    157    167   5     0.00000     0.00000     1.25520  0.0
    166    156    157    168   5     0.00000     0.00000     1.25520  0.0
    166    156    157    169   5     0.00000     0.00000     1.25520  0.0
    150    170    171    172   5    -8.00818    -1.52298     2.46438  0.0
    150    170    171    181   5     0.00000     0.00000     1.25520  0.0
    150    170    171    191   5     4.74884    -0.63178     1.67360  0.0
    179    170    171    172   5     0.00000     0.00000    -0.94140  0.0
    179    170    171    181   5     0.00000     0.00000     1.25520  0.0
    179    170    171    191   5     0.00000     0.00000     1.25520  0.0
    180    170    171    172   5     0.00000     0.00000    -0.94140  0.0
    180    170    171    181   5     0.00000     0.00000     1.25520  0.0
    180    170    171    191   5     0.00000     0.00000     1.25520  0.0
    170    171    172    173   5     0.00000     2.52295     0.00000  0.0
    170    171    172    174   5     0.00000     0.00000     3.07524  0.0
    181    171    172    173   5     0.00000     0.00000     0.00000  0.0
    181    171    172    174   5     0.00000     0.00000     0.00000  0.0
    191    171    172    173   5     0.00000     2.52295     0.00000  0.0
    191    171    172    174   5     0.00000     0.00000     3.07524  0.0
    170    171    191    192   5     4.74884    -0.63178     1.67360  0.0
    170    171    191    200   5     0.00000     0.00000     1.25520  0.0
    170    171    191    201   5     0.00000     0.00000     1.25520  0.0
    172    171    191    192   5    -8.00818    -1.52298     2.46438  0.0
    172    171    191    200   5     0.00000     0.00000    -0.94140  0.0
    172    171    191    201   5     0.00000     0.00000    -0.94140  0.0
    181    171    191    192   5     0.00000     0.00000     1.25520  0.0
    181    171    191    200   5     0.00000     0.00000     1.25520  0.0
    181    171    191    201   5     0.00000     0.00000     1.25520  0.0
    171    172    174    175   5    13.65239    24.43456     0.00000  0.0
    173    172    174    175   5     0.00000    25.10400     0.00000  0.0
    172    174    175    176   5    -2.16731    -3.93296     0.98324  0.0
    172    174    175    182   5     0.00000     0.00000     0.67362  0.0
    172    174    175    183   5     0.00000     0.00000     0.67362  0.0
    174    175    176    177   5     5.25092    -2.58990     2.28446  0.0
    174    175    176    184   5     0.00000     0.00000     1.95811  0.0
    174    175    176    185   5     0.00000     0.00000     1.95811  0.0
    182    175    176    177   5     0.00000     0.00000     1.25520  0.0
    182    175    176    184   5     0.00000     0.00000     1.25520  0.0
    182    175    176    185   5     0.00000     0.00000     1.25520  0.0
    183    175    176    177   5     0.00000     0.00000     1.25520  0.0
    183    175    176    184   5     0.00000     0.00000     1.25520  0.0
    183    175    176    185   5     0.00000     0.00000     1.25520  0.0
    175    176    177    178   5     4.74884    -0.63178     1.67360  0.0
    175    176    177    186   5     0.00000     0.00000     1.25520  0.0
    175    176    177    187   5     0.00000     0.00000     1.25520  0.0
    184    176    177    178   5     0.00000     0.00000     1.25520  0.0
    184    176    177    186   5     0.00000     0.00000     1.25520  0.0
    184    176    177    187   5     0.00000     0.00000     1.25520  0.0
    185    176    177    178   5     0.00000     0.00000     1.25520  0.0
    185    176    177    186   5     0.00000     0.00000     1.25520  0.0
    185    176    177    187   5     0.00000     0.00000     1.25520  0.0
    176    177    178    188   5     0.00000     0.00000     1.25520  0.0
    176    177    178    189   5     0.00000     0.00000     1.25520  0.0
    176    177    178    190   5     0.00000     0.00000     1.25520  0.0
    186    177    178    188   5     0.00000     0.00000     1.25520  0.0
    186    177    178    189   5     0.00000     0.00000     1.25520  0.0
    186    177    178    190   5     0.00000     0.00000     1.25520  0.0
    187    177    178    188   5     0.00000     0.00000     1.25520  0.0
    187    177    178    189   5     0.00000     0.00000     1.25520  0.0
    187    177    178    190   5     0.00000     0.00000     1.25520  0.0
    171    191    192    193   5    -8.00818    -1.52298     2.46438  0.0
    171    191    192    202   5     0.00000     0.00000     1.25520  0.0
    171    191    192    212   5     4.74884    -0.63178     1.67360  0.0
    200    191    192    193   5     0.00000     0.00000    -0.94140  0.0
    200    191    192    202   5     0.00000     0.00000     1.25520  0.0
    200    191    192    212   5     0.00000     0.00000     1.25520  0.0
    201    191    192    193   5     0.00000     0.00000    -0.94140  0.0
    201    191    192    202   5     0.00000     0.00000     1.25520  0.0
    201    191    192    212   5     0.00000     0.00000     1.25520  0.0
    191    192    193    194   5     0.00000     2.52295     0.00000  0.0
    191    192    193    195   5     0.00000     0.00000     3.07524  0.0
    202    192    193    194   5     0.00000     0.00000     0.00000  0.0
    202    192    193    195   5     0.00000     0.00000     0.00000  0.0
    212    192    193    194   5     0.00000     2.52295     0.00000  0.0
    212    192    193    195   5     0.00000     0.00000     3.07524  0.0
    191    192    212    213   5     4.74884    -0.63178     1.67360  0.0
    191    192    212    221   5     0.00000     0.00000     1.25520  0.0
    191    192    212    222   5     0.00000     0.00000     1.25520  0.0
    193    192    212    213   5    -8.00818    -1.52298     2.46438  0.0
    193    192    212    221   5     0.00000     0.00000    -0.94140  0.0
    193    192    212    222   5     0.00000     0.00000    -0.94140  0.0
    202    192    212    213   5     0.00000     0.00000     1.25520  0.0
    202    192    212    221   5     0.00000     0.00000     1.25520  0.0
    202    192    212    222   5     0.00000     0.00000     1.25520  0.0
    192    193    195    196   5    13.65239    24.43456     0.00000  0.0
    194    193    195    196   5     0.00000    25.10400     0.00000  0.0
    193    195    196    197   5    -2.16731    -3.93296     0.98324  0.0
    193    195    196    203   5     0.00000     0.00000     0.67362  0.0
    193    195    196    204   5     0.00000     0.00000     0.67362  0.0
    195    196    197    198   5     5.25092    -2.58990     2.28446  0.0
    195    196    197    205   5     0.00000     0.00000     1.95811  0.0
    195    196    197    206   5     0.00000     0.00000     1.95811  0.0
    203    196    197    198   5     0.00000     0.00000     1.25520  0.0
    203    196    197    205   5     0.00000     0.00000     1.25520  0.0
    203    196    197    206   5     0.00000     0.00000     1.25520  0.0
    204    196    197    198   5     0.00000     0.00000     1.25520  0.0
    204    196    197    205   5     0.00000     0.00000     1.25520  0.0
    204    196    197    206   5     0.00000     0.00000     1.25520  0.0
    196    197    198    199   5     4.74884    -0.63178     1.67360  0.0
    196    197    198    207   5     0.00000     0.00000     1.25520  0.0
    196    197    198    208   5     0.00000     0.00000     1.25520  0.0
    205    197    198    199   5     0.00000     0.00000     1.25520  0.0
    205    197    198    207   5     0.00000     0.00000     1.25520  0.0
    205    197    198    208   5     0.00000     0.00000     1.25520  0.0
    206    197    198    199   5     0.00000     0.00000     1.25520  0.0
    206    197    198    207   5     0.00000     0.00000     1.25520  0.0
    206    197    198    208   5     0.00000     0.00000     1.25520  0.0
    197    198    199    209   5     0.00000     0.00000     1.25520  0.0
    197    198    199    210   5     0.00000     0.00000     1.25520  0.0
    197    198    199    211   5     0.00000     0.00000     1.25520  0.0
    207    198    199    209   5     0.00000     0.00000     1.25520  0.0
    207    198    199    210   5     0.00000     0.00000     1.25520  0.0
    207    198    199    211   5     0.00000     0.00000     1.25520  0.0
    208    198    199    209   5     0.00000     0.00000     1.25520  0.0
    208    198    199    210   5     0.00000     0.00000     1.25520  0.0
    208    198    199    211   5     0.00000     0.00000     1.25520  0.0
    192    212    213    214   5    -8.00818    -1.52298     2.46438  0.0
    192    212    213    223   5     0.00000     0.00000     1.25520  0.0
    192    212    213    233   5     4.74884    -0.63178     1.67360  0.0
    221    212    213    214   5     0.00000     0.00000    -0.94140  0.0
    221    212    213    223   5     0.00000     0.00000     1.25520  0.0
    221    212    213    233   5     0.00000     0.00000     1.25520  0.0
    222    212    213    214   5     0.00000     0.00000    -0.94140  0.0
    222    212    213    223   5     0.00000     0.00000     1.25520  0.0
    222    212    213    233   5     0.00000     0.00000     1.25520  0.0
    212    213    214    215   5     0.00000     2.52295     0.00000  0.0
    212    213    214    216   5     0.00000     0.00000     3.07524  0.0
    223    213    214    215   5     0.00000     0.00000     0.00000  0.0
    223    213    214    216   5     0.00000     0.00000     0.00000  0.0
    233    213    214    215   5     0.00000     2.52295     0.00000  0.0
    233    213    214    216   5     0.00000     0.00000     3.07524  0.0
    212    213    233    234   5     4.74884    -0.63178     1.67360  0.0
    212    213    233    242   5     0.00000     0.00000     1.25520  0.0
    212    213    233    243   5     0.00000     0.00000     1.25520  0.0
    214    213    233    234   5    -8.00818    -1.52298     2.46438  0.0
    214    213    233    242   5     0.00000     0.00000    -0.94140  0.0
    214    213    233    243   5     0.00000     0.00000    -0.94140  0.0
    223    213    233    234   5     0.00000     0.00000     1.25520  0.0
    223    213    233    242   5     0.00000     0.00000     1.25520  0.0
    223    213    233    243   5     0.00000     0.00000     1.25520  0.0
    213    214    216    217   5    13.65239    24.43456     0.00000  0.0
    215    214    216    217   5     0.00000    25.10400     0.00000  0.0
    214    216    217    218   5    -2.16731    -3.93296     0.98324  0.0
    214    216    217    224   5     0.00000     0.00000     0.67362  0.0
    214    216    217    225   5     0.00000     0.00000     0.67362  0.0
    216    217    218    219   5     5.25092    -2.58990     2.28446  0.0
    216    217    218    226   5     0.00000     0.00000     1.95811  0.0
    216    217    218    227   5     0.00000     0.00000     1.95811  0.0
    224    217    218    219   5     0.00000     0.00000     1.25520  0.0
    224    217    218    226   5     0.00000     0.00000     1.25520  0.0
    224    217    218    227   5     0.00000     0.00000     1.25520  0.0
    225    217    218    219   5     0.00000     0.00000     1.25520  0.0
    225    217    218    226   5     0.00000     0.00000     1.25520  0.0
    225    217    218    227   5     0.00000     0.00000     1.25520  0.0
    217    218    219    220   5     4.74884    -0.63178     1.67360  0.0
    217    218    219    228   5     0.00000     0.00000     1.25520  0.0
    217    218    219    229   5     0.00000     0.00000     1.25520  0.0
    226    218    219    220   5     0.00000     0.00000     1.25520  0.0
    226    218    219    228   5     0.00000     0.00000     1.25520  0.0
    226    218    219    229   5     0.00000     0.00000     1.25520  0.0
    227    218    219    220   5     0.00000     0.00000     1.25520  0.0
    227    218    219    228   5     0.00000     0.00000     1.25520  0.0
    227    218    219    229   5     0.00000     0.00000     1.25520  0.0
    218    219    220    230   5     0.00000     0.00000     1.25520  0.0
    218    219    220    231   5     0.00000     0.00000     1.25520  0.0
    218    219    220    232   5     0.00000     0.00000     1.25520  0.0
    228    219    220    230   5     0.00000     0.00000     1.25520  0.0
    228    219    220    231   5     0.00000     0.00000     1.25520  0.0
    228    219    220    232   5     0.00000     0.00000     1.25520  0.0
    229    219    220    230   5     0.00000     0.00000     1.25520  0.0
    229    219    220    231   5     0.00000     0.00000     1.25520  0.0
    229    219    220    232   5     0.00000     0.00000     1.25520  0.0
    213    233    234    235   5    -8.00818    -1.52298     2.46438  0.0
    213    233    234    244   5     0.00000     0.00000     1.25520  0.0
    213    233    234    254   5     4.74884    -0.63178     1.67360  0.0
    242    233    234    235   5     0.00000     0.00000    -0.94140  0.0
    242    233    234    244   5     0.00000     0.00000     1.25520  0.0
    242    233    234    254   5     0.00000     0.00000     1.25520  0.0
    243    233    234    235   5     0.00000     0.00000    -0.94140  0.0
    243    233    234    244   5     0.00000     0.00000     1.25520  0.0
    243    233    234    254   5     0.00000     0.00000     1.25520  0.0
    233    234    235    236   5     0.00000     2.52295     0.00000  0.0
    233    234    235    237   5     0.00000     0.00000     3.07524  0.0
    244    234    235    236   5     0.00000     0.00000     0.00000  0.0
    244    234    235    237   5     0.00000     0.00000     0.00000  0.0
    254    234    235    236   5     0.00000     2.52295     0.00000  0.0
    254    234    235    237   5     0.00000     0.00000     3.07524  0.0
    233    234    254    255   5     4.74884    -0.63178     1.67360  0.0
    233    234    254    263   5     0.00000     0.00000     1.25520  0.0
    233    234    254    264   5     0.00000     0.00000     1.25520  0.0
    235    234    254    255   5    -8.00818    -1.52298     2.46438  0.0
    235    234    254    263   5     0.00000     0.00000    -0.94140  0.0
    235    234    254    264   5     0.00000     0.00000    -0.94140  0.0
    244    234    254    255   5     0.00000     0.00000     1.25520  0.0
    244    234    254    263   5     0.00000     0.00000     1.25520  0.0
    244    234    254    264   5     0.00000     0.00000     1.25520  0.0
    234    235    237    238   5    13.65239    24.43456     0.00000  0.0
    236    235    237    238   5     0.00000    25.10400     0.00000  0.0
    235    237    238    239   5    -2.16731    -3.93296     0.98324  0.0
    235    237    238    245   5     0.00000     0.00000     0.67362  0.0
    235    237    238    246   5     0.00000     0.00000     0.67362  0.0
    237    238    239    240   5     5.25092    -2.58990     2.28446  0.0
    237    238    239    247   5     0.00000     0.00000     1.95811  0.0
    237    238    239    248   5     0.00000     0.00000     1.95811  0.0
    245    238    239    240   5     0.00000     0.00000     1.25520  0.0
    245    238    239    247   5     0.00000     0.00000     1.25520  0.0
    245    238    239    248   5     0.00000     0.00000     1.25520  0.0
    246    238    239    240   5     0.00000     0.00000     1.25520  0.0
    246    238    239    247   5     0.00000     0.00000     1.25520  0.0
    246    238    239    248   5     0.00000     0.00000     1.25520  0.0
    238    239    240    241   5     4.74884    -0.63178     1.67360  0.0
    238    239    240    249   5     0.00000     0.00000     1.25520  0.0
    238    239    240    250   5     0.00000     0.00000     1.25520  0.0
    247    239    240    241   5     0.00000     0.00000     1.25520  0.0
    247    239    240    249   5     0.00000     0.00000     1.25520  0.0
    247    239    240    250   5     0.00000     0.00000     1.25520  0.0
    248    239    240    241   5     0.00000     0.00000     1.25520  0.0
    248    239    240    249   5     0.00000     0.00000     1.25520  0.0
    248    239    240    250   5     0.00000     0.00000     1.25520  0.0
    239    240    241    251   5     0.00000     0.00000     1.25520  0.0
    239    240    241    252   5     0.00000     0.00000     1.25520  0.0
    239    240    241    253   5     0.00000     0.00000     1.25520  0.0
    249    240    241    251   5     0.00000     0.00000     1.25520  0.0
    249    240    241    252   5     0.00000     0.00000     1.25520  0.0
    249    240    241    253   5     0.00000     0.00000     1.25520  0.0
    250    240    241    251   5     0.00000     0.00000     1.25520  0.0
    250    240    241    252   5     0.00000     0.00000     1.25520  0.0
    250    240    241    253   5     0.00000     0.00000     1.25520  0.0
    234    254    255    256   5    -8.00818    -1.52298     2.46438  0.0
    234    254    255    265   5     0.00000     0.00000     1.25520  0.0
    234    254    255    275   5     4.74884    -0.63178     1.67360  0.0
    263    254    255    256   5     0.00000     0.00000    -0.94140  0.0
    263    254    255    265   5     0.00000     0.00000     1.25520  0.0
    263    254    255    275   5     0.00000     0.00000     1.25520  0.0
    264    254    255    256   5     0.00000     0.00000    -0.94140  0.0
    264    254    255    265   5     0.00000     0.00000     1.25520  0.0
    264    254    255    275   5     0.00000     0.00000     1.25520  0.0
    254    255    256    257   5     0.00000     2.52295     0.00000  0.0
    254    255    256    258   5     0.00000     0.00000     3.07524  0.0
    265    255    256    257   5     0.00000     0.00000     0.00000  0.0
    265    255    256    258   5     0.00000     0.00000     0.00000  0.0
    275    255    256    257   5     0.00000     2.52295     0.00000  0.0
    275    255    256    258   5     0.00000     0.00000     3.07524  0.0
    254    255    275    276   5     4.74884    -0.63178     1.67360  0.0
    254    255    275    284   5     0.00000     0.00000     1.25520  0.0
    254    255    275    285   5     0.00000     0.00000     1.25520  0.0
    256    255    275    276   5    -8.00818    -1.52298     2.46438  0.0
    256    255    275    284   5     0.00000     0.00000    -0.94140  0.0
    256    255    275    285   5     0.00000     0.00000    -0.94140  0.0
    265    255    275    276   5     0.00000     0.00000     1.25520  0.0
    265    255    275    284   5     0.00000     0.00000     1.25520  0.0
    265    255    275    285   5     0.00000     0.00000     1.25520  0.0
    255    256    258    259   5    13.65239    24.43456     0.00000  0.0
    257    256    258    259   5     0.00000    25.10400     0.00000  0.0
    256    258    259    260   5    -2.16731    -3.93296     0.98324  0.0
    256    258    259    266   5     0.00000     0.00000     0.67362  0.0
    256    258    259    267   5     0.00000     0.00000     0.67362  0.0
    258    259    260    261   5     5.25092    -2.58990     2.28446  0.0
    258    259    260    268   5     0.00000     0.00000     1.95811  0.0
    258    259    260    269   5     0.00000     0.00000     1.95811  0.0
    266    259    260    261   5     0.00000     0.00000     1.25520  0.0
    266    259    260    268   5     0.00000     0.00000     1.25520  0.0
    266    259    260    269   5     0.00000     0.00000     1.25520  0.0
    267    259    260    261   5     0.00000     0.00000     1.25520  0.0
    267    259    260    268   5     0.00000     0.00000     1.25520  0.0
    267    259    260    269   5     0.00000     0.00000     1.25520  0.0
    259    260    261    262   5     4.74884    -0.63178     1.67360  0.0
    259    260    261    270   5     0.00000     0.00000     1.25520  0.0
    259    260    261    271   5     0.00000     0.00000     1.25520  0.0
    268    260    261    262   5     0.00000     0.00000     1.25520  0.0
    268    260    261    270   5     0.00000     0.00000     1.25520  0.0
    268    260    261    271   5     0.00000     0.00000     1.25520  0.0
    269    260    261    262   5     0.00000     0.00000     1.25520  0.0
    269    260    261    270   5     0.00000     0.00000     1.25520  0.0
    269    260    261    271   5     0.00000     0.00000     1.25520  0.0
    260    261    262    272   5     0.00000     0.00000     1.25520  0.0
    260    261    262    273   5     0.00000     0.00000     1.25520  0.0
    260    261    262    274   5     0.00000     0.00000     1.25520  0.0
    270    261    262    272   5     0.00000     0.00000     1.25520  0.0
    270    261    262    273   5     0.00000     0.00000     1.25520  0.0
    270    261    262    274   5     0.00000     0.00000     1.25520  0.0
    271    261    262    272   5     0.00000     0.00000     1.25520  0.0
    271    261    262    273   5     0.00000     0.00000     1.25520  0.0
    271    261    262    274   5     0.00000     0.00000     1.25520  0.0
    255    275    276    277   5    -8.00818    -1.52298     2.46438  0.0
    255    275    276    286   5     0.00000     0.00000     1.25520  0.0
    255    275    276    296   5     4.74884    -0.63178     1.67360  0.0
    284    275    276    277   5     0.00000     0.00000    -0.94140  0.0
    284    275    276    286   5     0.00000     0.00000     1.25520  0.0
    284    275    276    296   5     0.00000     0.00000     1.25520  0.0
    285    275    276    277   5     0.00000     0.00000    -0.94140  0.0
    285    275    276    286   5     0.00000     0.00000     1.25520  0.0
    285    275    276    296   5     0.00000     0.00000     1.25520  0.0
    275    276    277    278   5     0.00000     2.52295     0.00000  0.0
    275    276    277    279   5     0.00000     0.00000     3.07524  0.0
    286    276    277    278   5     0.00000     0.00000     0.00000  0.0
    286    276    277    279   5     0.00000     0.00000     0.00000  0.0
    296    276    277    278   5     0.00000     2.52295     0.00000  0.0
    296    276    277    279   5     0.00000     0.00000     3.07524  0.0
    275    276    296    297   5     4.74884    -0.63178     1.67360  0.0
    275    276    296    305   5     0.00000     0.00000     1.25520  0.0
    275    276    296    306   5     0.00000     0.00000     1.25520  0.0
    277    276    296    297   5    -8.00818    -1.52298     2.46438  0.0
    277    276    296    305   5     0.00000     0.00000    -0.94140  0.0
    277    276    296    306   5     0.00000     0.00000    -0.94140  0.0
    286    276    296    297   5     0.00000     0.00000     1.25520  0.0
    286    276    296    305   5     0.00000     0.00000     1.25520  0.0
    286    276    296    306   5     0.00000     0.00000     1.25520  0.0
    276    277    279    280   5    13.65239    24.43456     0.00000  0.0
    278    277    279    280   5     0.00000    25.10400     0.00000  0.0
    277    279    280    281   5    -2.16731    -3.93296     0.98324  0.0
    277    279    280    287   5     0.00000     0.00000     0.67362  0.0
    277    279    280    288   5     0.00000     0.00000     0.67362  0.0
    279    280    281    282   5     5.25092    -2.58990     2.28446  0.0
    279    280    281    289   5     0.00000     0.00000     1.95811  0.0
    279    280    281    290   5     0.00000     0.00000     1.95811  0.0
    287    280    281    282   5     0.00000     0.00000     1.25520  0.0
    287    280    281    289   5     0.00000     0.00000     1.25520  0.0
    287    280    281    290   5     0.00000     0.00000     1.25520  0.0
    288    280    281    282   5     0.00000     0.00000     1.25520  0.0
    288    280    281    289   5     0.00000     0.00000     1.25520  0.0
    288    280    281    290   5     0.00000     0.00000     1.25520  0.0
    280    281    282    283   5     4.74884    -0.63178     1.67360  0.0
    280    281    282    291   5     0.00000     0.00000     1.25520  0.0
    280    281    282    292   5     0.00000     0.00000     1.25520  0.0
    289    281    282    283   5     0.00000     0.00000     1.25520  0.0
    289    281    282    291   5     0.00000     0.00000     1.25520  0.0
    289    281    282    292   5     0.00000     0.00000     1.25520  0.0
    290    281    282    283   5     0.00000     0.00000     1.25520  0.0
    290    281    282    291   5     0.00000     0.00000     1.25520  0.0
    290    281    282    292   5     0.00000     0.00000     1.25520  0.0
    281    282    283    293   5     0.00000     0.00000     1.25520  0.0
    281    282    283    294   5     0.00000     0.00000     1.25520  0.0
    281    282    283    295   5     0.00000     0.00000     1.25520  0.0
    291    282    283    293   5     0.00000     0.00000     1.25520  0.0
    291    282    283    294   5     0.00000     0.00000     1.25520  0.0
    291    282    283    295   5     0.00000     0.00000     1.25520  0.0
    292    282    283    293   5     0.00000     0.00000     1.25520  0.0
    292    282    283    294   5     0.00000     0.00000     1.25520  0.0
    292    282    283    295   5     0.00000     0.00000     1.25520  0.0
    276    296    297    298   5    -8.00818    -1.52298     2.46438  0.0
    276    296    297    307   5     0.00000     0.00000     1.25520  0.0
    276    296    297    317   5     4.74884    -0.63178     1.67360  0.0
    305    296    297    298   5     0.00000     0.00000    -0.94140  0.0
    305    296    297    307   5     0.00000     0.00000     1.25520  0.0
    305    296    297    317   5     0.00000     0.00000     1.25520  0.0
    306    296    297    298   5     0.00000     0.00000    -0.94140  0.0
    306    296    297    307   5     0.00000     0.00000     1.25520  0.0
    306    296    297    317   5     0.00000     0.00000     1.25520  0.0
    296    297    298    299   5     0.00000     2.52295     0.00000  0.0
    296    297    298    300   5     0.00000     0.00000     3.07524  0.0
    307    297    298    299   5     0.00000     0.00000     0.00000  0.0
    307    297    298    300   5     0.00000     0.00000     0.00000  0.0
    317    297    298    299   5     0.00000     2.52295     0.00000  0.0
    317    297    298    300   5     0.00000     0.00000     3.07524  0.0
    296    297    317    318   5     4.74884    -0.63178     1.67360  0.0
    296    297    317    326   5     0.00000     0.00000     1.25520  0.0
    296    297    317    327   5     0.00000     0.00000     1.25520  0.0
    298    297    317    318   5    -8.00818    -1.52298     2.46438  0.0
    298    297    317    326   5     0.00000     0.00000    -0.94140  0.0
    298    297    317    327   5     0.00000     0.00000    -0.94140  0.0
    307    297    317    318   5     0.00000     0.00000     1.25520  0.0
    307    297    317    326   5     0.00000     0.00000     1.25520  0.0
    307    297    317    327   5     0.00000     0.00000     1.25520  0.0
    297    298    300    301   5    13.65239    24.43456     0.00000  0.0
    299    298    300    301   5     0.00000    25.10400     0.00000  0.0
    298    300    301    302   5    -2.16731    -3.93296     0.98324  0.0
    298    300    301    308   5     0.00000     0.00000     0.67362  0.0
    298    300    301    309   5     0.00000     0.00000     0.67362  0.0
    300    301    302    303   5     5.25092    -2.58990     2.28446  0.0
    300    301    302    310   5     0.00000     0.00000     1.95811  0.0
    300    301    302    311   5     0.00000     0.00000     1.95811  0.0
    308    301    302    303   5     0.00000     0.00000     1.25520  0.0
    308    301    302    310   5     0.00000     0.00000     1.25520  0.0
    308    301    302    311   5     0.00000     0.00000     1.25520  0.0
    309    301    302    303   5     0.00000     0.00000     1.25520  0.0
    309    301    302    310   5     0.00000     0.00000     1.25520  0.0
    309    301    302    311   5     0.00000     0.00000     1.25520  0.0
    301    302    303    304   5     4.74884    -0.63178     1.67360  0.0
    301    302    303    312   5     0.00000     0.00000     1.25520  0.0
    301    302    303    313   5     0.00000     0.00000     1.25520  0.0
    310    302    303    304   5     0.00000     0.00000     1.25520  0.0
    310    302    303    312   5     0.00000     0.00000     1.25520  0.0
    310    302    303    313   5     0.00000     0.00000     1.25520  0.0
    311    302    303    304   5     0.00000     0.00000     1.25520  0.0
    311    302    303    312   5     0.00000     0.00000     1.25520  0.0
    311    302    303    313   5     0.00000     0.00000     1.25520  0.0
    302    303    304    314   5     0.00000     0.00000     1.25520  0.0
    302    303    304    315   5     0.00000     0.00000     1.25520  0.0
    302    303    304    316   5     0.00000     0.00000     1.25520  0.0
    312    303    304    314   5     0.00000     0.00000     1.25520  0.0
    312    303    304    315   5     0.00000     0.00000     1.25520  0.0
    312    303    304    316   5     0.00000     0.00000     1.25520  0.0
    313    303    304    314   5     0.00000     0.00000     1.25520  0.0
    313    303    304    315   5     0.00000     0.00000     1.25520  0.0
    313    303    304    316   5     0.00000     0.00000     1.25520  0.0
    297    317    318    319   5    -8.00818    -1.52298     2.46438  0.0
    297    317    318    328   5     0.00000     0.00000     1.25520  0.0
    297    317    318    338   5     4.74884    -0.63178     1.67360  0.0
    326    317    318    319   5     0.00000     0.00000    -0.94140  0.0
    326    317    318    328   5     0.00000     0.00000     1.25520  0.0
    326    317    318    338   5     0.00000     0.00000     1.25520  0.0
    327    317    318    319   5     0.00000     0.00000    -0.94140  0.0
    327    317    318    328   5     0.00000     0.00000     1.25520  0.0
    327    317    318    338   5     0.00000     0.00000     1.25520  0.0
    317    318    319    320   5     0.00000     2.52295     0.00000  0.0
    317    318    319    321   5     0.00000     0.00000     3.07524  0.0
    328    318    319    320   5     0.00000     0.00000     0.00000  0.0
    328    318    319    321   5     0.00000     0.00000     0.00000  0.0
    338    318    319    320   5     0.00000     2.52295     0.00000  0.0
    338    318    319    321   5     0.00000     0.00000     3.07524  0.0
    317    318    338    339   5     4.74884    -0.63178     1.67360  0.0
    317    318    338    347   5     0.00000     0.00000     1.25520  0.0
    317    318    338    348   5     0.00000     0.00000     1.25520  0.0
    319    318    338    339   5    -8.00818    -1.52298     2.46438  0.0
    319    318    338    347   5     0.00000     0.00000    -0.94140  0.0
    319    318    338    348   5     0.00000     0.00000    -0.94140  0.0
    328    318    338    339   5     0.00000     0.00000     1.25520  0.0
    328    318    338    347   5     0.00000     0.00000     1.25520  0.0
    328    318    338    348   5     0.00000     0.00000     1.25520  0.0
    318    319    321    322   5    13.65239    24.43456     0.00000  0.0
    320    319    321    322   5     0.00000    25.10400     0.00000  0.0
    319    321    322    323   5    -2.16731    -3.93296     0.98324  0.0
    319    321    322    329   5     0.00000     0.00000     0.67362  0.0
    319    321    322    330   5     0.00000     0.00000     0.67362  0.0
    321    322    323    324   5     5.25092    -2.58990     2.28446  0.0
    321    322    323    331   5     0.00000     0.00000     1.95811  0.0
    321    322    323    332   5     0.00000     0.00000     1.95811  0.0
    329    322    323    324   5     0.00000     0.00000     1.25520  0.0
    329    322    323    331   5     0.00000     0.00000     1.25520  0.0
    329    322    323    332   5     0.00000     0.00000     1.25520  0.0
    330    322    323    324   5     0.00000     0.00000     1.25520  0.0
    330    322    323    331   5     0.00000     0.00000     1.25520  0.0
    330    322    323    332   5     0.00000     0.00000     1.25520  0.0
    322    323    324    325   5     4.74884    -0.63178     1.67360  0.0
    322    323    324    333   5     0.00000     0.00000     1.25520  0.0
    322    323    324    334   5     0.00000     0.00000     1.25520  0.0
    331    323    324    325   5     0.00000     0.00000     1.25520  0.0
    331    323    324    333   5     0.00000     0.00000     1.25520  0.0
    331    323    324    334   5     0.00000     0.00000     1.25520  0.0
    332    323    324    325   5     0.00000     0.00000     1.25520  0.0
    332    323    324    333   5     0.00000     0.00000     1.25520  0.0
    332    323    324    334   5     0.00000     0.00000     1.25520  0.0
    323    324    325    335   5     0.00000     0.00000     1.25520  0.0
    323    324    325    336   5     0.00000     0.00000     1.25520  0.0
    323    324    325    337   5     0.00000     0.00000     1.25520  0.0
    333    324    325    335   5     0.00000     0.00000     1.25520  0.0
    333    324    325    336   5     0.00000     0.00000     1.25520  0.0
    333    324    325    337   5     0.00000     0.00000     1.25520  0.0
    334    324    325    335   5     0.00000     0.00000     1.25520  0.0
    334    324    325    336   5     0.00000     0.00000     1.25520  0.0
    334    324    325    337   5     0.00000     0.00000     1.25520  0.0
    318    338    339    340   5    -8.00818    -1.52298     2.46438  0.0
    318    338    339    349   5     0.00000     0.00000     1.25520  0.0
    318    338    339    359   5     4.74884    -0.63178     1.67360  0.0
    347    338    339    340   5     0.00000     0.00000    -0.94140  0.0
    347    338    339    349   5     0.00000     0.00000     1.25520  0.0
    347    338    339    359   5     0.00000     0.00000     1.25520  0.0
    348    338    339    340   5     0.00000     0.00000    -0.94140  0.0
    348    338    339    349   5     0.00000     0.00000     1.25520  0.0
    348    338    339    359   5     0.00000     0.00000     1.25520  0.0
    338    339    340    341   5     0.00000     2.52295     0.00000  0.0
    338    339    340    342   5     0.00000     0.00000     3.07524  0.0
    349    339    340    341   5     0.00000     0.00000     0.00000  0.0
    349    339    340    342   5     0.00000     0.00000     0.00000  0.0
    359    339    340    341   5     0.00000     2.52295     0.00000  0.0
    359    339    340    342   5     0.00000     0.00000     3.07524  0.0
    338    339    359    360   5     4.74884    -0.63178     1.67360  0.0
    338    339    359    368   5     0.00000     0.00000     1.25520  0.0
    338    339    359    369   5     0.00000     0.00000     1.25520  0.0
    340    339    359    360   5    -8.00818    -1.52298     2.46438  0.0
    340    339    359    368   5     0.00000     0.00000    -0.94140  0.0
    340    339    359    369   5     0.00000     0.00000    -0.94140  0.0
    349    339    359    360   5     0.00000     0.00000     1.25520  0.0
    349    339    359    368   5     0.00000     0.00000     1.25520  0.0
    349    339    359    369   5     0.00000     0.00000     1.25520  0.0
    339    340    342    343   5    13.65239    24.43456     0.00000  0.0
    341    340    342    343   5     0.00000    25.10400     0.00000  0.0
    340    342    343    344   5    -2.16731    -3.93296     0.98324  0.0
    340    342    343    350   5     0.00000     0.00000     0.67362  0.0
    340    342    343    351   5     0.00000     0.00000     0.67362  0.0
    342    343    344    345   5     5.25092    -2.58990     2.28446  0.0
    342    343    344    352   5     0.00000     0.00000     1.95811  0.0
    342    343    344    353   5     0.00000     0.00000     1.95811  0.0
    350    343    344    345   5     0.00000     0.00000     1.25520  0.0
    350    343    344    352   5     0.00000     0.00000     1.25520  0.0
    350    343    344    353   5     0.00000     0.00000     1.25520  0.0
    351    343    344    345   5     0.00000     0.00000     1.25520  0.0
    351    343    344    352   5     0.00000     0.00000     1.25520  0.0
    351    343    344    353   5     0.00000     0.00000     1.25520  0.0
    343    344    345    346   5     4.74884    -0.63178     1.67360  0.0
    343    344    345    354   5     0.00000     0.00000     1.25520  0.0
    343    344    345    355   5     0.00000     0.00000     1.25520  0.0
    352    344    345    346   5     0.00000     0.00000     1.25520  0.0
    352    344    345    354   5     0.00000     0.00000     1.25520  0.0
    352    344    345    355   5     0.00000     0.00000     1.25520  0.0
    353    344    345    346   5     0.00000     0.00000     1.25520  0.0
    353    344    345    354   5     0.00000     0.00000     1.25520  0.0
    353    344    345    355   5     0.00000     0.00000     1.25520  0.0
    344    345    346    356   5     0.00000     0.00000     1.25520  0.0
    344    345    346    357   5     0.00000     0.00000     1.25520  0.0
    344    345    346    358   5     0.00000     0.00000     1.25520  0.0
    354    345    346    356   5     0.00000     0.00000     1.25520  0.0
    354    345    346    357   5     0.00000     0.00000     1.25520  0.0
    354    345    346    358   5     0.00000     0.00000     1.25520  0.0
    355    345    346    356   5     0.00000     0.00000     1.25520  0.0
    355    345    346    357   5     0.00000     0.00000     1.25520  0.0
    355    345    346    358   5     0.00000     0.00000     1.25520  0.0
    339    359    360    361   5    -8.00818    -1.52298     2.46438  0.0
    339    359    360    370   5     0.00000     0.00000     1.25520  0.0
    339    359    360    380   5     4.74884    -0.63178     1.67360  0.0
    368    359    360    361   5     0.00000     0.00000    -0.94140  0.0
    368    359    360    370   5     0.00000     0.00000     1.25520  0.0
    368    359    360    380   5     0.00000     0.00000     1.25520  0.0
    369    359    360    361   5     0.00000     0.00000    -0.94140  0.0
    369    359    360    370   5     0.00000     0.00000     1.25520  0.0
    369    359    360    380   5     0.00000     0.00000     1.25520  0.0
    359    360    361    362   5     0.00000     2.52295     0.00000  0.0
    359    360    361    363   5     0.00000     0.00000     3.07524  0.0
    370    360    361    362   5     0.00000     0.00000     0.00000  0.0
    370    360    361    363   5     0.00000     0.00000     0.00000  0.0
    380    360    361    362   5     0.00000     2.52295     0.00000  0.0
    380    360    361    363   5     0.00000     0.00000     3.07524  0.0
    359    360    380    381   5     4.74884    -0.63178     1.67360  0.0
    359    360    380    389   5     0.00000     0.00000     1.25520  0.0
    359    360    380    390   5     0.00000     0.00000     1.25520  0.0
    361    360    380    381   5    -8.00818    -1.52298     2.46438  0.0
    361    360    380    389   5     0.00000     0.00000    -0.94140  0.0
    361    360    380    390   5     0.00000     0.00000    -0.94140  0.0
    370    360    380    381   5     0.00000     0.00000     1.25520  0.0
    370    360    380    389   5     0.00000     0.00000     1.25520  0.0
    370    360    380    390   5     0.00000     0.00000     1.25520  0.0
    360    361    363    364   5    13.65239    24.43456     0.00000  0.0
    362    361    363    364   5     0.00000    25.10400     0.00000  0.0
    361    363    364    365   5    -2.16731    -3.93296     0.98324  0.0
    361    363    364    371   5     0.00000     0.00000     0.67362  0.0
    361    363    364    372   5     0.00000     0.00000     0.67362  0.0
    363    364    365    366   5     5.25092    -2.58990     2.28446  0.0
    363    364    365    373   5     0.00000     0.00000     1.95811  0.0
    363    364    365    374   5     0.00000     0.00000     1.95811  0.0
    371    364    365    366   5     0.00000     0.00000     1.25520  0.0
    371    364    365    373   5     0.00000     0.00000     1.25520  0.0
    371    364    365    374   5     0.00000     0.00000     1.25520  0.0
    372    364    365    366   5     0.00000     0.00000     1.25520  0.0
    372    364    365    373   5     0.00000     0.00000     1.25520  0.0
    372    364    365    374   5     0.00000     0.00000     1.25520  0.0
    364    365    366    367   5     4.74884    -0.63178     1.67360  0.0
    364    365    366    375   5     0.00000     0.00000     1.25520  0.0
    364    365    366    376   5     0.00000     0.00000     1.25520  0.0
    373    365    366    367   5     0.00000     0.00000     1.25520  0.0
    373    365    366    375   5     0.00000     0.00000     1.25520  0.0
    373    365    366    376   5     0.00000     0.00000     1.25520  0.0
    374    365    366    367   5     0.00000     0.00000     1.25520  0.0
    374    365    366    375   5     0.00000     0.00000     1.25520  0.0
    374    365    366    376   5     0.00000     0.00000     1.25520  0.0
    365    366    367    377   5     0.00000     0.00000     1.25520  0.0
    365    366    367    378   5     0.00000     0.00000     1.25520  0.0
    365    366    367    379   5     0.00000     0.00000     1.25520  0.0
    375    366    367    377   5     0.00000     0.00000     1.25520  0.0
    375    366    367    378   5     0.00000     0.00000     1.25520  0.0
    375    366    367    379   5     0.00000     0.00000     1.25520  0.0
    376    366    367    377   5     0.00000     0.00000     1.25520  0.0
    376    366    367    378   5     0.00000     0.00000     1.25520  0.0
    376    366    367    379   5     0.00000     0.00000     1.25520  0.0
    360    380    381    382   5    -8.00818    -1.52298     2.46438  0.0
    360    380    381    391   5     0.00000     0.00000     1.25520  0.0
    360    380    381    401   5     4.74884    -0.63178     1.67360  0.0
    389    380    381    382   5     0.00000     0.00000    -0.94140  0.0
    389    380    381    391   5     0.00000     0.00000     1.25520  0.0
    389    380    381    401   5     0.00000     0.00000     1.25520  0.0
    390    380    381    382   5     0.00000     0.00000    -0.94140  0.0
    390    380    381    391   5     0.00000     0.00000     1.25520  0.0
    390    380    381    401   5     0.00000     0.00000     1.25520  0.0
    380    381    382    383   5     0.00000     2.52295     0.00000  0.0
    380    381    382    384   5     0.00000     0.00000     3.07524  0.0
    391    381    382    383   5     0.00000     0.00000     0.00000  0.0
    391    381    382    384   5     0.00000     0.00000     0.00000  0.0
    401    381    382    383   5     0.00000     2.52295     0.00000  0.0
    401    381    382    384   5     0.00000     0.00000     3.07524  0.0
    380    381    401    402   5     4.74884    -0.63178     1.67360  0.0
    380    381    401    410   5     0.00000     0.00000     1.25520  0.0
    380    381    401    411   5     0.00000     0.00000     1.25520  0.0
    382    381    401    402   5    -8.00818    -1.52298     2.46438  0.0
    382    381    401    410   5     0.00000     0.00000    -0.94140  0.0
    382    381    401    411   5     0.00000     0.00000    -0.94140  0.0
    391    381    401    402   5     0.00000     0.00000     1.25520  0.0
    391    381    401    410   5     0.00000     0.00000     1.25520  0.0
    391    381    401    411   5     0.00000     0.00000     1.25520  0.0
    381    382    384    385   5    13.65239    24.43456     0.00000  0.0
    383    382    384    385   5     0.00000    25.10400     0.00000  0.0
    382    384    385    386   5    -2.16731    -3.93296     0.98324  0.0
    382    384    385    392   5     0.00000     0.00000     0.67362  0.0
    382    384    385    393   5     0.00000     0.00000     0.67362  0.0
    384    385    386    387   5     5.25092    -2.58990     2.28446  0.0
    384    385    386    394   5     0.00000     0.00000     1.95811  0.0
    384    385    386    395   5     0.00000     0.00000     1.95811  0.0
    392    385    386    387   5     0.00000     0.00000     1.25520  0.0
    392    385    386    394   5     0.00000     0.00000     1.25520  0.0
    392    385    386    395   5     0.00000     0.00000     1.25520  0.0
    393    385    386    387   5     0.00000     0.00000     1.25520  0.0
    393    385    386    394   5     0.00000     0.00000     1.25520  0.0
    393    385    386    395   5     0.00000     0.00000     1.25520  0.0
    385    386    387    388   5     4.74884    -0.63178     1.67360  0.0
    385    386    387    396   5     0.00000     0.00000     1.25520  0.0
    385    386    387    397   5     0.00000     0.00000     1.25520  0.0
    394    386    387    388   5     0.00000     0.00000     1.25520  0.0
    394    386    387    396   5     0.00000     0.00000     1.25520  0.0
    394    386    387    397   5     0.00000     0.00000     1.25520  0.0
    395    386    387    388   5     0.00000     0.00000     1.25520  0.0
    395    386    387    396   5     0.00000     0.00000     1.25520  0.0
    395    386    387    397   5     0.00000     0.00000     1.25520  0.0
    386    387    388    398   5     0.00000     0.00000     1.25520  0.0
    386    387    388    399   5     0.00000     0.00000     1.25520  0.0
    386    387    388    400   5     0.00000     0.00000     1.25520  0.0
    396    387    388    398   5     0.00000     0.00000     1.25520  0.0
    396    387    388    399   5     0.00000     0.00000     1.25520  0.0
    396    387    388    400   5     0.00000     0.00000     1.25520  0.0
    397    387    388    398   5     0.00000     0.00000     1.25520  0.0
    397    387    388    399   5     0.00000     0.00000     1.25520  0.0
    397    387    388    400   5     0.00000     0.00000     1.25520  0.0
    381    401    402    403   5    -8.00818    -1.52298     2.46438  0.0
    381    401    402    412   5     0.00000     0.00000     1.25520  0.0
    381    401    402    422   5     0.00000     0.00000     1.25520  0.0
    410    401    402    403   5     0.00000     0.00000    -0.94140  0.0
    410    401    402    412   5     0.00000     0.00000     1.25520  0.0
    410    401    402    422   5     0.00000     0.00000     1.25520  0.0
    411    401    402    403   5     0.00000     0.00000    -0.94140  0.0
    411    401    402    412   5     0.00000     0.00000     1.25520  0.0
    411    401    402    422   5     0.00000     0.00000     1.25520  0.0
    401    402    403    404   5     0.00000     2.52295     0.00000  0.0
    401    402    403    405   5     0.00000     0.00000     3.07524  0.0
    412    402    403    404   5     0.00000     0.00000     0.00000  0.0
    412    402    403    405   5     0.00000     0.00000     0.00000  0.0
    422    402    403    404   5     0.00000     0.00000     0.00000  0.0
    422    402    403    405   5     0.00000     0.00000     0.00000  0.0
    402    403    405    406   5    13.65239    24.43456     0.00000  0.0
    404    403    405    406   5     0.00000    25.10400     0.00000  0.0
    403    405    406    407   5    -2.16731    -3.93296     0.98324  0.0
    403    405    406    413   5     0.00000     0.00000     0.67362  0.0
    403    405    406    414   5     0.00000     0.00000     0.67362  0.0
    405    406    407    408   5     5.25092    -2.58990     2.28446  0.0
    405    406    407    415   5     0.00000     0.00000     1.95811  0.0
    405    406    407    416   5     0.00000     0.00000     1.95811  0.0
    413    406    407    408   5     0.00000     0.00000     1.25520  0.0
    413    406    407    415   5     0.00000     0.00000     1.25520  0.0
    413    406    407    416   5     0.00000     0.00000     1.25520  0.0
    414    406    407    408   5     0.00000     0.00000     1.25520  0.0
    414    406    407    415   5     0.00000     0.00000     1.25520  0.0
    414    406    407    416   5     0.00000     0.00000     1.25520  0.0
    406    407    408    409   5     4.74884    -0.63178     1.67360  0.0
    406    407    408    417   5     0.00000     0.00000     1.25520  0.0
    406    407    408    418   5     0.00000     0.00000     1.25520  0.0
    415    407    408    409   5     0.00000     0.00000     1.25520  0.0
    415    407    408    417   5     0.00000     0.00000     1.25520  0.0
    415    407    408    418   5     0.00000     0.00000     1.25520  0.0
    416    407    408    409   5     0.00000     0.00000     1.25520  0.0
    416    407    408    417   5     0.00000     0.00000     1.25520  0.0
    416    407    408    418   5     0.00000     0.00000     1.25520  0.0
    407    408    409    419   5     0.00000     0.00000     1.25520  0.0
    407    408    409    420   5     0.00000     0.00000     1.25520  0.0
    407    408    409    421   5     0.00000     0.00000     1.25520  0.0
    417    408    409    419   5     0.00000     0.00000     1.25520  0.0
    417    408    409    420   5     0.00000     0.00000     1.25520  0.0
    417    408    409    421   5     0.00000     0.00000     1.25520  0.0
    418    408    409    419   5     0.00000     0.00000     1.25520  0.0
    418    408    409    420   5     0.00000     0.00000     1.25520  0.0
    418    408    409    421   5     0.00000     0.00000     1.25520  0.0

[ dihedrals ]
; Improper dihedrals
; h   i   j   k   funct
      2      4      3      5   5     0.00000    87.86400     0.00000  0.0
     24     26     25     27   5     0.00000    87.86400     0.00000  0.0
     45     47     46     48   5     0.00000    87.86400     0.00000  0.0
     66     68     67     69   5     0.00000    87.86400     0.00000  0.0
     87     89     88     90   5     0.00000    87.86400     0.00000  0.0
    108    110    109    111   5     0.00000    87.86400     0.00000  0.0
    129    131    130    132   5     0.00000    87.86400     0.00000  0.0
    150    152    151    153   5     0.00000    87.86400     0.00000  0.0
    171    173    172    174   5     0.00000    87.86400     0.00000  0.0
    192    194    193    195   5     0.00000    87.86400     0.00000  0.0
    213    215    214    216   5     0.00000    87.86400     0.00000  0.0
    234    236    235    237   5     0.00000    87.86400     0.00000  0.0
    255    257    256    258   5     0.00000    87.86400     0.00000  0.0
    276    278    277    279   5     0.00000    87.86400     0.00000  0.0
    297    299    298    300   5     0.00000    87.86400     0.00000  0.0
    318    320    319    321   5     0.00000    87.86400     0.00000  0.0
    339    341    340    342   5     0.00000    87.86400     0.00000  0.0
    360    362    361    363   5     0.00000    87.86400     0.00000  0.0
    381    383    382    384   5     0.00000    87.86400     0.00000  0.0
    402    404    403    405   5     0.00000    87.86400     0.00000  0.0
