;
; Gromacs include topology (itp) file.
; For Molecular Group XYZ
; Force field scheme: opls2005
; Produced from DL_FIELD v4.11
;


[ moleculetype ]
; name    nrexcl
XYZ    3

[ atoms ]
; nr   type   resnr   residu    atom    cgnr    charge    mass
    1       OAL    1  MOL      O1     1  -0.6830000   15.9994
    2        CT    1  MOL      C2     2   0.1450000   12.0115
    3        CT    1  MOL      C3     3  -0.1200000   12.0115
    4        CT    1  MOL      C4     4  -0.1200000   12.0115
    5        CT    1  MOL      C5     5   0.1900000   12.0115
    6       OES    1  MOL      O6     6  -0.3300000   15.9994
    7       CO4    1  MOL      C7     7   0.5100000   12.0115
    8         O    1  MOL      O8     8  -0.4300000   15.9994
    9        CT    1  MOL      C9     9  -0.1200000   12.0115
   10        CT    1  MOL     C10    10  -0.1200000   12.0115
   11       CO4    1  MOL     C11    11   0.5100000   12.0115
   12         O    1  MOL     O12    12  -0.4300000   15.9994
   13        HC    1  MOL     H13    13   0.0600000    1.0080
   14        HC    1  MOL     H14    14   0.0600000    1.0080
   15        HC    1  MOL     H15    15   0.0600000    1.0080
   16        HC    1  MOL     H16    16   0.0600000    1.0080
   17        HC    1  MOL     H17    17   0.0600000    1.0080
   18        HC    1  MOL     H18    18   0.0600000    1.0080
   19       HAE    1  MOL     H19    19   0.0300000    1.0080
   20       HAE    1  MOL     H20    20   0.0300000    1.0080
   21       HAE    1  MOL     H21    21   0.0600000    1.0080
   22       HAE    1  MOL     H22    22   0.0600000    1.0080
   23       HAE    1  MOL     H23    23   0.0600000    1.0080
   24       HAE    1  MOL     H24    24   0.0600000    1.0080
   25        HO    1  MOL     H25    25   0.4180000    1.0080
   26       OES    1  MOL     O26    26  -0.3300000   15.9994
   27        CT    1  MOL     C27    27   0.1900000   12.0115
   28        CT    1  MOL     C28    28  -0.1200000   12.0115
   29        CT    1  MOL     C29    29  -0.1200000   12.0115
   30        CT    1  MOL     C30    30   0.1900000   12.0115
   31       OES    1  MOL     O31    31  -0.3300000   15.9994
   32       CO4    1  MOL     C32    32   0.5100000   12.0115
   33         O    1  MOL     O33    33  -0.4300000   15.9994
   34        CT    1  MOL     C34    34  -0.1200000   12.0115
   35        CT    1  MOL     C35    35  -0.1200000   12.0115
   36       CO4    1  MOL     C36    36   0.5100000   12.0115
   37         O    1  MOL     O37    37  -0.4300000   15.9994
   38       HAE    1  MOL     H38    38   0.0300000    1.0080
   39       HAE    1  MOL     H39    39   0.0300000    1.0080
   40        HC    1  MOL     H40    40   0.0600000    1.0080
   41        HC    1  MOL     H41    41   0.0600000    1.0080
   42        HC    1  MOL     H42    42   0.0600000    1.0080
   43        HC    1  MOL     H43    43   0.0600000    1.0080
   44       HAE    1  MOL     H44    44   0.0300000    1.0080
   45       HAE    1  MOL     H45    45   0.0300000    1.0080
   46       HAE    1  MOL     H46    46   0.0600000    1.0080
   47       HAE    1  MOL     H47    47   0.0600000    1.0080
   48       HAE    1  MOL     H48    48   0.0600000    1.0080
   49       HAE    1  MOL     H49    49   0.0600000    1.0080
   50       OES    1  MOL     O50    50  -0.3300000   15.9994
   51        CT    1  MOL     C51    51   0.1900000   12.0115
   52        CT    1  MOL     C52    52  -0.1200000   12.0115
   53        CT    1  MOL     C53    53  -0.1200000   12.0115
   54        CT    1  MOL     C54    54   0.1900000   12.0115
   55       OES    1  MOL     O55    55  -0.3300000   15.9994
   56       CO4    1  MOL     C56    56   0.5100000   12.0115
   57         O    1  MOL     O57    57  -0.4300000   15.9994
   58        CT    1  MOL     C58    58  -0.1200000   12.0115
   59        CT    1  MOL     C59    59  -0.1200000   12.0115
   60       CO4    1  MOL     C60    60   0.5100000   12.0115
   61         O    1  MOL     O61    61  -0.4300000   15.9994
   62       HAE    1  MOL     H62    62   0.0300000    1.0080
   63       HAE    1  MOL     H63    63   0.0300000    1.0080
   64        HC    1  MOL     H64    64   0.0600000    1.0080
   65        HC    1  MOL     H65    65   0.0600000    1.0080
   66        HC    1  MOL     H66    66   0.0600000    1.0080
   67        HC    1  MOL     H67    67   0.0600000    1.0080
   68       HAE    1  MOL     H68    68   0.0300000    1.0080
   69       HAE    1  MOL     H69    69   0.0300000    1.0080
   70       HAE    1  MOL     H70    70   0.0600000    1.0080
   71       HAE    1  MOL     H71    71   0.0600000    1.0080
   72       HAE    1  MOL     H72    72   0.0600000    1.0080
   73       HAE    1  MOL     H73    73   0.0600000    1.0080
   74       OES    1  MOL     O74    74  -0.3300000   15.9994
   75        CT    1  MOL     C75    75   0.1900000   12.0115
   76        CT    1  MOL     C76    76  -0.1200000   12.0115
   77        CT    1  MOL     C77    77  -0.1200000   12.0115
   78        CT    1  MOL     C78    78   0.1900000   12.0115
   79       OES    1  MOL     O79    79  -0.3300000   15.9994
   80       CO4    1  MOL     C80    80   0.5100000   12.0115
   81         O    1  MOL     O81    81  -0.4300000   15.9994
   82        CT    1  MOL     C82    82  -0.1200000   12.0115
   83        CT    1  MOL     C83    83  -0.1200000   12.0115
   84       CO4    1  MOL     C84    84   0.5100000   12.0115
   85         O    1  MOL     O85    85  -0.4300000   15.9994
   86       HAE    1  MOL     H86    86   0.0300000    1.0080
   87       HAE    1  MOL     H87    87   0.0300000    1.0080
   88        HC    1  MOL     H88    88   0.0600000    1.0080
   89        HC    1  MOL     H89    89   0.0600000    1.0080
   90        HC    1  MOL     H90    90   0.0600000    1.0080
   91        HC    1  MOL     H91    91   0.0600000    1.0080
   92       HAE    1  MOL     H92    92   0.0300000    1.0080
   93       HAE    1  MOL     H93    93   0.0300000    1.0080
   94       HAE    1  MOL     H94    94   0.0600000    1.0080
   95       HAE    1  MOL     H95    95   0.0600000    1.0080
   96       HAE    1  MOL     H96    96   0.0600000    1.0080
   97       HAE    1  MOL     H97    97   0.0600000    1.0080
   98       OES    1  MOL     O98    98  -0.3300000   15.9994
   99        CT    1  MOL     C99    99   0.1900000   12.0115
  100        CT    1  MOL    C100   100  -0.1200000   12.0115
  101        CT    1  MOL    C101   101  -0.1200000   12.0115
  102        CT    1  MOL    C102   102   0.1900000   12.0115
  103       OES    1  MOL    O103   103  -0.3300000   15.9994
  104       CO4    1  MOL    C104   104   0.5100000   12.0115
  105         O    1  MOL    O105   105  -0.4300000   15.9994
  106        CT    1  MOL    C106   106  -0.1200000   12.0115
  107        CT    1  MOL    C107   107  -0.1200000   12.0115
  108       CO4    1  MOL    C108   108   0.5100000   12.0115
  109         O    1  MOL    O109   109  -0.4300000   15.9994
  110       HAE    1  MOL    H110   110   0.0300000    1.0080
  111       HAE    1  MOL    H111   111   0.0300000    1.0080
  112        HC    1  MOL    H112   112   0.0600000    1.0080
  113        HC    1  MOL    H113   113   0.0600000    1.0080
  114        HC    1  MOL    H114   114   0.0600000    1.0080
  115        HC    1  MOL    H115   115   0.0600000    1.0080
  116       HAE    1  MOL    H116   116   0.0300000    1.0080
  117       HAE    1  MOL    H117   117   0.0300000    1.0080
  118       HAE    1  MOL    H118   118   0.0600000    1.0080
  119       HAE    1  MOL    H119   119   0.0600000    1.0080
  120       HAE    1  MOL    H120   120   0.0600000    1.0080
  121       HAE    1  MOL    H121   121   0.0600000    1.0080
  122       OES    1  MOL    O122   122  -0.3300000   15.9994
  123        CT    1  MOL    C123   123   0.1900000   12.0115
  124        CT    1  MOL    C124   124  -0.1200000   12.0115
  125        CT    1  MOL    C125   125  -0.1200000   12.0115
  126        CT    1  MOL    C126   126   0.1900000   12.0115
  127       OES    1  MOL    O127   127  -0.3300000   15.9994
  128       CO4    1  MOL    C128   128   0.5100000   12.0115
  129         O    1  MOL    O129   129  -0.4300000   15.9994
  130        CT    1  MOL    C130   130  -0.1200000   12.0115
  131        CT    1  MOL    C131   131  -0.1200000   12.0115
  132       CO4    1  MOL    C132   132   0.5100000   12.0115
  133         O    1  MOL    O133   133  -0.4300000   15.9994
  134       HAE    1  MOL    H134   134   0.0300000    1.0080
  135       HAE    1  MOL    H135   135   0.0300000    1.0080
  136        HC    1  MOL    H136   136   0.0600000    1.0080
  137        HC    1  MOL    H137   137   0.0600000    1.0080
  138        HC    1  MOL    H138   138   0.0600000    1.0080
  139        HC    1  MOL    H139   139   0.0600000    1.0080
  140       HAE    1  MOL    H140   140   0.0300000    1.0080
  141       HAE    1  MOL    H141   141   0.0300000    1.0080
  142       HAE    1  MOL    H142   142   0.0600000    1.0080
  143       HAE    1  MOL    H143   143   0.0600000    1.0080
  144       HAE    1  MOL    H144   144   0.0600000    1.0080
  145       HAE    1  MOL    H145   145   0.0600000    1.0080
  146       OES    1  MOL    O146   146  -0.3300000   15.9994
  147        CT    1  MOL    C147   147   0.1900000   12.0115
  148        CT    1  MOL    C148   148  -0.1200000   12.0115
  149        CT    1  MOL    C149   149  -0.1200000   12.0115
  150        CT    1  MOL    C150   150   0.1900000   12.0115
  151       OES    1  MOL    O151   151  -0.3300000   15.9994
  152       CO4    1  MOL    C152   152   0.5100000   12.0115
  153         O    1  MOL    O153   153  -0.4300000   15.9994
  154        CT    1  MOL    C154   154  -0.1200000   12.0115
  155        CT    1  MOL    C155   155  -0.1200000   12.0115
  156       CO4    1  MOL    C156   156   0.5100000   12.0115
  157         O    1  MOL    O157   157  -0.4300000   15.9994
  158       HAE    1  MOL    H158   158   0.0300000    1.0080
  159       HAE    1  MOL    H159   159   0.0300000    1.0080
  160        HC    1  MOL    H160   160   0.0600000    1.0080
  161        HC    1  MOL    H161   161   0.0600000    1.0080
  162        HC    1  MOL    H162   162   0.0600000    1.0080
  163        HC    1  MOL    H163   163   0.0600000    1.0080
  164       HAE    1  MOL    H164   164   0.0300000    1.0080
  165       HAE    1  MOL    H165   165   0.0300000    1.0080
  166       HAE    1  MOL    H166   166   0.0600000    1.0080
  167       HAE    1  MOL    H167   167   0.0600000    1.0080
  168       HAE    1  MOL    H168   168   0.0600000    1.0080
  169       HAE    1  MOL    H169   169   0.0600000    1.0080
  170       OES    1  MOL    O170   170  -0.3300000   15.9994
  171        CT    1  MOL    C171   171   0.1900000   12.0115
  172        CT    1  MOL    C172   172  -0.1200000   12.0115
  173        CT    1  MOL    C173   173  -0.1200000   12.0115
  174        CT    1  MOL    C174   174   0.1900000   12.0115
  175       OES    1  MOL    O175   175  -0.3300000   15.9994
  176       CO4    1  MOL    C176   176   0.5100000   12.0115
  177         O    1  MOL    O177   177  -0.4300000   15.9994
  178        CT    1  MOL    C178   178  -0.1200000   12.0115
  179        CT    1  MOL    C179   179  -0.1200000   12.0115
  180       CO4    1  MOL    C180   180   0.5100000   12.0115
  181         O    1  MOL    O181   181  -0.4300000   15.9994
  182       HAE    1  MOL    H182   182   0.0300000    1.0080
  183       HAE    1  MOL    H183   183   0.0300000    1.0080
  184        HC    1  MOL    H184   184   0.0600000    1.0080
  185        HC    1  MOL    H185   185   0.0600000    1.0080
  186        HC    1  MOL    H186   186   0.0600000    1.0080
  187        HC    1  MOL    H187   187   0.0600000    1.0080
  188       HAE    1  MOL    H188   188   0.0300000    1.0080
  189       HAE    1  MOL    H189   189   0.0300000    1.0080
  190       HAE    1  MOL    H190   190   0.0600000    1.0080
  191       HAE    1  MOL    H191   191   0.0600000    1.0080
  192       HAE    1  MOL    H192   192   0.0600000    1.0080
  193       HAE    1  MOL    H193   193   0.0600000    1.0080
  194       OES    1  MOL    O194   194  -0.3300000   15.9994
  195        CT    1  MOL    C195   195   0.1900000   12.0115
  196        CT    1  MOL    C196   196  -0.1200000   12.0115
  197        CT    1  MOL    C197   197  -0.1200000   12.0115
  198        CT    1  MOL    C198   198   0.1900000   12.0115
  199       OES    1  MOL    O199   199  -0.3300000   15.9994
  200       CO4    1  MOL    C200   200   0.5100000   12.0115
  201         O    1  MOL    O201   201  -0.4300000   15.9994
  202        CT    1  MOL    C202   202  -0.1200000   12.0115
  203        CT    1  MOL    C203   203  -0.1200000   12.0115
  204       CO4    1  MOL    C204   204   0.5100000   12.0115
  205         O    1  MOL    O205   205  -0.4300000   15.9994
  206       HAE    1  MOL    H206   206   0.0300000    1.0080
  207       HAE    1  MOL    H207   207   0.0300000    1.0080
  208        HC    1  MOL    H208   208   0.0600000    1.0080
  209        HC    1  MOL    H209   209   0.0600000    1.0080
  210        HC    1  MOL    H210   210   0.0600000    1.0080
  211        HC    1  MOL    H211   211   0.0600000    1.0080
  212       HAE    1  MOL    H212   212   0.0300000    1.0080
  213       HAE    1  MOL    H213   213   0.0300000    1.0080
  214       HAE    1  MOL    H214   214   0.0600000    1.0080
  215       HAE    1  MOL    H215   215   0.0600000    1.0080
  216       HAE    1  MOL    H216   216   0.0600000    1.0080
  217       HAE    1  MOL    H217   217   0.0600000    1.0080
  218       OES    1  MOL    O218   218  -0.3300000   15.9994
  219        CT    1  MOL    C219   219   0.1900000   12.0115
  220        CT    1  MOL    C220   220  -0.1200000   12.0115
  221        CT    1  MOL    C221   221  -0.1200000   12.0115
  222        CT    1  MOL    C222   222   0.1900000   12.0115
  223       OES    1  MOL    O223   223  -0.3300000   15.9994
  224       CO4    1  MOL    C224   224   0.5100000   12.0115
  225         O    1  MOL    O225   225  -0.4300000   15.9994
  226        CT    1  MOL    C226   226  -0.1200000   12.0115
  227        CT    1  MOL    C227   227  -0.1200000   12.0115
  228       CO4    1  MOL    C228   228   0.5100000   12.0115
  229         O    1  MOL    O229   229  -0.4300000   15.9994
  230       HAE    1  MOL    H230   230   0.0300000    1.0080
  231       HAE    1  MOL    H231   231   0.0300000    1.0080
  232        HC    1  MOL    H232   232   0.0600000    1.0080
  233        HC    1  MOL    H233   233   0.0600000    1.0080
  234        HC    1  MOL    H234   234   0.0600000    1.0080
  235        HC    1  MOL    H235   235   0.0600000    1.0080
  236       HAE    1  MOL    H236   236   0.0300000    1.0080
  237       HAE    1  MOL    H237   237   0.0300000    1.0080
  238       HAE    1  MOL    H238   238   0.0600000    1.0080
  239       HAE    1  MOL    H239   239   0.0600000    1.0080
  240       HAE    1  MOL    H240   240   0.0600000    1.0080
  241       HAE    1  MOL    H241   241   0.0600000    1.0080
  242       OES    1  MOL    O242   242  -0.3300000   15.9994
  243        CT    1  MOL    C243   243   0.1900000   12.0115
  244        CT    1  MOL    C244   244  -0.1200000   12.0115
  245        CT    1  MOL    C245   245  -0.1200000   12.0115
  246        CT    1  MOL    C246   246   0.1900000   12.0115
  247       OES    1  MOL    O247   247  -0.3300000   15.9994
  248       CO4    1  MOL    C248   248   0.5100000   12.0115
  249         O    1  MOL    O249   249  -0.4300000   15.9994
  250        CT    1  MOL    C250   250  -0.1200000   12.0115
  251        CT    1  MOL    C251   251  -0.1200000   12.0115
  252       CO4    1  MOL    C252   252   0.5100000   12.0115
  253         O    1  MOL    O253   253  -0.4300000   15.9994
  254       HAE    1  MOL    H254   254   0.0300000    1.0080
  255       HAE    1  MOL    H255   255   0.0300000    1.0080
  256        HC    1  MOL    H256   256   0.0600000    1.0080
  257        HC    1  MOL    H257   257   0.0600000    1.0080
  258        HC    1  MOL    H258   258   0.0600000    1.0080
  259        HC    1  MOL    H259   259   0.0600000    1.0080
  260       HAE    1  MOL    H260   260   0.0300000    1.0080
  261       HAE    1  MOL    H261   261   0.0300000    1.0080
  262       HAE    1  MOL    H262   262   0.0600000    1.0080
  263       HAE    1  MOL    H263   263   0.0600000    1.0080
  264       HAE    1  MOL    H264   264   0.0600000    1.0080
  265       HAE    1  MOL    H265   265   0.0600000    1.0080
  266       OES    1  MOL    O266   266  -0.3300000   15.9994
  267        CT    1  MOL    C267   267   0.1900000   12.0115
  268        CT    1  MOL    C268   268  -0.1200000   12.0115
  269        CT    1  MOL    C269   269  -0.1200000   12.0115
  270        CT    1  MOL    C270   270   0.1900000   12.0115
  271       OES    1  MOL    O271   271  -0.3300000   15.9994
  272       CO4    1  MOL    C272   272   0.5100000   12.0115
  273         O    1  MOL    O273   273  -0.4300000   15.9994
  274        CT    1  MOL    C274   274  -0.1200000   12.0115
  275        CT    1  MOL    C275   275  -0.1200000   12.0115
  276       CO4    1  MOL    C276   276   0.5100000   12.0115
  277         O    1  MOL    O277   277  -0.4300000   15.9994
  278       HAE    1  MOL    H278   278   0.0300000    1.0080
  279       HAE    1  MOL    H279   279   0.0300000    1.0080
  280        HC    1  MOL    H280   280   0.0600000    1.0080
  281        HC    1  MOL    H281   281   0.0600000    1.0080
  282        HC    1  MOL    H282   282   0.0600000    1.0080
  283        HC    1  MOL    H283   283   0.0600000    1.0080
  284       HAE    1  MOL    H284   284   0.0300000    1.0080
  285       HAE    1  MOL    H285   285   0.0300000    1.0080
  286       HAE    1  MOL    H286   286   0.0600000    1.0080
  287       HAE    1  MOL    H287   287   0.0600000    1.0080
  288       HAE    1  MOL    H288   288   0.0600000    1.0080
  289       HAE    1  MOL    H289   289   0.0600000    1.0080
  290       OES    1  MOL    O290   290  -0.3300000   15.9994
  291        CT    1  MOL    C291   291   0.1900000   12.0115
  292        CT    1  MOL    C292   292  -0.1200000   12.0115
  293        CT    1  MOL    C293   293  -0.1200000   12.0115
  294        CT    1  MOL    C294   294   0.1900000   12.0115
  295       OES    1  MOL    O295   295  -0.3300000   15.9994
  296       CO4    1  MOL    C296   296   0.5100000   12.0115
  297         O    1  MOL    O297   297  -0.4300000   15.9994
  298        CT    1  MOL    C298   298  -0.1200000   12.0115
  299        CT    1  MOL    C299   299  -0.1200000   12.0115
  300       CO4    1  MOL    C300   300   0.5100000   12.0115
  301         O    1  MOL    O301   301  -0.4300000   15.9994
  302       HAE    1  MOL    H302   302   0.0300000    1.0080
  303       HAE    1  MOL    H303   303   0.0300000    1.0080
  304        HC    1  MOL    H304   304   0.0600000    1.0080
  305        HC    1  MOL    H305   305   0.0600000    1.0080
  306        HC    1  MOL    H306   306   0.0600000    1.0080
  307        HC    1  MOL    H307   307   0.0600000    1.0080
  308       HAE    1  MOL    H308   308   0.0300000    1.0080
  309       HAE    1  MOL    H309   309   0.0300000    1.0080
  310       HAE    1  MOL    H310   310   0.0600000    1.0080
  311       HAE    1  MOL    H311   311   0.0600000    1.0080
  312       HAE    1  MOL    H312   312   0.0600000    1.0080
  313       HAE    1  MOL    H313   313   0.0600000    1.0080
  314       OES    1  MOL    O314   314  -0.3300000   15.9994
  315        CT    1  MOL    C315   315   0.1900000   12.0115
  316        CT    1  MOL    C316   316  -0.1200000   12.0115
  317        CT    1  MOL    C317   317  -0.1200000   12.0115
  318        CT    1  MOL    C318   318   0.1900000   12.0115
  319       OES    1  MOL    O319   319  -0.3300000   15.9994
  320       CO4    1  MOL    C320   320   0.5100000   12.0115
  321         O    1  MOL    O321   321  -0.4300000   15.9994
  322        CT    1  MOL    C322   322  -0.1200000   12.0115
  323        CT    1  MOL    C323   323  -0.1200000   12.0115
  324       CO4    1  MOL    C324   324   0.5100000   12.0115
  325         O    1  MOL    O325   325  -0.4300000   15.9994
  326       HAE    1  MOL    H326   326   0.0300000    1.0080
  327       HAE    1  MOL    H327   327   0.0300000    1.0080
  328        HC    1  MOL    H328   328   0.0600000    1.0080
  329        HC    1  MOL    H329   329   0.0600000    1.0080
  330        HC    1  MOL    H330   330   0.0600000    1.0080
  331        HC    1  MOL    H331   331   0.0600000    1.0080
  332       HAE    1  MOL    H332   332   0.0300000    1.0080
  333       HAE    1  MOL    H333   333   0.0300000    1.0080
  334       HAE    1  MOL    H334   334   0.0600000    1.0080
  335       HAE    1  MOL    H335   335   0.0600000    1.0080
  336       HAE    1  MOL    H336   336   0.0600000    1.0080
  337       HAE    1  MOL    H337   337   0.0600000    1.0080
  338       OES    1  MOL    O338   338  -0.3300000   15.9994
  339        CT    1  MOL    C339   339   0.1900000   12.0115
  340        CT    1  MOL    C340   340  -0.1200000   12.0115
  341        CT    1  MOL    C341   341  -0.1200000   12.0115
  342        CT    1  MOL    C342   342   0.1900000   12.0115
  343       OES    1  MOL    O343   343  -0.3300000   15.9994
  344       CO4    1  MOL    C344   344   0.5100000   12.0115
  345         O    1  MOL    O345   345  -0.4300000   15.9994
  346        CT    1  MOL    C346   346  -0.1200000   12.0115
  347        CT    1  MOL    C347   347  -0.1200000   12.0115
  348       CO4    1  MOL    C348   348   0.5100000   12.0115
  349         O    1  MOL    O349   349  -0.4300000   15.9994
  350       HAE    1  MOL    H350   350   0.0300000    1.0080
  351       HAE    1  MOL    H351   351   0.0300000    1.0080
  352        HC    1  MOL    H352   352   0.0600000    1.0080
  353        HC    1  MOL    H353   353   0.0600000    1.0080
  354        HC    1  MOL    H354   354   0.0600000    1.0080
  355        HC    1  MOL    H355   355   0.0600000    1.0080
  356       HAE    1  MOL    H356   356   0.0300000    1.0080
  357       HAE    1  MOL    H357   357   0.0300000    1.0080
  358       HAE    1  MOL    H358   358   0.0600000    1.0080
  359       HAE    1  MOL    H359   359   0.0600000    1.0080
  360       HAE    1  MOL    H360   360   0.0600000    1.0080
  361       HAE    1  MOL    H361   361   0.0600000    1.0080
  362       OES    1  MOL    O362   362  -0.3300000   15.9994
  363        CT    1  MOL    C363   363   0.1900000   12.0115
  364        CT    1  MOL    C364   364  -0.1200000   12.0115
  365        CT    1  MOL    C365   365  -0.1200000   12.0115
  366        CT    1  MOL    C366   366   0.1900000   12.0115
  367       OES    1  MOL    O367   367  -0.3300000   15.9994
  368       CO4    1  MOL    C368   368   0.5100000   12.0115
  369         O    1  MOL    O369   369  -0.4300000   15.9994
  370        CT    1  MOL    C370   370  -0.1200000   12.0115
  371        CT    1  MOL    C371   371  -0.1200000   12.0115
  372       CO4    1  MOL    C372   372   0.5100000   12.0115
  373         O    1  MOL    O373   373  -0.4300000   15.9994
  374       HAE    1  MOL    H374   374   0.0300000    1.0080
  375       HAE    1  MOL    H375   375   0.0300000    1.0080
  376        HC    1  MOL    H376   376   0.0600000    1.0080
  377        HC    1  MOL    H377   377   0.0600000    1.0080
  378        HC    1  MOL    H378   378   0.0600000    1.0080
  379        HC    1  MOL    H379   379   0.0600000    1.0080
  380       HAE    1  MOL    H380   380   0.0300000    1.0080
  381       HAE    1  MOL    H381   381   0.0300000    1.0080
  382       HAE    1  MOL    H382   382   0.0600000    1.0080
  383       HAE    1  MOL    H383   383   0.0600000    1.0080
  384       HAE    1  MOL    H384   384   0.0600000    1.0080
  385       HAE    1  MOL    H385   385   0.0600000    1.0080
  386       OES    1  MOL    O386   386  -0.3300000   15.9994
  387        CT    1  MOL    C387   387   0.1900000   12.0115
  388        CT    1  MOL    C388   388  -0.1200000   12.0115
  389        CT    1  MOL    C389   389  -0.1200000   12.0115
  390        CT    1  MOL    C390   390   0.1900000   12.0115
  391       OES    1  MOL    O391   391  -0.3300000   15.9994
  392       CO4    1  MOL    C392   392   0.5100000   12.0115
  393         O    1  MOL    O393   393  -0.4300000   15.9994
  394        CT    1  MOL    C394   394  -0.1200000   12.0115
  395        CT    1  MOL    C395   395  -0.1200000   12.0115
  396       CO4    1  MOL    C396   396   0.5100000   12.0115
  397         O    1  MOL    O397   397  -0.4300000   15.9994
  398       HAE    1  MOL    H398   398   0.0300000    1.0080
  399       HAE    1  MOL    H399   399   0.0300000    1.0080
  400        HC    1  MOL    H400   400   0.0600000    1.0080
  401        HC    1  MOL    H401   401   0.0600000    1.0080
  402        HC    1  MOL    H402   402   0.0600000    1.0080
  403        HC    1  MOL    H403   403   0.0600000    1.0080
  404       HAE    1  MOL    H404   404   0.0300000    1.0080
  405       HAE    1  MOL    H405   405   0.0300000    1.0080
  406       HAE    1  MOL    H406   406   0.0600000    1.0080
  407       HAE    1  MOL    H407   407   0.0600000    1.0080
  408       HAE    1  MOL    H408   408   0.0600000    1.0080
  409       HAE    1  MOL    H409   409   0.0600000    1.0080
  410       OES    1  MOL    O410   410  -0.3300000   15.9994
  411        CT    1  MOL    C411   411   0.1900000   12.0115
  412        CT    1  MOL    C412   412  -0.1200000   12.0115
  413        CT    1  MOL    C413   413  -0.1200000   12.0115
  414        CT    1  MOL    C414   414   0.1900000   12.0115
  415       OES    1  MOL    O415   415  -0.3300000   15.9994
  416       CO4    1  MOL    C416   416   0.5100000   12.0115
  417         O    1  MOL    O417   417  -0.4300000   15.9994
  418        CT    1  MOL    C418   418  -0.1200000   12.0115
  419        CT    1  MOL    C419   419  -0.1200000   12.0115
  420       CO4    1  MOL    C420   420   0.5100000   12.0115
  421         O    1  MOL    O421   421  -0.4300000   15.9994
  422       HAE    1  MOL    H422   422   0.0300000    1.0080
  423       HAE    1  MOL    H423   423   0.0300000    1.0080
  424        HC    1  MOL    H424   424   0.0600000    1.0080
  425        HC    1  MOL    H425   425   0.0600000    1.0080
  426        HC    1  MOL    H426   426   0.0600000    1.0080
  427        HC    1  MOL    H427   427   0.0600000    1.0080
  428       HAE    1  MOL    H428   428   0.0300000    1.0080
  429       HAE    1  MOL    H429   429   0.0300000    1.0080
  430       HAE    1  MOL    H430   430   0.0600000    1.0080
  431       HAE    1  MOL    H431   431   0.0600000    1.0080
  432       HAE    1  MOL    H432   432   0.0600000    1.0080
  433       HAE    1  MOL    H433   433   0.0600000    1.0080
  434       OES    1  MOL    O434   434  -0.3300000   15.9994
  435        CT    1  MOL    C435   435   0.1900000   12.0115
  436        CT    1  MOL    C436   436  -0.1200000   12.0115
  437        CT    1  MOL    C437   437  -0.1200000   12.0115
  438        CT    1  MOL    C438   438   0.1900000   12.0115
  439       OES    1  MOL    O439   439  -0.3300000   15.9994
  440       CO4    1  MOL    C440   440   0.5100000   12.0115
  441         O    1  MOL    O441   441  -0.4300000   15.9994
  442        CT    1  MOL    C442   442  -0.1200000   12.0115
  443        CT    1  MOL    C443   443  -0.1200000   12.0115
  444       CO4    1  MOL    C444   444   0.5100000   12.0115
  445         O    1  MOL    O445   445  -0.4300000   15.9994
  446       HAE    1  MOL    H446   446   0.0300000    1.0080
  447       HAE    1  MOL    H447   447   0.0300000    1.0080
  448        HC    1  MOL    H448   448   0.0600000    1.0080
  449        HC    1  MOL    H449   449   0.0600000    1.0080
  450        HC    1  MOL    H450   450   0.0600000    1.0080
  451        HC    1  MOL    H451   451   0.0600000    1.0080
  452       HAE    1  MOL    H452   452   0.0300000    1.0080
  453       HAE    1  MOL    H453   453   0.0300000    1.0080
  454       HAE    1  MOL    H454   454   0.0600000    1.0080
  455       HAE    1  MOL    H455   455   0.0600000    1.0080
  456       HAE    1  MOL    H456   456   0.0600000    1.0080
  457       HAE    1  MOL    H457   457   0.0600000    1.0080
  458       OES    1  MOL    O458   458  -0.3300000   15.9994
  459        CT    1  MOL    C459   459   0.1900000   12.0115
  460        CT    1  MOL    C460   460  -0.1200000   12.0115
  461        CT    1  MOL    C461   461  -0.1200000   12.0115
  462        CT    1  MOL    C462   462   0.1900000   12.0115
  463       OES    1  MOL    O463   463  -0.3300000   15.9994
  464       CO4    1  MOL    C464   464   0.5100000   12.0115
  465         O    1  MOL    O465   465  -0.4300000   15.9994
  466        CT    1  MOL    C466   466  -0.1200000   12.0115
  467        CT    1  MOL    C467   467  -0.1200000   12.0115
  468       CO4    1  MOL    C468   468   0.4500000   12.0115
  469         O    1  MOL    O469   469  -0.4500000   15.9994
  470       HAE    1  MOL    H470   470   0.0300000    1.0080
  471       HAE    1  MOL    H471   471   0.0300000    1.0080
  472        HC    1  MOL    H472   472   0.0600000    1.0080
  473        HC    1  MOL    H473   473   0.0600000    1.0080
  474        HC    1  MOL    H474   474   0.0600000    1.0080
  475        HC    1  MOL    H475   475   0.0600000    1.0080
  476       HAE    1  MOL    H476   476   0.0300000    1.0080
  477       HAE    1  MOL    H477   477   0.0300000    1.0080
  478       HAE    1  MOL    H478   478   0.0600000    1.0080
  479       HAE    1  MOL    H479   479   0.0600000    1.0080
  480       HAE    1  MOL    H480   480   0.0600000    1.0080
  481       HAE    1  MOL    H481   481   0.0600000    1.0080
  482       HAE    1  MOL    H482   482   0.0000000    1.0080

[ bonds ]
      1      2   1      0.1410 267776.0000
      1     25   1      0.0945 462750.4000
      2      3   1      0.1529 224262.4000
      2     13   1      0.1090 284512.0000
      2     14   1      0.1090 284512.0000
      3      4   1      0.1529 224262.4000
      3     15   1      0.1090 284512.0000
      3     16   1      0.1090 284512.0000
      4      5   1      0.1529 224262.4000
      4     17   1      0.1090 284512.0000
      4     18   1      0.1090 284512.0000
      5      6   1      0.1410 267776.0000
      5     19   1      0.1090 284512.0000
      5     20   1      0.1090 284512.0000
      6      7   1      0.1327 179075.2000
      7      8   1      0.1229 476976.0000
      7      9   1      0.1522 265265.6000
      9     10   1      0.1529 224262.4000
      9     21   1      0.1090 284512.0000
      9     22   1      0.1090 284512.0000
     10     11   1      0.1522 265265.6000
     10     23   1      0.1090 284512.0000
     10     24   1      0.1090 284512.0000
     11     12   1      0.1229 476976.0000
     11     26   1      0.1327 179075.2000
     26     27   1      0.1410 267776.0000
     27     28   1      0.1529 224262.4000
     27     38   1      0.1090 284512.0000
     27     39   1      0.1090 284512.0000
     28     29   1      0.1529 224262.4000
     28     40   1      0.1090 284512.0000
     28     41   1      0.1090 284512.0000
     29     30   1      0.1529 224262.4000
     29     42   1      0.1090 284512.0000
     29     43   1      0.1090 284512.0000
     30     31   1      0.1410 267776.0000
     30     44   1      0.1090 284512.0000
     30     45   1      0.1090 284512.0000
     31     32   1      0.1327 179075.2000
     32     33   1      0.1229 476976.0000
     32     34   1      0.1522 265265.6000
     34     35   1      0.1529 224262.4000
     34     46   1      0.1090 284512.0000
     34     47   1      0.1090 284512.0000
     35     36   1      0.1522 265265.6000
     35     48   1      0.1090 284512.0000
     35     49   1      0.1090 284512.0000
     36     37   1      0.1229 476976.0000
     36     50   1      0.1327 179075.2000
     50     51   1      0.1410 267776.0000
     51     52   1      0.1529 224262.4000
     51     62   1      0.1090 284512.0000
     51     63   1      0.1090 284512.0000
     52     53   1      0.1529 224262.4000
     52     64   1      0.1090 284512.0000
     52     65   1      0.1090 284512.0000
     53     54   1      0.1529 224262.4000
     53     66   1      0.1090 284512.0000
     53     67   1      0.1090 284512.0000
     54     55   1      0.1410 267776.0000
     54     68   1      0.1090 284512.0000
     54     69   1      0.1090 284512.0000
     55     56   1      0.1327 179075.2000
     56     57   1      0.1229 476976.0000
     56     58   1      0.1522 265265.6000
     58     59   1      0.1529 224262.4000
     58     70   1      0.1090 284512.0000
     58     71   1      0.1090 284512.0000
     59     60   1      0.1522 265265.6000
     59     72   1      0.1090 284512.0000
     59     73   1      0.1090 284512.0000
     60     61   1      0.1229 476976.0000
     60     74   1      0.1327 179075.2000
     74     75   1      0.1410 267776.0000
     75     76   1      0.1529 224262.4000
     75     86   1      0.1090 284512.0000
     75     87   1      0.1090 284512.0000
     76     77   1      0.1529 224262.4000
     76     88   1      0.1090 284512.0000
     76     89   1      0.1090 284512.0000
     77     78   1      0.1529 224262.4000
     77     90   1      0.1090 284512.0000
     77     91   1      0.1090 284512.0000
     78     79   1      0.1410 267776.0000
     78     92   1      0.1090 284512.0000
     78     93   1      0.1090 284512.0000
     79     80   1      0.1327 179075.2000
     80     81   1      0.1229 476976.0000
     80     82   1      0.1522 265265.6000
     82     83   1      0.1529 224262.4000
     82     94   1      0.1090 284512.0000
     82     95   1      0.1090 284512.0000
     83     84   1      0.1522 265265.6000
     83     96   1      0.1090 284512.0000
     83     97   1      0.1090 284512.0000
     84     85   1      0.1229 476976.0000
     84     98   1      0.1327 179075.2000
     98     99   1      0.1410 267776.0000
     99    100   1      0.1529 224262.4000
     99    110   1      0.1090 284512.0000
     99    111   1      0.1090 284512.0000
    100    101   1      0.1529 224262.4000
    100    112   1      0.1090 284512.0000
    100    113   1      0.1090 284512.0000
    101    102   1      0.1529 224262.4000
    101    114   1      0.1090 284512.0000
    101    115   1      0.1090 284512.0000
    102    103   1      0.1410 267776.0000
    102    116   1      0.1090 284512.0000
    102    117   1      0.1090 284512.0000
    103    104   1      0.1327 179075.2000
    104    105   1      0.1229 476976.0000
    104    106   1      0.1522 265265.6000
    106    107   1      0.1529 224262.4000
    106    118   1      0.1090 284512.0000
    106    119   1      0.1090 284512.0000
    107    108   1      0.1522 265265.6000
    107    120   1      0.1090 284512.0000
    107    121   1      0.1090 284512.0000
    108    109   1      0.1229 476976.0000
    108    122   1      0.1327 179075.2000
    122    123   1      0.1410 267776.0000
    123    124   1      0.1529 224262.4000
    123    134   1      0.1090 284512.0000
    123    135   1      0.1090 284512.0000
    124    125   1      0.1529 224262.4000
    124    136   1      0.1090 284512.0000
    124    137   1      0.1090 284512.0000
    125    126   1      0.1529 224262.4000
    125    138   1      0.1090 284512.0000
    125    139   1      0.1090 284512.0000
    126    127   1      0.1410 267776.0000
    126    140   1      0.1090 284512.0000
    126    141   1      0.1090 284512.0000
    127    128   1      0.1327 179075.2000
    128    129   1      0.1229 476976.0000
    128    130   1      0.1522 265265.6000
    130    131   1      0.1529 224262.4000
    130    142   1      0.1090 284512.0000
    130    143   1      0.1090 284512.0000
    131    132   1      0.1522 265265.6000
    131    144   1      0.1090 284512.0000
    131    145   1      0.1090 284512.0000
    132    133   1      0.1229 476976.0000
    132    146   1      0.1327 179075.2000
    146    147   1      0.1410 267776.0000
    147    148   1      0.1529 224262.4000
    147    158   1      0.1090 284512.0000
    147    159   1      0.1090 284512.0000
    148    149   1      0.1529 224262.4000
    148    160   1      0.1090 284512.0000
    148    161   1      0.1090 284512.0000
    149    150   1      0.1529 224262.4000
    149    162   1      0.1090 284512.0000
    149    163   1      0.1090 284512.0000
    150    151   1      0.1410 267776.0000
    150    164   1      0.1090 284512.0000
    150    165   1      0.1090 284512.0000
    151    152   1      0.1327 179075.2000
    152    153   1      0.1229 476976.0000
    152    154   1      0.1522 265265.6000
    154    155   1      0.1529 224262.4000
    154    166   1      0.1090 284512.0000
    154    167   1      0.1090 284512.0000
    155    156   1      0.1522 265265.6000
    155    168   1      0.1090 284512.0000
    155    169   1      0.1090 284512.0000
    156    157   1      0.1229 476976.0000
    156    170   1      0.1327 179075.2000
    170    171   1      0.1410 267776.0000
    171    172   1      0.1529 224262.4000
    171    182   1      0.1090 284512.0000
    171    183   1      0.1090 284512.0000
    172    173   1      0.1529 224262.4000
    172    184   1      0.1090 284512.0000
    172    185   1      0.1090 284512.0000
    173    174   1      0.1529 224262.4000
    173    186   1      0.1090 284512.0000
    173    187   1      0.1090 284512.0000
    174    175   1      0.1410 267776.0000
    174    188   1      0.1090 284512.0000
    174    189   1      0.1090 284512.0000
    175    176   1      0.1327 179075.2000
    176    177   1      0.1229 476976.0000
    176    178   1      0.1522 265265.6000
    178    179   1      0.1529 224262.4000
    178    190   1      0.1090 284512.0000
    178    191   1      0.1090 284512.0000
    179    180   1      0.1522 265265.6000
    179    192   1      0.1090 284512.0000
    179    193   1      0.1090 284512.0000
    180    181   1      0.1229 476976.0000
    180    194   1      0.1327 179075.2000
    194    195   1      0.1410 267776.0000
    195    196   1      0.1529 224262.4000
    195    206   1      0.1090 284512.0000
    195    207   1      0.1090 284512.0000
    196    197   1      0.1529 224262.4000
    196    208   1      0.1090 284512.0000
    196    209   1      0.1090 284512.0000
    197    198   1      0.1529 224262.4000
    197    210   1      0.1090 284512.0000
    197    211   1      0.1090 284512.0000
    198    199   1      0.1410 267776.0000
    198    212   1      0.1090 284512.0000
    198    213   1      0.1090 284512.0000
    199    200   1      0.1327 179075.2000
    200    201   1      0.1229 476976.0000
    200    202   1      0.1522 265265.6000
    202    203   1      0.1529 224262.4000
    202    214   1      0.1090 284512.0000
    202    215   1      0.1090 284512.0000
    203    204   1      0.1522 265265.6000
    203    216   1      0.1090 284512.0000
    203    217   1      0.1090 284512.0000
    204    205   1      0.1229 476976.0000
    204    218   1      0.1327 179075.2000
    218    219   1      0.1410 267776.0000
    219    220   1      0.1529 224262.4000
    219    230   1      0.1090 284512.0000
    219    231   1      0.1090 284512.0000
    220    221   1      0.1529 224262.4000
    220    232   1      0.1090 284512.0000
    220    233   1      0.1090 284512.0000
    221    222   1      0.1529 224262.4000
    221    234   1      0.1090 284512.0000
    221    235   1      0.1090 284512.0000
    222    223   1      0.1410 267776.0000
    222    236   1      0.1090 284512.0000
    222    237   1      0.1090 284512.0000
    223    224   1      0.1327 179075.2000
    224    225   1      0.1229 476976.0000
    224    226   1      0.1522 265265.6000
    226    227   1      0.1529 224262.4000
    226    238   1      0.1090 284512.0000
    226    239   1      0.1090 284512.0000
    227    228   1      0.1522 265265.6000
    227    240   1      0.1090 284512.0000
    227    241   1      0.1090 284512.0000
    228    229   1      0.1229 476976.0000
    228    242   1      0.1327 179075.2000
    242    243   1      0.1410 267776.0000
    243    244   1      0.1529 224262.4000
    243    254   1      0.1090 284512.0000
    243    255   1      0.1090 284512.0000
    244    245   1      0.1529 224262.4000
    244    256   1      0.1090 284512.0000
    244    257   1      0.1090 284512.0000
    245    246   1      0.1529 224262.4000
    245    258   1      0.1090 284512.0000
    245    259   1      0.1090 284512.0000
    246    247   1      0.1410 267776.0000
    246    260   1      0.1090 284512.0000
    246    261   1      0.1090 284512.0000
    247    248   1      0.1327 179075.2000
    248    249   1      0.1229 476976.0000
    248    250   1      0.1522 265265.6000
    250    251   1      0.1529 224262.4000
    250    262   1      0.1090 284512.0000
    250    263   1      0.1090 284512.0000
    251    252   1      0.1522 265265.6000
    251    264   1      0.1090 284512.0000
    251    265   1      0.1090 284512.0000
    252    253   1      0.1229 476976.0000
    252    266   1      0.1327 179075.2000
    266    267   1      0.1410 267776.0000
    267    268   1      0.1529 224262.4000
    267    278   1      0.1090 284512.0000
    267    279   1      0.1090 284512.0000
    268    269   1      0.1529 224262.4000
    268    280   1      0.1090 284512.0000
    268    281   1      0.1090 284512.0000
    269    270   1      0.1529 224262.4000
    269    282   1      0.1090 284512.0000
    269    283   1      0.1090 284512.0000
    270    271   1      0.1410 267776.0000
    270    284   1      0.1090 284512.0000
    270    285   1      0.1090 284512.0000
    271    272   1      0.1327 179075.2000
    272    273   1      0.1229 476976.0000
    272    274   1      0.1522 265265.6000
    274    275   1      0.1529 224262.4000
    274    286   1      0.1090 284512.0000
    274    287   1      0.1090 284512.0000
    275    276   1      0.1522 265265.6000
    275    288   1      0.1090 284512.0000
    275    289   1      0.1090 284512.0000
    276    277   1      0.1229 476976.0000
    276    290   1      0.1327 179075.2000
    290    291   1      0.1410 267776.0000
    291    292   1      0.1529 224262.4000
    291    302   1      0.1090 284512.0000
    291    303   1      0.1090 284512.0000
    292    293   1      0.1529 224262.4000
    292    304   1      0.1090 284512.0000
    292    305   1      0.1090 284512.0000
    293    294   1      0.1529 224262.4000
    293    306   1      0.1090 284512.0000
    293    307   1      0.1090 284512.0000
    294    295   1      0.1410 267776.0000
    294    308   1      0.1090 284512.0000
    294    309   1      0.1090 284512.0000
    295    296   1      0.1327 179075.2000
    296    297   1      0.1229 476976.0000
    296    298   1      0.1522 265265.6000
    298    299   1      0.1529 224262.4000
    298    310   1      0.1090 284512.0000
    298    311   1      0.1090 284512.0000
    299    300   1      0.1522 265265.6000
    299    312   1      0.1090 284512.0000
    299    313   1      0.1090 284512.0000
    300    301   1      0.1229 476976.0000
    300    314   1      0.1327 179075.2000
    314    315   1      0.1410 267776.0000
    315    316   1      0.1529 224262.4000
    315    326   1      0.1090 284512.0000
    315    327   1      0.1090 284512.0000
    316    317   1      0.1529 224262.4000
    316    328   1      0.1090 284512.0000
    316    329   1      0.1090 284512.0000
    317    318   1      0.1529 224262.4000
    317    330   1      0.1090 284512.0000
    317    331   1      0.1090 284512.0000
    318    319   1      0.1410 267776.0000
    318    332   1      0.1090 284512.0000
    318    333   1      0.1090 284512.0000
    319    320   1      0.1327 179075.2000
    320    321   1      0.1229 476976.0000
    320    322   1      0.1522 265265.6000
    322    323   1      0.1529 224262.4000
    322    334   1      0.1090 284512.0000
    322    335   1      0.1090 284512.0000
    323    324   1      0.1522 265265.6000
    323    336   1      0.1090 284512.0000
    323    337   1      0.1090 284512.0000
    324    325   1      0.1229 476976.0000
    324    338   1      0.1327 179075.2000
    338    339   1      0.1410 267776.0000
    339    340   1      0.1529 224262.4000
    339    350   1      0.1090 284512.0000
    339    351   1      0.1090 284512.0000
    340    341   1      0.1529 224262.4000
    340    352   1      0.1090 284512.0000
    340    353   1      0.1090 284512.0000
    341    342   1      0.1529 224262.4000
    341    354   1      0.1090 284512.0000
    341    355   1      0.1090 284512.0000
    342    343   1      0.1410 267776.0000
    342    356   1      0.1090 284512.0000
    342    357   1      0.1090 284512.0000
    343    344   1      0.1327 179075.2000
    344    345   1      0.1229 476976.0000
    344    346   1      0.1522 265265.6000
    346    347   1      0.1529 224262.4000
    346    358   1      0.1090 284512.0000
    346    359   1      0.1090 284512.0000
    347    348   1      0.1522 265265.6000
    347    360   1      0.1090 284512.0000
    347    361   1      0.1090 284512.0000
    348    349   1      0.1229 476976.0000
    348    362   1      0.1327 179075.2000
    362    363   1      0.1410 267776.0000
    363    364   1      0.1529 224262.4000
    363    374   1      0.1090 284512.0000
    363    375   1      0.1090 284512.0000
    364    365   1      0.1529 224262.4000
    364    376   1      0.1090 284512.0000
    364    377   1      0.1090 284512.0000
    365    366   1      0.1529 224262.4000
    365    378   1      0.1090 284512.0000
    365    379   1      0.1090 284512.0000
    366    367   1      0.1410 267776.0000
    366    380   1      0.1090 284512.0000
    366    381   1      0.1090 284512.0000
    367    368   1      0.1327 179075.2000
    368    369   1      0.1229 476976.0000
    368    370   1      0.1522 265265.6000
    370    371   1      0.1529 224262.4000
    370    382   1      0.1090 284512.0000
    370    383   1      0.1090 284512.0000
    371    372   1      0.1522 265265.6000
    371    384   1      0.1090 284512.0000
    371    385   1      0.1090 284512.0000
    372    373   1      0.1229 476976.0000
    372    386   1      0.1327 179075.2000
    386    387   1      0.1410 267776.0000
    387    388   1      0.1529 224262.4000
    387    398   1      0.1090 284512.0000
    387    399   1      0.1090 284512.0000
    388    389   1      0.1529 224262.4000
    388    400   1      0.1090 284512.0000
    388    401   1      0.1090 284512.0000
    389    390   1      0.1529 224262.4000
    389    402   1      0.1090 284512.0000
    389    403   1      0.1090 284512.0000
    390    391   1      0.1410 267776.0000
    390    404   1      0.1090 284512.0000
    390    405   1      0.1090 284512.0000
    391    392   1      0.1327 179075.2000
    392    393   1      0.1229 476976.0000
    392    394   1      0.1522 265265.6000
    394    395   1      0.1529 224262.4000
    394    406   1      0.1090 284512.0000
    394    407   1      0.1090 284512.0000
    395    396   1      0.1522 265265.6000
    395    408   1      0.1090 284512.0000
    395    409   1      0.1090 284512.0000
    396    397   1      0.1229 476976.0000
    396    410   1      0.1327 179075.2000
    410    411   1      0.1410 267776.0000
    411    412   1      0.1529 224262.4000
    411    422   1      0.1090 284512.0000
    411    423   1      0.1090 284512.0000
    412    413   1      0.1529 224262.4000
    412    424   1      0.1090 284512.0000
    412    425   1      0.1090 284512.0000
    413    414   1      0.1529 224262.4000
    413    426   1      0.1090 284512.0000
    413    427   1      0.1090 284512.0000
    414    415   1      0.1410 267776.0000
    414    428   1      0.1090 284512.0000
    414    429   1      0.1090 284512.0000
    415    416   1      0.1327 179075.2000
    416    417   1      0.1229 476976.0000
    416    418   1      0.1522 265265.6000
    418    419   1      0.1529 224262.4000
    418    430   1      0.1090 284512.0000
    418    431   1      0.1090 284512.0000
    419    420   1      0.1522 265265.6000
    419    432   1      0.1090 284512.0000
    419    433   1      0.1090 284512.0000
    420    421   1      0.1229 476976.0000
    420    434   1      0.1327 179075.2000
    434    435   1      0.1410 267776.0000
    435    436   1      0.1529 224262.4000
    435    446   1      0.1090 284512.0000
    435    447   1      0.1090 284512.0000
    436    437   1      0.1529 224262.4000
    436    448   1      0.1090 284512.0000
    436    449   1      0.1090 284512.0000
    437    438   1      0.1529 224262.4000
    437    450   1      0.1090 284512.0000
    437    451   1      0.1090 284512.0000
    438    439   1      0.1410 267776.0000
    438    452   1      0.1090 284512.0000
    438    453   1      0.1090 284512.0000
    439    440   1      0.1327 179075.2000
    440    441   1      0.1229 476976.0000
    440    442   1      0.1522 265265.6000
    442    443   1      0.1529 224262.4000
    442    454   1      0.1090 284512.0000
    442    455   1      0.1090 284512.0000
    443    444   1      0.1522 265265.6000
    443    456   1      0.1090 284512.0000
    443    457   1      0.1090 284512.0000
    444    445   1      0.1229 476976.0000
    444    458   1      0.1327 179075.2000
    458    459   1      0.1410 267776.0000
    459    460   1      0.1529 224262.4000
    459    470   1      0.1090 284512.0000
    459    471   1      0.1090 284512.0000
    460    461   1      0.1529 224262.4000
    460    472   1      0.1090 284512.0000
    460    473   1      0.1090 284512.0000
    461    462   1      0.1529 224262.4000
    461    474   1      0.1090 284512.0000
    461    475   1      0.1090 284512.0000
    462    463   1      0.1410 267776.0000
    462    476   1      0.1090 284512.0000
    462    477   1      0.1090 284512.0000
    463    464   1      0.1327 179075.2000
    464    465   1      0.1229 476976.0000
    464    466   1      0.1522 265265.6000
    466    467   1      0.1529 224262.4000
    466    478   1      0.1090 284512.0000
    466    479   1      0.1090 284512.0000
    467    468   1      0.1522 265265.6000
    467    480   1      0.1090 284512.0000
    467    481   1      0.1090 284512.0000
    468    469   1      0.1229 476976.0000
    468    482   1      0.1090 284512.0000

[ pairs ]
; ai   aj   funct   fudge_QQ  charge_i   charge_j   c6    c12
     25      3   2   0.50000     0.4180000   -0.1200000   1.995577e-06  1.069504e-11
     25     13   2   0.50000     0.4180000    0.0600000   4.903125e-07  9.576416e-13
     25     14   2   0.50000     0.4180000    0.0600000   4.903125e-07  9.576416e-13
      1      4   2   0.50000    -0.6830000   -0.1200000   1.154213e-03  1.502983e-06
      1     15   2   0.50000    -0.6830000    0.0600000   2.835898e-04  1.345781e-07
      1     16   2   0.50000    -0.6830000    0.0600000   2.835898e-04  1.345781e-07
     13      4   2   0.50000     0.0600000   -0.1200000   2.494471e-04  1.671101e-07
     13     15   2   0.50000     0.0600000    0.0600000   6.128906e-05  1.496315e-08
     13     16   2   0.50000     0.0600000    0.0600000   6.128906e-05  1.496315e-08
     14      4   2   0.50000     0.0600000   -0.1200000   2.494471e-04  1.671101e-07
     14     15   2   0.50000     0.0600000    0.0600000   6.128906e-05  1.496315e-08
     14     16   2   0.50000     0.0600000    0.0600000   6.128906e-05  1.496315e-08
      2      5   2   0.50000     0.1450000    0.1900000   1.015252e-03  1.866303e-06
      2     17   2   0.50000     0.1450000    0.0600000   2.494471e-04  1.671101e-07
      2     18   2   0.50000     0.1450000    0.0600000   2.494471e-04  1.671101e-07
     15      5   2   0.50000     0.0600000    0.1900000   2.494471e-04  1.671101e-07
     15     17   2   0.50000     0.0600000    0.0600000   6.128906e-05  1.496315e-08
     15     18   2   0.50000     0.0600000    0.0600000   6.128906e-05  1.496315e-08
     16      5   2   0.50000     0.0600000    0.1900000   2.494471e-04  1.671101e-07
     16     17   2   0.50000     0.0600000    0.0600000   6.128906e-05  1.496315e-08
     16     18   2   0.50000     0.0600000    0.0600000   6.128906e-05  1.496315e-08
      3      6   2   0.50000    -0.1200000   -0.3300000   1.026091e-03  1.187829e-06
      3     19   2   0.50000    -0.1200000    0.0300000   1.599888e-04  9.721644e-08
      3     20   2   0.50000    -0.1200000    0.0300000   1.599888e-04  9.721644e-08
     17      6   2   0.50000     0.0600000   -0.3300000   2.521103e-04  1.063590e-07
     17     19   2   0.50000     0.0600000    0.0300000   3.930919e-05  8.704828e-09
     17     20   2   0.50000     0.0600000    0.0300000   3.930919e-05  8.704828e-09
     18      6   2   0.50000     0.0600000   -0.3300000   2.521103e-04  1.063590e-07
     18     19   2   0.50000     0.0600000    0.0300000   3.930919e-05  8.704828e-09
     18     20   2   0.50000     0.0600000    0.0300000   3.930919e-05  8.704828e-09
      4      7   2   0.50000    -0.1200000    0.5100000   1.575021e-03  3.561100e-06
     19      7   2   0.50000     0.0300000    0.5100000   2.482000e-04  1.854991e-07
     20      7   2   0.50000     0.0300000    0.5100000   2.482000e-04  1.854991e-07
      5      8   2   0.50000     0.1900000   -0.4300000   1.095425e-03  1.218041e-06
      5      9   2   0.50000     0.1900000   -0.1200000   1.015252e-03  1.866303e-06
      6     10   2   0.50000    -0.3300000   -0.1200000   1.026091e-03  1.187829e-06
      6     21   2   0.50000    -0.3300000    0.0600000   1.616969e-04  6.187447e-08
      6     22   2   0.50000    -0.3300000    0.0600000   1.616969e-04  6.187447e-08
      8     10   2   0.50000    -0.4300000   -0.1200000   1.095425e-03  1.218041e-06
      8     21   2   0.50000    -0.4300000    0.0600000   1.726228e-04  6.344822e-08
      8     22   2   0.50000    -0.4300000    0.0600000   1.726228e-04  6.344822e-08
      7     11   2   0.50000     0.5100000    0.5100000   2.443423e-03  6.794949e-06
      7     23   2   0.50000     0.5100000    0.0600000   2.482000e-04  1.854991e-07
      7     24   2   0.50000     0.5100000    0.0600000   2.482000e-04  1.854991e-07
     21     11   2   0.50000     0.0600000    0.5100000   2.482000e-04  1.854991e-07
     21     23   2   0.50000     0.0600000    0.0600000   2.521187e-05  5.064042e-09
     21     24   2   0.50000     0.0600000    0.0600000   2.521187e-05  5.064042e-09
     22     11   2   0.50000     0.0600000    0.5100000   2.482000e-04  1.854991e-07
     22     23   2   0.50000     0.0600000    0.0600000   2.521187e-05  5.064042e-09
     22     24   2   0.50000     0.0600000    0.0600000   2.521187e-05  5.064042e-09
      9     12   2   0.50000    -0.1200000   -0.4300000   1.095425e-03  1.218041e-06
      9     26   2   0.50000    -0.1200000   -0.3300000   1.026091e-03  1.187829e-06
     23     12   2   0.50000     0.0600000   -0.4300000   1.726228e-04  6.344822e-08
     23     26   2   0.50000     0.0600000   -0.3300000   1.616969e-04  6.187447e-08
     24     12   2   0.50000     0.0600000   -0.4300000   1.726228e-04  6.344822e-08
     24     26   2   0.50000     0.0600000   -0.3300000   1.616969e-04  6.187447e-08
     10     27   2   0.50000    -0.1200000    0.1900000   1.015252e-03  1.866303e-06
     12     27   2   0.50000    -0.4300000    0.1900000   1.095425e-03  1.218041e-06
     11     28   2   0.50000     0.5100000   -0.1200000   1.575021e-03  3.561100e-06
     11     38   2   0.50000     0.5100000    0.0300000   2.482000e-04  1.854991e-07
     11     39   2   0.50000     0.5100000    0.0300000   2.482000e-04  1.854991e-07
     26     29   2   0.50000    -0.3300000   -0.1200000   1.026091e-03  1.187829e-06
     26     40   2   0.50000    -0.3300000    0.0600000   2.521103e-04  1.063590e-07
     26     41   2   0.50000    -0.3300000    0.0600000   2.521103e-04  1.063590e-07
     38     29   2   0.50000     0.0300000   -0.1200000   1.599888e-04  9.721644e-08
     38     40   2   0.50000     0.0300000    0.0600000   3.930919e-05  8.704828e-09
     38     41   2   0.50000     0.0300000    0.0600000   3.930919e-05  8.704828e-09
     39     29   2   0.50000     0.0300000   -0.1200000   1.599888e-04  9.721644e-08
     39     40   2   0.50000     0.0300000    0.0600000   3.930919e-05  8.704828e-09
     39     41   2   0.50000     0.0300000    0.0600000   3.930919e-05  8.704828e-09
     27     30   2   0.50000     0.1900000    0.1900000   1.015252e-03  1.866303e-06
     27     42   2   0.50000     0.1900000    0.0600000   2.494471e-04  1.671101e-07
     27     43   2   0.50000     0.1900000    0.0600000   2.494471e-04  1.671101e-07
     40     30   2   0.50000     0.0600000    0.1900000   2.494471e-04  1.671101e-07
     40     42   2   0.50000     0.0600000    0.0600000   6.128906e-05  1.496315e-08
     40     43   2   0.50000     0.0600000    0.0600000   6.128906e-05  1.496315e-08
     41     30   2   0.50000     0.0600000    0.1900000   2.494471e-04  1.671101e-07
     41     42   2   0.50000     0.0600000    0.0600000   6.128906e-05  1.496315e-08
     41     43   2   0.50000     0.0600000    0.0600000   6.128906e-05  1.496315e-08
     28     31   2   0.50000    -0.1200000   -0.3300000   1.026091e-03  1.187829e-06
     28     44   2   0.50000    -0.1200000    0.0300000   1.599888e-04  9.721644e-08
     28     45   2   0.50000    -0.1200000    0.0300000   1.599888e-04  9.721644e-08
     42     31   2   0.50000     0.0600000   -0.3300000   2.521103e-04  1.063590e-07
     42     44   2   0.50000     0.0600000    0.0300000   3.930919e-05  8.704828e-09
     42     45   2   0.50000     0.0600000    0.0300000   3.930919e-05  8.704828e-09
     43     31   2   0.50000     0.0600000   -0.3300000   2.521103e-04  1.063590e-07
     43     44   2   0.50000     0.0600000    0.0300000   3.930919e-05  8.704828e-09
     43     45   2   0.50000     0.0600000    0.0300000   3.930919e-05  8.704828e-09
     29     32   2   0.50000    -0.1200000    0.5100000   1.575021e-03  3.561100e-06
     44     32   2   0.50000     0.0300000    0.5100000   2.482000e-04  1.854991e-07
     45     32   2   0.50000     0.0300000    0.5100000   2.482000e-04  1.854991e-07
     30     33   2   0.50000     0.1900000   -0.4300000   1.095425e-03  1.218041e-06
     30     34   2   0.50000     0.1900000   -0.1200000   1.015252e-03  1.866303e-06
     31     35   2   0.50000    -0.3300000   -0.1200000   1.026091e-03  1.187829e-06
     31     46   2   0.50000    -0.3300000    0.0600000   1.616969e-04  6.187447e-08
     31     47   2   0.50000    -0.3300000    0.0600000   1.616969e-04  6.187447e-08
     33     35   2   0.50000    -0.4300000   -0.1200000   1.095425e-03  1.218041e-06
     33     46   2   0.50000    -0.4300000    0.0600000   1.726228e-04  6.344822e-08
     33     47   2   0.50000    -0.4300000    0.0600000   1.726228e-04  6.344822e-08
     32     36   2   0.50000     0.5100000    0.5100000   2.443423e-03  6.794949e-06
     32     48   2   0.50000     0.5100000    0.0600000   2.482000e-04  1.854991e-07
     32     49   2   0.50000     0.5100000    0.0600000   2.482000e-04  1.854991e-07
     46     36   2   0.50000     0.0600000    0.5100000   2.482000e-04  1.854991e-07
     46     48   2   0.50000     0.0600000    0.0600000   2.521187e-05  5.064042e-09
     46     49   2   0.50000     0.0600000    0.0600000   2.521187e-05  5.064042e-09
     47     36   2   0.50000     0.0600000    0.5100000   2.482000e-04  1.854991e-07
     47     48   2   0.50000     0.0600000    0.0600000   2.521187e-05  5.064042e-09
     47     49   2   0.50000     0.0600000    0.0600000   2.521187e-05  5.064042e-09
     34     37   2   0.50000    -0.1200000   -0.4300000   1.095425e-03  1.218041e-06
     34     50   2   0.50000    -0.1200000   -0.3300000   1.026091e-03  1.187829e-06
     48     37   2   0.50000     0.0600000   -0.4300000   1.726228e-04  6.344822e-08
     48     50   2   0.50000     0.0600000   -0.3300000   1.616969e-04  6.187447e-08
     49     37   2   0.50000     0.0600000   -0.4300000   1.726228e-04  6.344822e-08
     49     50   2   0.50000     0.0600000   -0.3300000   1.616969e-04  6.187447e-08
     35     51   2   0.50000    -0.1200000    0.1900000   1.015252e-03  1.866303e-06
     37     51   2   0.50000    -0.4300000    0.1900000   1.095425e-03  1.218041e-06
     36     52   2   0.50000     0.5100000   -0.1200000   1.575021e-03  3.561100e-06
     36     62   2   0.50000     0.5100000    0.0300000   2.482000e-04  1.854991e-07
     36     63   2   0.50000     0.5100000    0.0300000   2.482000e-04  1.854991e-07
     50     53   2   0.50000    -0.3300000   -0.1200000   1.026091e-03  1.187829e-06
     50     64   2   0.50000    -0.3300000    0.0600000   2.521103e-04  1.063590e-07
     50     65   2   0.50000    -0.3300000    0.0600000   2.521103e-04  1.063590e-07
     62     53   2   0.50000     0.0300000   -0.1200000   1.599888e-04  9.721644e-08
     62     64   2   0.50000     0.0300000    0.0600000   3.930919e-05  8.704828e-09
     62     65   2   0.50000     0.0300000    0.0600000   3.930919e-05  8.704828e-09
     63     53   2   0.50000     0.0300000   -0.1200000   1.599888e-04  9.721644e-08
     63     64   2   0.50000     0.0300000    0.0600000   3.930919e-05  8.704828e-09
     63     65   2   0.50000     0.0300000    0.0600000   3.930919e-05  8.704828e-09
     51     54   2   0.50000     0.1900000    0.1900000   1.015252e-03  1.866303e-06
     51     66   2   0.50000     0.1900000    0.0600000   2.494471e-04  1.671101e-07
     51     67   2   0.50000     0.1900000    0.0600000   2.494471e-04  1.671101e-07
     64     54   2   0.50000     0.0600000    0.1900000   2.494471e-04  1.671101e-07
     64     66   2   0.50000     0.0600000    0.0600000   6.128906e-05  1.496315e-08
     64     67   2   0.50000     0.0600000    0.0600000   6.128906e-05  1.496315e-08
     65     54   2   0.50000     0.0600000    0.1900000   2.494471e-04  1.671101e-07
     65     66   2   0.50000     0.0600000    0.0600000   6.128906e-05  1.496315e-08
     65     67   2   0.50000     0.0600000    0.0600000   6.128906e-05  1.496315e-08
     52     55   2   0.50000    -0.1200000   -0.3300000   1.026091e-03  1.187829e-06
     52     68   2   0.50000    -0.1200000    0.0300000   1.599888e-04  9.721644e-08
     52     69   2   0.50000    -0.1200000    0.0300000   1.599888e-04  9.721644e-08
     66     55   2   0.50000     0.0600000   -0.3300000   2.521103e-04  1.063590e-07
     66     68   2   0.50000     0.0600000    0.0300000   3.930919e-05  8.704828e-09
     66     69   2   0.50000     0.0600000    0.0300000   3.930919e-05  8.704828e-09
     67     55   2   0.50000     0.0600000   -0.3300000   2.521103e-04  1.063590e-07
     67     68   2   0.50000     0.0600000    0.0300000   3.930919e-05  8.704828e-09
     67     69   2   0.50000     0.0600000    0.0300000   3.930919e-05  8.704828e-09
     53     56   2   0.50000    -0.1200000    0.5100000   1.575021e-03  3.561100e-06
     68     56   2   0.50000     0.0300000    0.5100000   2.482000e-04  1.854991e-07
     69     56   2   0.50000     0.0300000    0.5100000   2.482000e-04  1.854991e-07
     54     57   2   0.50000     0.1900000   -0.4300000   1.095425e-03  1.218041e-06
     54     58   2   0.50000     0.1900000   -0.1200000   1.015252e-03  1.866303e-06
     55     59   2   0.50000    -0.3300000   -0.1200000   1.026091e-03  1.187829e-06
     55     70   2   0.50000    -0.3300000    0.0600000   1.616969e-04  6.187447e-08
     55     71   2   0.50000    -0.3300000    0.0600000   1.616969e-04  6.187447e-08
     57     59   2   0.50000    -0.4300000   -0.1200000   1.095425e-03  1.218041e-06
     57     70   2   0.50000    -0.4300000    0.0600000   1.726228e-04  6.344822e-08
     57     71   2   0.50000    -0.4300000    0.0600000   1.726228e-04  6.344822e-08
     56     60   2   0.50000     0.5100000    0.5100000   2.443423e-03  6.794949e-06
     56     72   2   0.50000     0.5100000    0.0600000   2.482000e-04  1.854991e-07
     56     73   2   0.50000     0.5100000    0.0600000   2.482000e-04  1.854991e-07
     70     60   2   0.50000     0.0600000    0.5100000   2.482000e-04  1.854991e-07
     70     72   2   0.50000     0.0600000    0.0600000   2.521187e-05  5.064042e-09
     70     73   2   0.50000     0.0600000    0.0600000   2.521187e-05  5.064042e-09
     71     60   2   0.50000     0.0600000    0.5100000   2.482000e-04  1.854991e-07
     71     72   2   0.50000     0.0600000    0.0600000   2.521187e-05  5.064042e-09
     71     73   2   0.50000     0.0600000    0.0600000   2.521187e-05  5.064042e-09
     58     61   2   0.50000    -0.1200000   -0.4300000   1.095425e-03  1.218041e-06
     58     74   2   0.50000    -0.1200000   -0.3300000   1.026091e-03  1.187829e-06
     72     61   2   0.50000     0.0600000   -0.4300000   1.726228e-04  6.344822e-08
     72     74   2   0.50000     0.0600000   -0.3300000   1.616969e-04  6.187447e-08
     73     61   2   0.50000     0.0600000   -0.4300000   1.726228e-04  6.344822e-08
     73     74   2   0.50000     0.0600000   -0.3300000   1.616969e-04  6.187447e-08
     59     75   2   0.50000    -0.1200000    0.1900000   1.015252e-03  1.866303e-06
     61     75   2   0.50000    -0.4300000    0.1900000   1.095425e-03  1.218041e-06
     60     76   2   0.50000     0.5100000   -0.1200000   1.575021e-03  3.561100e-06
     60     86   2   0.50000     0.5100000    0.0300000   2.482000e-04  1.854991e-07
     60     87   2   0.50000     0.5100000    0.0300000   2.482000e-04  1.854991e-07
     74     77   2   0.50000    -0.3300000   -0.1200000   1.026091e-03  1.187829e-06
     74     88   2   0.50000    -0.3300000    0.0600000   2.521103e-04  1.063590e-07
     74     89   2   0.50000    -0.3300000    0.0600000   2.521103e-04  1.063590e-07
     86     77   2   0.50000     0.0300000   -0.1200000   1.599888e-04  9.721644e-08
     86     88   2   0.50000     0.0300000    0.0600000   3.930919e-05  8.704828e-09
     86     89   2   0.50000     0.0300000    0.0600000   3.930919e-05  8.704828e-09
     87     77   2   0.50000     0.0300000   -0.1200000   1.599888e-04  9.721644e-08
     87     88   2   0.50000     0.0300000    0.0600000   3.930919e-05  8.704828e-09
     87     89   2   0.50000     0.0300000    0.0600000   3.930919e-05  8.704828e-09
     75     78   2   0.50000     0.1900000    0.1900000   1.015252e-03  1.866303e-06
     75     90   2   0.50000     0.1900000    0.0600000   2.494471e-04  1.671101e-07
     75     91   2   0.50000     0.1900000    0.0600000   2.494471e-04  1.671101e-07
     88     78   2   0.50000     0.0600000    0.1900000   2.494471e-04  1.671101e-07
     88     90   2   0.50000     0.0600000    0.0600000   6.128906e-05  1.496315e-08
     88     91   2   0.50000     0.0600000    0.0600000   6.128906e-05  1.496315e-08
     89     78   2   0.50000     0.0600000    0.1900000   2.494471e-04  1.671101e-07
     89     90   2   0.50000     0.0600000    0.0600000   6.128906e-05  1.496315e-08
     89     91   2   0.50000     0.0600000    0.0600000   6.128906e-05  1.496315e-08
     76     79   2   0.50000    -0.1200000   -0.3300000   1.026091e-03  1.187829e-06
     76     92   2   0.50000    -0.1200000    0.0300000   1.599888e-04  9.721644e-08
     76     93   2   0.50000    -0.1200000    0.0300000   1.599888e-04  9.721644e-08
     90     79   2   0.50000     0.0600000   -0.3300000   2.521103e-04  1.063590e-07
     90     92   2   0.50000     0.0600000    0.0300000   3.930919e-05  8.704828e-09
     90     93   2   0.50000     0.0600000    0.0300000   3.930919e-05  8.704828e-09
     91     79   2   0.50000     0.0600000   -0.3300000   2.521103e-04  1.063590e-07
     91     92   2   0.50000     0.0600000    0.0300000   3.930919e-05  8.704828e-09
     91     93   2   0.50000     0.0600000    0.0300000   3.930919e-05  8.704828e-09
     77     80   2   0.50000    -0.1200000    0.5100000   1.575021e-03  3.561100e-06
     92     80   2   0.50000     0.0300000    0.5100000   2.482000e-04  1.854991e-07
     93     80   2   0.50000     0.0300000    0.5100000   2.482000e-04  1.854991e-07
     78     81   2   0.50000     0.1900000   -0.4300000   1.095425e-03  1.218041e-06
     78     82   2   0.50000     0.1900000   -0.1200000   1.015252e-03  1.866303e-06
     79     83   2   0.50000    -0.3300000   -0.1200000   1.026091e-03  1.187829e-06
     79     94   2   0.50000    -0.3300000    0.0600000   1.616969e-04  6.187447e-08
     79     95   2   0.50000    -0.3300000    0.0600000   1.616969e-04  6.187447e-08
     81     83   2   0.50000    -0.4300000   -0.1200000   1.095425e-03  1.218041e-06
     81     94   2   0.50000    -0.4300000    0.0600000   1.726228e-04  6.344822e-08
     81     95   2   0.50000    -0.4300000    0.0600000   1.726228e-04  6.344822e-08
     80     84   2   0.50000     0.5100000    0.5100000   2.443423e-03  6.794949e-06
     80     96   2   0.50000     0.5100000    0.0600000   2.482000e-04  1.854991e-07
     80     97   2   0.50000     0.5100000    0.0600000   2.482000e-04  1.854991e-07
     94     84   2   0.50000     0.0600000    0.5100000   2.482000e-04  1.854991e-07
     94     96   2   0.50000     0.0600000    0.0600000   2.521187e-05  5.064042e-09
     94     97   2   0.50000     0.0600000    0.0600000   2.521187e-05  5.064042e-09
     95     84   2   0.50000     0.0600000    0.5100000   2.482000e-04  1.854991e-07
     95     96   2   0.50000     0.0600000    0.0600000   2.521187e-05  5.064042e-09
     95     97   2   0.50000     0.0600000    0.0600000   2.521187e-05  5.064042e-09
     82     85   2   0.50000    -0.1200000   -0.4300000   1.095425e-03  1.218041e-06
     82     98   2   0.50000    -0.1200000   -0.3300000   1.026091e-03  1.187829e-06
     96     85   2   0.50000     0.0600000   -0.4300000   1.726228e-04  6.344822e-08
     96     98   2   0.50000     0.0600000   -0.3300000   1.616969e-04  6.187447e-08
     97     85   2   0.50000     0.0600000   -0.4300000   1.726228e-04  6.344822e-08
     97     98   2   0.50000     0.0600000   -0.3300000   1.616969e-04  6.187447e-08
     83     99   2   0.50000    -0.1200000    0.1900000   1.015252e-03  1.866303e-06
     85     99   2   0.50000    -0.4300000    0.1900000   1.095425e-03  1.218041e-06
     84    100   2   0.50000     0.5100000   -0.1200000   1.575021e-03  3.561100e-06
     84    110   2   0.50000     0.5100000    0.0300000   2.482000e-04  1.854991e-07
     84    111   2   0.50000     0.5100000    0.0300000   2.482000e-04  1.854991e-07
     98    101   2   0.50000    -0.3300000   -0.1200000   1.026091e-03  1.187829e-06
     98    112   2   0.50000    -0.3300000    0.0600000   2.521103e-04  1.063590e-07
     98    113   2   0.50000    -0.3300000    0.0600000   2.521103e-04  1.063590e-07
    110    101   2   0.50000     0.0300000   -0.1200000   1.599888e-04  9.721644e-08
    110    112   2   0.50000     0.0300000    0.0600000   3.930919e-05  8.704828e-09
    110    113   2   0.50000     0.0300000    0.0600000   3.930919e-05  8.704828e-09
    111    101   2   0.50000     0.0300000   -0.1200000   1.599888e-04  9.721644e-08
    111    112   2   0.50000     0.0300000    0.0600000   3.930919e-05  8.704828e-09
    111    113   2   0.50000     0.0300000    0.0600000   3.930919e-05  8.704828e-09
     99    102   2   0.50000     0.1900000    0.1900000   1.015252e-03  1.866303e-06
     99    114   2   0.50000     0.1900000    0.0600000   2.494471e-04  1.671101e-07
     99    115   2   0.50000     0.1900000    0.0600000   2.494471e-04  1.671101e-07
    112    102   2   0.50000     0.0600000    0.1900000   2.494471e-04  1.671101e-07
    112    114   2   0.50000     0.0600000    0.0600000   6.128906e-05  1.496315e-08
    112    115   2   0.50000     0.0600000    0.0600000   6.128906e-05  1.496315e-08
    113    102   2   0.50000     0.0600000    0.1900000   2.494471e-04  1.671101e-07
    113    114   2   0.50000     0.0600000    0.0600000   6.128906e-05  1.496315e-08
    113    115   2   0.50000     0.0600000    0.0600000   6.128906e-05  1.496315e-08
    100    103   2   0.50000    -0.1200000   -0.3300000   1.026091e-03  1.187829e-06
    100    116   2   0.50000    -0.1200000    0.0300000   1.599888e-04  9.721644e-08
    100    117   2   0.50000    -0.1200000    0.0300000   1.599888e-04  9.721644e-08
    114    103   2   0.50000     0.0600000   -0.3300000   2.521103e-04  1.063590e-07
    114    116   2   0.50000     0.0600000    0.0300000   3.930919e-05  8.704828e-09
    114    117   2   0.50000     0.0600000    0.0300000   3.930919e-05  8.704828e-09
    115    103   2   0.50000     0.0600000   -0.3300000   2.521103e-04  1.063590e-07
    115    116   2   0.50000     0.0600000    0.0300000   3.930919e-05  8.704828e-09
    115    117   2   0.50000     0.0600000    0.0300000   3.930919e-05  8.704828e-09
    101    104   2   0.50000    -0.1200000    0.5100000   1.575021e-03  3.561100e-06
    116    104   2   0.50000     0.0300000    0.5100000   2.482000e-04  1.854991e-07
    117    104   2   0.50000     0.0300000    0.5100000   2.482000e-04  1.854991e-07
    102    105   2   0.50000     0.1900000   -0.4300000   1.095425e-03  1.218041e-06
    102    106   2   0.50000     0.1900000   -0.1200000   1.015252e-03  1.866303e-06
    103    107   2   0.50000    -0.3300000   -0.1200000   1.026091e-03  1.187829e-06
    103    118   2   0.50000    -0.3300000    0.0600000   1.616969e-04  6.187447e-08
    103    119   2   0.50000    -0.3300000    0.0600000   1.616969e-04  6.187447e-08
    105    107   2   0.50000    -0.4300000   -0.1200000   1.095425e-03  1.218041e-06
    105    118   2   0.50000    -0.4300000    0.0600000   1.726228e-04  6.344822e-08
    105    119   2   0.50000    -0.4300000    0.0600000   1.726228e-04  6.344822e-08
    104    108   2   0.50000     0.5100000    0.5100000   2.443423e-03  6.794949e-06
    104    120   2   0.50000     0.5100000    0.0600000   2.482000e-04  1.854991e-07
    104    121   2   0.50000     0.5100000    0.0600000   2.482000e-04  1.854991e-07
    118    108   2   0.50000     0.0600000    0.5100000   2.482000e-04  1.854991e-07
    118    120   2   0.50000     0.0600000    0.0600000   2.521187e-05  5.064042e-09
    118    121   2   0.50000     0.0600000    0.0600000   2.521187e-05  5.064042e-09
    119    108   2   0.50000     0.0600000    0.5100000   2.482000e-04  1.854991e-07
    119    120   2   0.50000     0.0600000    0.0600000   2.521187e-05  5.064042e-09
    119    121   2   0.50000     0.0600000    0.0600000   2.521187e-05  5.064042e-09
    106    109   2   0.50000    -0.1200000   -0.4300000   1.095425e-03  1.218041e-06
    106    122   2   0.50000    -0.1200000   -0.3300000   1.026091e-03  1.187829e-06
    120    109   2   0.50000     0.0600000   -0.4300000   1.726228e-04  6.344822e-08
    120    122   2   0.50000     0.0600000   -0.3300000   1.616969e-04  6.187447e-08
    121    109   2   0.50000     0.0600000   -0.4300000   1.726228e-04  6.344822e-08
    121    122   2   0.50000     0.0600000   -0.3300000   1.616969e-04  6.187447e-08
    107    123   2   0.50000    -0.1200000    0.1900000   1.015252e-03  1.866303e-06
    109    123   2   0.50000    -0.4300000    0.1900000   1.095425e-03  1.218041e-06
    108    124   2   0.50000     0.5100000   -0.1200000   1.575021e-03  3.561100e-06
    108    134   2   0.50000     0.5100000    0.0300000   2.482000e-04  1.854991e-07
    108    135   2   0.50000     0.5100000    0.0300000   2.482000e-04  1.854991e-07
    122    125   2   0.50000    -0.3300000   -0.1200000   1.026091e-03  1.187829e-06
    122    136   2   0.50000    -0.3300000    0.0600000   2.521103e-04  1.063590e-07
    122    137   2   0.50000    -0.3300000    0.0600000   2.521103e-04  1.063590e-07
    134    125   2   0.50000     0.0300000   -0.1200000   1.599888e-04  9.721644e-08
    134    136   2   0.50000     0.0300000    0.0600000   3.930919e-05  8.704828e-09
    134    137   2   0.50000     0.0300000    0.0600000   3.930919e-05  8.704828e-09
    135    125   2   0.50000     0.0300000   -0.1200000   1.599888e-04  9.721644e-08
    135    136   2   0.50000     0.0300000    0.0600000   3.930919e-05  8.704828e-09
    135    137   2   0.50000     0.0300000    0.0600000   3.930919e-05  8.704828e-09
    123    126   2   0.50000     0.1900000    0.1900000   1.015252e-03  1.866303e-06
    123    138   2   0.50000     0.1900000    0.0600000   2.494471e-04  1.671101e-07
    123    139   2   0.50000     0.1900000    0.0600000   2.494471e-04  1.671101e-07
    136    126   2   0.50000     0.0600000    0.1900000   2.494471e-04  1.671101e-07
    136    138   2   0.50000     0.0600000    0.0600000   6.128906e-05  1.496315e-08
    136    139   2   0.50000     0.0600000    0.0600000   6.128906e-05  1.496315e-08
    137    126   2   0.50000     0.0600000    0.1900000   2.494471e-04  1.671101e-07
    137    138   2   0.50000     0.0600000    0.0600000   6.128906e-05  1.496315e-08
    137    139   2   0.50000     0.0600000    0.0600000   6.128906e-05  1.496315e-08
    124    127   2   0.50000    -0.1200000   -0.3300000   1.026091e-03  1.187829e-06
    124    140   2   0.50000    -0.1200000    0.0300000   1.599888e-04  9.721644e-08
    124    141   2   0.50000    -0.1200000    0.0300000   1.599888e-04  9.721644e-08
    138    127   2   0.50000     0.0600000   -0.3300000   2.521103e-04  1.063590e-07
    138    140   2   0.50000     0.0600000    0.0300000   3.930919e-05  8.704828e-09
    138    141   2   0.50000     0.0600000    0.0300000   3.930919e-05  8.704828e-09
    139    127   2   0.50000     0.0600000   -0.3300000   2.521103e-04  1.063590e-07
    139    140   2   0.50000     0.0600000    0.0300000   3.930919e-05  8.704828e-09
    139    141   2   0.50000     0.0600000    0.0300000   3.930919e-05  8.704828e-09
    125    128   2   0.50000    -0.1200000    0.5100000   1.575021e-03  3.561100e-06
    140    128   2   0.50000     0.0300000    0.5100000   2.482000e-04  1.854991e-07
    141    128   2   0.50000     0.0300000    0.5100000   2.482000e-04  1.854991e-07
    126    129   2   0.50000     0.1900000   -0.4300000   1.095425e-03  1.218041e-06
    126    130   2   0.50000     0.1900000   -0.1200000   1.015252e-03  1.866303e-06
    127    131   2   0.50000    -0.3300000   -0.1200000   1.026091e-03  1.187829e-06
    127    142   2   0.50000    -0.3300000    0.0600000   1.616969e-04  6.187447e-08
    127    143   2   0.50000    -0.3300000    0.0600000   1.616969e-04  6.187447e-08
    129    131   2   0.50000    -0.4300000   -0.1200000   1.095425e-03  1.218041e-06
    129    142   2   0.50000    -0.4300000    0.0600000   1.726228e-04  6.344822e-08
    129    143   2   0.50000    -0.4300000    0.0600000   1.726228e-04  6.344822e-08
    128    132   2   0.50000     0.5100000    0.5100000   2.443423e-03  6.794949e-06
    128    144   2   0.50000     0.5100000    0.0600000   2.482000e-04  1.854991e-07
    128    145   2   0.50000     0.5100000    0.0600000   2.482000e-04  1.854991e-07
    142    132   2   0.50000     0.0600000    0.5100000   2.482000e-04  1.854991e-07
    142    144   2   0.50000     0.0600000    0.0600000   2.521187e-05  5.064042e-09
    142    145   2   0.50000     0.0600000    0.0600000   2.521187e-05  5.064042e-09
    143    132   2   0.50000     0.0600000    0.5100000   2.482000e-04  1.854991e-07
    143    144   2   0.50000     0.0600000    0.0600000   2.521187e-05  5.064042e-09
    143    145   2   0.50000     0.0600000    0.0600000   2.521187e-05  5.064042e-09
    130    133   2   0.50000    -0.1200000   -0.4300000   1.095425e-03  1.218041e-06
    130    146   2   0.50000    -0.1200000   -0.3300000   1.026091e-03  1.187829e-06
    144    133   2   0.50000     0.0600000   -0.4300000   1.726228e-04  6.344822e-08
    144    146   2   0.50000     0.0600000   -0.3300000   1.616969e-04  6.187447e-08
    145    133   2   0.50000     0.0600000   -0.4300000   1.726228e-04  6.344822e-08
    145    146   2   0.50000     0.0600000   -0.3300000   1.616969e-04  6.187447e-08
    131    147   2   0.50000    -0.1200000    0.1900000   1.015252e-03  1.866303e-06
    133    147   2   0.50000    -0.4300000    0.1900000   1.095425e-03  1.218041e-06
    132    148   2   0.50000     0.5100000   -0.1200000   1.575021e-03  3.561100e-06
    132    158   2   0.50000     0.5100000    0.0300000   2.482000e-04  1.854991e-07
    132    159   2   0.50000     0.5100000    0.0300000   2.482000e-04  1.854991e-07
    146    149   2   0.50000    -0.3300000   -0.1200000   1.026091e-03  1.187829e-06
    146    160   2   0.50000    -0.3300000    0.0600000   2.521103e-04  1.063590e-07
    146    161   2   0.50000    -0.3300000    0.0600000   2.521103e-04  1.063590e-07
    158    149   2   0.50000     0.0300000   -0.1200000   1.599888e-04  9.721644e-08
    158    160   2   0.50000     0.0300000    0.0600000   3.930919e-05  8.704828e-09
    158    161   2   0.50000     0.0300000    0.0600000   3.930919e-05  8.704828e-09
    159    149   2   0.50000     0.0300000   -0.1200000   1.599888e-04  9.721644e-08
    159    160   2   0.50000     0.0300000    0.0600000   3.930919e-05  8.704828e-09
    159    161   2   0.50000     0.0300000    0.0600000   3.930919e-05  8.704828e-09
    147    150   2   0.50000     0.1900000    0.1900000   1.015252e-03  1.866303e-06
    147    162   2   0.50000     0.1900000    0.0600000   2.494471e-04  1.671101e-07
    147    163   2   0.50000     0.1900000    0.0600000   2.494471e-04  1.671101e-07
    160    150   2   0.50000     0.0600000    0.1900000   2.494471e-04  1.671101e-07
    160    162   2   0.50000     0.0600000    0.0600000   6.128906e-05  1.496315e-08
    160    163   2   0.50000     0.0600000    0.0600000   6.128906e-05  1.496315e-08
    161    150   2   0.50000     0.0600000    0.1900000   2.494471e-04  1.671101e-07
    161    162   2   0.50000     0.0600000    0.0600000   6.128906e-05  1.496315e-08
    161    163   2   0.50000     0.0600000    0.0600000   6.128906e-05  1.496315e-08
    148    151   2   0.50000    -0.1200000   -0.3300000   1.026091e-03  1.187829e-06
    148    164   2   0.50000    -0.1200000    0.0300000   1.599888e-04  9.721644e-08
    148    165   2   0.50000    -0.1200000    0.0300000   1.599888e-04  9.721644e-08
    162    151   2   0.50000     0.0600000   -0.3300000   2.521103e-04  1.063590e-07
    162    164   2   0.50000     0.0600000    0.0300000   3.930919e-05  8.704828e-09
    162    165   2   0.50000     0.0600000    0.0300000   3.930919e-05  8.704828e-09
    163    151   2   0.50000     0.0600000   -0.3300000   2.521103e-04  1.063590e-07
    163    164   2   0.50000     0.0600000    0.0300000   3.930919e-05  8.704828e-09
    163    165   2   0.50000     0.0600000    0.0300000   3.930919e-05  8.704828e-09
    149    152   2   0.50000    -0.1200000    0.5100000   1.575021e-03  3.561100e-06
    164    152   2   0.50000     0.0300000    0.5100000   2.482000e-04  1.854991e-07
    165    152   2   0.50000     0.0300000    0.5100000   2.482000e-04  1.854991e-07
    150    153   2   0.50000     0.1900000   -0.4300000   1.095425e-03  1.218041e-06
    150    154   2   0.50000     0.1900000   -0.1200000   1.015252e-03  1.866303e-06
    151    155   2   0.50000    -0.3300000   -0.1200000   1.026091e-03  1.187829e-06
    151    166   2   0.50000    -0.3300000    0.0600000   1.616969e-04  6.187447e-08
    151    167   2   0.50000    -0.3300000    0.0600000   1.616969e-04  6.187447e-08
    153    155   2   0.50000    -0.4300000   -0.1200000   1.095425e-03  1.218041e-06
    153    166   2   0.50000    -0.4300000    0.0600000   1.726228e-04  6.344822e-08
    153    167   2   0.50000    -0.4300000    0.0600000   1.726228e-04  6.344822e-08
    152    156   2   0.50000     0.5100000    0.5100000   2.443423e-03  6.794949e-06
    152    168   2   0.50000     0.5100000    0.0600000   2.482000e-04  1.854991e-07
    152    169   2   0.50000     0.5100000    0.0600000   2.482000e-04  1.854991e-07
    166    156   2   0.50000     0.0600000    0.5100000   2.482000e-04  1.854991e-07
    166    168   2   0.50000     0.0600000    0.0600000   2.521187e-05  5.064042e-09
    166    169   2   0.50000     0.0600000    0.0600000   2.521187e-05  5.064042e-09
    167    156   2   0.50000     0.0600000    0.5100000   2.482000e-04  1.854991e-07
    167    168   2   0.50000     0.0600000    0.0600000   2.521187e-05  5.064042e-09
    167    169   2   0.50000     0.0600000    0.0600000   2.521187e-05  5.064042e-09
    154    157   2   0.50000    -0.1200000   -0.4300000   1.095425e-03  1.218041e-06
    154    170   2   0.50000    -0.1200000   -0.3300000   1.026091e-03  1.187829e-06
    168    157   2   0.50000     0.0600000   -0.4300000   1.726228e-04  6.344822e-08
    168    170   2   0.50000     0.0600000   -0.3300000   1.616969e-04  6.187447e-08
    169    157   2   0.50000     0.0600000   -0.4300000   1.726228e-04  6.344822e-08
    169    170   2   0.50000     0.0600000   -0.3300000   1.616969e-04  6.187447e-08
    155    171   2   0.50000    -0.1200000    0.1900000   1.015252e-03  1.866303e-06
    157    171   2   0.50000    -0.4300000    0.1900000   1.095425e-03  1.218041e-06
    156    172   2   0.50000     0.5100000   -0.1200000   1.575021e-03  3.561100e-06
    156    182   2   0.50000     0.5100000    0.0300000   2.482000e-04  1.854991e-07
    156    183   2   0.50000     0.5100000    0.0300000   2.482000e-04  1.854991e-07
    170    173   2   0.50000    -0.3300000   -0.1200000   1.026091e-03  1.187829e-06
    170    184   2   0.50000    -0.3300000    0.0600000   2.521103e-04  1.063590e-07
    170    185   2   0.50000    -0.3300000    0.0600000   2.521103e-04  1.063590e-07
    182    173   2   0.50000     0.0300000   -0.1200000   1.599888e-04  9.721644e-08
    182    184   2   0.50000     0.0300000    0.0600000   3.930919e-05  8.704828e-09
    182    185   2   0.50000     0.0300000    0.0600000   3.930919e-05  8.704828e-09
    183    173   2   0.50000     0.0300000   -0.1200000   1.599888e-04  9.721644e-08
    183    184   2   0.50000     0.0300000    0.0600000   3.930919e-05  8.704828e-09
    183    185   2   0.50000     0.0300000    0.0600000   3.930919e-05  8.704828e-09
    171    174   2   0.50000     0.1900000    0.1900000   1.015252e-03  1.866303e-06
    171    186   2   0.50000     0.1900000    0.0600000   2.494471e-04  1.671101e-07
    171    187   2   0.50000     0.1900000    0.0600000   2.494471e-04  1.671101e-07
    184    174   2   0.50000     0.0600000    0.1900000   2.494471e-04  1.671101e-07
    184    186   2   0.50000     0.0600000    0.0600000   6.128906e-05  1.496315e-08
    184    187   2   0.50000     0.0600000    0.0600000   6.128906e-05  1.496315e-08
    185    174   2   0.50000     0.0600000    0.1900000   2.494471e-04  1.671101e-07
    185    186   2   0.50000     0.0600000    0.0600000   6.128906e-05  1.496315e-08
    185    187   2   0.50000     0.0600000    0.0600000   6.128906e-05  1.496315e-08
    172    175   2   0.50000    -0.1200000   -0.3300000   1.026091e-03  1.187829e-06
    172    188   2   0.50000    -0.1200000    0.0300000   1.599888e-04  9.721644e-08
    172    189   2   0.50000    -0.1200000    0.0300000   1.599888e-04  9.721644e-08
    186    175   2   0.50000     0.0600000   -0.3300000   2.521103e-04  1.063590e-07
    186    188   2   0.50000     0.0600000    0.0300000   3.930919e-05  8.704828e-09
    186    189   2   0.50000     0.0600000    0.0300000   3.930919e-05  8.704828e-09
    187    175   2   0.50000     0.0600000   -0.3300000   2.521103e-04  1.063590e-07
    187    188   2   0.50000     0.0600000    0.0300000   3.930919e-05  8.704828e-09
    187    189   2   0.50000     0.0600000    0.0300000   3.930919e-05  8.704828e-09
    173    176   2   0.50000    -0.1200000    0.5100000   1.575021e-03  3.561100e-06
    188    176   2   0.50000     0.0300000    0.5100000   2.482000e-04  1.854991e-07
    189    176   2   0.50000     0.0300000    0.5100000   2.482000e-04  1.854991e-07
    174    177   2   0.50000     0.1900000   -0.4300000   1.095425e-03  1.218041e-06
    174    178   2   0.50000     0.1900000   -0.1200000   1.015252e-03  1.866303e-06
    175    179   2   0.50000    -0.3300000   -0.1200000   1.026091e-03  1.187829e-06
    175    190   2   0.50000    -0.3300000    0.0600000   1.616969e-04  6.187447e-08
    175    191   2   0.50000    -0.3300000    0.0600000   1.616969e-04  6.187447e-08
    177    179   2   0.50000    -0.4300000   -0.1200000   1.095425e-03  1.218041e-06
    177    190   2   0.50000    -0.4300000    0.0600000   1.726228e-04  6.344822e-08
    177    191   2   0.50000    -0.4300000    0.0600000   1.726228e-04  6.344822e-08
    176    180   2   0.50000     0.5100000    0.5100000   2.443423e-03  6.794949e-06
    176    192   2   0.50000     0.5100000    0.0600000   2.482000e-04  1.854991e-07
    176    193   2   0.50000     0.5100000    0.0600000   2.482000e-04  1.854991e-07
    190    180   2   0.50000     0.0600000    0.5100000   2.482000e-04  1.854991e-07
    190    192   2   0.50000     0.0600000    0.0600000   2.521187e-05  5.064042e-09
    190    193   2   0.50000     0.0600000    0.0600000   2.521187e-05  5.064042e-09
    191    180   2   0.50000     0.0600000    0.5100000   2.482000e-04  1.854991e-07
    191    192   2   0.50000     0.0600000    0.0600000   2.521187e-05  5.064042e-09
    191    193   2   0.50000     0.0600000    0.0600000   2.521187e-05  5.064042e-09
    178    181   2   0.50000    -0.1200000   -0.4300000   1.095425e-03  1.218041e-06
    178    194   2   0.50000    -0.1200000   -0.3300000   1.026091e-03  1.187829e-06
    192    181   2   0.50000     0.0600000   -0.4300000   1.726228e-04  6.344822e-08
    192    194   2   0.50000     0.0600000   -0.3300000   1.616969e-04  6.187447e-08
    193    181   2   0.50000     0.0600000   -0.4300000   1.726228e-04  6.344822e-08
    193    194   2   0.50000     0.0600000   -0.3300000   1.616969e-04  6.187447e-08
    179    195   2   0.50000    -0.1200000    0.1900000   1.015252e-03  1.866303e-06
    181    195   2   0.50000    -0.4300000    0.1900000   1.095425e-03  1.218041e-06
    180    196   2   0.50000     0.5100000   -0.1200000   1.575021e-03  3.561100e-06
    180    206   2   0.50000     0.5100000    0.0300000   2.482000e-04  1.854991e-07
    180    207   2   0.50000     0.5100000    0.0300000   2.482000e-04  1.854991e-07
    194    197   2   0.50000    -0.3300000   -0.1200000   1.026091e-03  1.187829e-06
    194    208   2   0.50000    -0.3300000    0.0600000   2.521103e-04  1.063590e-07
    194    209   2   0.50000    -0.3300000    0.0600000   2.521103e-04  1.063590e-07
    206    197   2   0.50000     0.0300000   -0.1200000   1.599888e-04  9.721644e-08
    206    208   2   0.50000     0.0300000    0.0600000   3.930919e-05  8.704828e-09
    206    209   2   0.50000     0.0300000    0.0600000   3.930919e-05  8.704828e-09
    207    197   2   0.50000     0.0300000   -0.1200000   1.599888e-04  9.721644e-08
    207    208   2   0.50000     0.0300000    0.0600000   3.930919e-05  8.704828e-09
    207    209   2   0.50000     0.0300000    0.0600000   3.930919e-05  8.704828e-09
    195    198   2   0.50000     0.1900000    0.1900000   1.015252e-03  1.866303e-06
    195    210   2   0.50000     0.1900000    0.0600000   2.494471e-04  1.671101e-07
    195    211   2   0.50000     0.1900000    0.0600000   2.494471e-04  1.671101e-07
    208    198   2   0.50000     0.0600000    0.1900000   2.494471e-04  1.671101e-07
    208    210   2   0.50000     0.0600000    0.0600000   6.128906e-05  1.496315e-08
    208    211   2   0.50000     0.0600000    0.0600000   6.128906e-05  1.496315e-08
    209    198   2   0.50000     0.0600000    0.1900000   2.494471e-04  1.671101e-07
    209    210   2   0.50000     0.0600000    0.0600000   6.128906e-05  1.496315e-08
    209    211   2   0.50000     0.0600000    0.0600000   6.128906e-05  1.496315e-08
    196    199   2   0.50000    -0.1200000   -0.3300000   1.026091e-03  1.187829e-06
    196    212   2   0.50000    -0.1200000    0.0300000   1.599888e-04  9.721644e-08
    196    213   2   0.50000    -0.1200000    0.0300000   1.599888e-04  9.721644e-08
    210    199   2   0.50000     0.0600000   -0.3300000   2.521103e-04  1.063590e-07
    210    212   2   0.50000     0.0600000    0.0300000   3.930919e-05  8.704828e-09
    210    213   2   0.50000     0.0600000    0.0300000   3.930919e-05  8.704828e-09
    211    199   2   0.50000     0.0600000   -0.3300000   2.521103e-04  1.063590e-07
    211    212   2   0.50000     0.0600000    0.0300000   3.930919e-05  8.704828e-09
    211    213   2   0.50000     0.0600000    0.0300000   3.930919e-05  8.704828e-09
    197    200   2   0.50000    -0.1200000    0.5100000   1.575021e-03  3.561100e-06
    212    200   2   0.50000     0.0300000    0.5100000   2.482000e-04  1.854991e-07
    213    200   2   0.50000     0.0300000    0.5100000   2.482000e-04  1.854991e-07
    198    201   2   0.50000     0.1900000   -0.4300000   1.095425e-03  1.218041e-06
    198    202   2   0.50000     0.1900000   -0.1200000   1.015252e-03  1.866303e-06
    199    203   2   0.50000    -0.3300000   -0.1200000   1.026091e-03  1.187829e-06
    199    214   2   0.50000    -0.3300000    0.0600000   1.616969e-04  6.187447e-08
    199    215   2   0.50000    -0.3300000    0.0600000   1.616969e-04  6.187447e-08
    201    203   2   0.50000    -0.4300000   -0.1200000   1.095425e-03  1.218041e-06
    201    214   2   0.50000    -0.4300000    0.0600000   1.726228e-04  6.344822e-08
    201    215   2   0.50000    -0.4300000    0.0600000   1.726228e-04  6.344822e-08
    200    204   2   0.50000     0.5100000    0.5100000   2.443423e-03  6.794949e-06
    200    216   2   0.50000     0.5100000    0.0600000   2.482000e-04  1.854991e-07
    200    217   2   0.50000     0.5100000    0.0600000   2.482000e-04  1.854991e-07
    214    204   2   0.50000     0.0600000    0.5100000   2.482000e-04  1.854991e-07
    214    216   2   0.50000     0.0600000    0.0600000   2.521187e-05  5.064042e-09
    214    217   2   0.50000     0.0600000    0.0600000   2.521187e-05  5.064042e-09
    215    204   2   0.50000     0.0600000    0.5100000   2.482000e-04  1.854991e-07
    215    216   2   0.50000     0.0600000    0.0600000   2.521187e-05  5.064042e-09
    215    217   2   0.50000     0.0600000    0.0600000   2.521187e-05  5.064042e-09
    202    205   2   0.50000    -0.1200000   -0.4300000   1.095425e-03  1.218041e-06
    202    218   2   0.50000    -0.1200000   -0.3300000   1.026091e-03  1.187829e-06
    216    205   2   0.50000     0.0600000   -0.4300000   1.726228e-04  6.344822e-08
    216    218   2   0.50000     0.0600000   -0.3300000   1.616969e-04  6.187447e-08
    217    205   2   0.50000     0.0600000   -0.4300000   1.726228e-04  6.344822e-08
    217    218   2   0.50000     0.0600000   -0.3300000   1.616969e-04  6.187447e-08
    203    219   2   0.50000    -0.1200000    0.1900000   1.015252e-03  1.866303e-06
    205    219   2   0.50000    -0.4300000    0.1900000   1.095425e-03  1.218041e-06
    204    220   2   0.50000     0.5100000   -0.1200000   1.575021e-03  3.561100e-06
    204    230   2   0.50000     0.5100000    0.0300000   2.482000e-04  1.854991e-07
    204    231   2   0.50000     0.5100000    0.0300000   2.482000e-04  1.854991e-07
    218    221   2   0.50000    -0.3300000   -0.1200000   1.026091e-03  1.187829e-06
    218    232   2   0.50000    -0.3300000    0.0600000   2.521103e-04  1.063590e-07
    218    233   2   0.50000    -0.3300000    0.0600000   2.521103e-04  1.063590e-07
    230    221   2   0.50000     0.0300000   -0.1200000   1.599888e-04  9.721644e-08
    230    232   2   0.50000     0.0300000    0.0600000   3.930919e-05  8.704828e-09
    230    233   2   0.50000     0.0300000    0.0600000   3.930919e-05  8.704828e-09
    231    221   2   0.50000     0.0300000   -0.1200000   1.599888e-04  9.721644e-08
    231    232   2   0.50000     0.0300000    0.0600000   3.930919e-05  8.704828e-09
    231    233   2   0.50000     0.0300000    0.0600000   3.930919e-05  8.704828e-09
    219    222   2   0.50000     0.1900000    0.1900000   1.015252e-03  1.866303e-06
    219    234   2   0.50000     0.1900000    0.0600000   2.494471e-04  1.671101e-07
    219    235   2   0.50000     0.1900000    0.0600000   2.494471e-04  1.671101e-07
    232    222   2   0.50000     0.0600000    0.1900000   2.494471e-04  1.671101e-07
    232    234   2   0.50000     0.0600000    0.0600000   6.128906e-05  1.496315e-08
    232    235   2   0.50000     0.0600000    0.0600000   6.128906e-05  1.496315e-08
    233    222   2   0.50000     0.0600000    0.1900000   2.494471e-04  1.671101e-07
    233    234   2   0.50000     0.0600000    0.0600000   6.128906e-05  1.496315e-08
    233    235   2   0.50000     0.0600000    0.0600000   6.128906e-05  1.496315e-08
    220    223   2   0.50000    -0.1200000   -0.3300000   1.026091e-03  1.187829e-06
    220    236   2   0.50000    -0.1200000    0.0300000   1.599888e-04  9.721644e-08
    220    237   2   0.50000    -0.1200000    0.0300000   1.599888e-04  9.721644e-08
    234    223   2   0.50000     0.0600000   -0.3300000   2.521103e-04  1.063590e-07
    234    236   2   0.50000     0.0600000    0.0300000   3.930919e-05  8.704828e-09
    234    237   2   0.50000     0.0600000    0.0300000   3.930919e-05  8.704828e-09
    235    223   2   0.50000     0.0600000   -0.3300000   2.521103e-04  1.063590e-07
    235    236   2   0.50000     0.0600000    0.0300000   3.930919e-05  8.704828e-09
    235    237   2   0.50000     0.0600000    0.0300000   3.930919e-05  8.704828e-09
    221    224   2   0.50000    -0.1200000    0.5100000   1.575021e-03  3.561100e-06
    236    224   2   0.50000     0.0300000    0.5100000   2.482000e-04  1.854991e-07
    237    224   2   0.50000     0.0300000    0.5100000   2.482000e-04  1.854991e-07
    222    225   2   0.50000     0.1900000   -0.4300000   1.095425e-03  1.218041e-06
    222    226   2   0.50000     0.1900000   -0.1200000   1.015252e-03  1.866303e-06
    223    227   2   0.50000    -0.3300000   -0.1200000   1.026091e-03  1.187829e-06
    223    238   2   0.50000    -0.3300000    0.0600000   1.616969e-04  6.187447e-08
    223    239   2   0.50000    -0.3300000    0.0600000   1.616969e-04  6.187447e-08
    225    227   2   0.50000    -0.4300000   -0.1200000   1.095425e-03  1.218041e-06
    225    238   2   0.50000    -0.4300000    0.0600000   1.726228e-04  6.344822e-08
    225    239   2   0.50000    -0.4300000    0.0600000   1.726228e-04  6.344822e-08
    224    228   2   0.50000     0.5100000    0.5100000   2.443423e-03  6.794949e-06
    224    240   2   0.50000     0.5100000    0.0600000   2.482000e-04  1.854991e-07
    224    241   2   0.50000     0.5100000    0.0600000   2.482000e-04  1.854991e-07
    238    228   2   0.50000     0.0600000    0.5100000   2.482000e-04  1.854991e-07
    238    240   2   0.50000     0.0600000    0.0600000   2.521187e-05  5.064042e-09
    238    241   2   0.50000     0.0600000    0.0600000   2.521187e-05  5.064042e-09
    239    228   2   0.50000     0.0600000    0.5100000   2.482000e-04  1.854991e-07
    239    240   2   0.50000     0.0600000    0.0600000   2.521187e-05  5.064042e-09
    239    241   2   0.50000     0.0600000    0.0600000   2.521187e-05  5.064042e-09
    226    229   2   0.50000    -0.1200000   -0.4300000   1.095425e-03  1.218041e-06
    226    242   2   0.50000    -0.1200000   -0.3300000   1.026091e-03  1.187829e-06
    240    229   2   0.50000     0.0600000   -0.4300000   1.726228e-04  6.344822e-08
    240    242   2   0.50000     0.0600000   -0.3300000   1.616969e-04  6.187447e-08
    241    229   2   0.50000     0.0600000   -0.4300000   1.726228e-04  6.344822e-08
    241    242   2   0.50000     0.0600000   -0.3300000   1.616969e-04  6.187447e-08
    227    243   2   0.50000    -0.1200000    0.1900000   1.015252e-03  1.866303e-06
    229    243   2   0.50000    -0.4300000    0.1900000   1.095425e-03  1.218041e-06
    228    244   2   0.50000     0.5100000   -0.1200000   1.575021e-03  3.561100e-06
    228    254   2   0.50000     0.5100000    0.0300000   2.482000e-04  1.854991e-07
    228    255   2   0.50000     0.5100000    0.0300000   2.482000e-04  1.854991e-07
    242    245   2   0.50000    -0.3300000   -0.1200000   1.026091e-03  1.187829e-06
    242    256   2   0.50000    -0.3300000    0.0600000   2.521103e-04  1.063590e-07
    242    257   2   0.50000    -0.3300000    0.0600000   2.521103e-04  1.063590e-07
    254    245   2   0.50000     0.0300000   -0.1200000   1.599888e-04  9.721644e-08
    254    256   2   0.50000     0.0300000    0.0600000   3.930919e-05  8.704828e-09
    254    257   2   0.50000     0.0300000    0.0600000   3.930919e-05  8.704828e-09
    255    245   2   0.50000     0.0300000   -0.1200000   1.599888e-04  9.721644e-08
    255    256   2   0.50000     0.0300000    0.0600000   3.930919e-05  8.704828e-09
    255    257   2   0.50000     0.0300000    0.0600000   3.930919e-05  8.704828e-09
    243    246   2   0.50000     0.1900000    0.1900000   1.015252e-03  1.866303e-06
    243    258   2   0.50000     0.1900000    0.0600000   2.494471e-04  1.671101e-07
    243    259   2   0.50000     0.1900000    0.0600000   2.494471e-04  1.671101e-07
    256    246   2   0.50000     0.0600000    0.1900000   2.494471e-04  1.671101e-07
    256    258   2   0.50000     0.0600000    0.0600000   6.128906e-05  1.496315e-08
    256    259   2   0.50000     0.0600000    0.0600000   6.128906e-05  1.496315e-08
    257    246   2   0.50000     0.0600000    0.1900000   2.494471e-04  1.671101e-07
    257    258   2   0.50000     0.0600000    0.0600000   6.128906e-05  1.496315e-08
    257    259   2   0.50000     0.0600000    0.0600000   6.128906e-05  1.496315e-08
    244    247   2   0.50000    -0.1200000   -0.3300000   1.026091e-03  1.187829e-06
    244    260   2   0.50000    -0.1200000    0.0300000   1.599888e-04  9.721644e-08
    244    261   2   0.50000    -0.1200000    0.0300000   1.599888e-04  9.721644e-08
    258    247   2   0.50000     0.0600000   -0.3300000   2.521103e-04  1.063590e-07
    258    260   2   0.50000     0.0600000    0.0300000   3.930919e-05  8.704828e-09
    258    261   2   0.50000     0.0600000    0.0300000   3.930919e-05  8.704828e-09
    259    247   2   0.50000     0.0600000   -0.3300000   2.521103e-04  1.063590e-07
    259    260   2   0.50000     0.0600000    0.0300000   3.930919e-05  8.704828e-09
    259    261   2   0.50000     0.0600000    0.0300000   3.930919e-05  8.704828e-09
    245    248   2   0.50000    -0.1200000    0.5100000   1.575021e-03  3.561100e-06
    260    248   2   0.50000     0.0300000    0.5100000   2.482000e-04  1.854991e-07
    261    248   2   0.50000     0.0300000    0.5100000   2.482000e-04  1.854991e-07
    246    249   2   0.50000     0.1900000   -0.4300000   1.095425e-03  1.218041e-06
    246    250   2   0.50000     0.1900000   -0.1200000   1.015252e-03  1.866303e-06
    247    251   2   0.50000    -0.3300000   -0.1200000   1.026091e-03  1.187829e-06
    247    262   2   0.50000    -0.3300000    0.0600000   1.616969e-04  6.187447e-08
    247    263   2   0.50000    -0.3300000    0.0600000   1.616969e-04  6.187447e-08
    249    251   2   0.50000    -0.4300000   -0.1200000   1.095425e-03  1.218041e-06
    249    262   2   0.50000    -0.4300000    0.0600000   1.726228e-04  6.344822e-08
    249    263   2   0.50000    -0.4300000    0.0600000   1.726228e-04  6.344822e-08
    248    252   2   0.50000     0.5100000    0.5100000   2.443423e-03  6.794949e-06
    248    264   2   0.50000     0.5100000    0.0600000   2.482000e-04  1.854991e-07
    248    265   2   0.50000     0.5100000    0.0600000   2.482000e-04  1.854991e-07
    262    252   2   0.50000     0.0600000    0.5100000   2.482000e-04  1.854991e-07
    262    264   2   0.50000     0.0600000    0.0600000   2.521187e-05  5.064042e-09
    262    265   2   0.50000     0.0600000    0.0600000   2.521187e-05  5.064042e-09
    263    252   2   0.50000     0.0600000    0.5100000   2.482000e-04  1.854991e-07
    263    264   2   0.50000     0.0600000    0.0600000   2.521187e-05  5.064042e-09
    263    265   2   0.50000     0.0600000    0.0600000   2.521187e-05  5.064042e-09
    250    253   2   0.50000    -0.1200000   -0.4300000   1.095425e-03  1.218041e-06
    250    266   2   0.50000    -0.1200000   -0.3300000   1.026091e-03  1.187829e-06
    264    253   2   0.50000     0.0600000   -0.4300000   1.726228e-04  6.344822e-08
    264    266   2   0.50000     0.0600000   -0.3300000   1.616969e-04  6.187447e-08
    265    253   2   0.50000     0.0600000   -0.4300000   1.726228e-04  6.344822e-08
    265    266   2   0.50000     0.0600000   -0.3300000   1.616969e-04  6.187447e-08
    251    267   2   0.50000    -0.1200000    0.1900000   1.015252e-03  1.866303e-06
    253    267   2   0.50000    -0.4300000    0.1900000   1.095425e-03  1.218041e-06
    252    268   2   0.50000     0.5100000   -0.1200000   1.575021e-03  3.561100e-06
    252    278   2   0.50000     0.5100000    0.0300000   2.482000e-04  1.854991e-07
    252    279   2   0.50000     0.5100000    0.0300000   2.482000e-04  1.854991e-07
    266    269   2   0.50000    -0.3300000   -0.1200000   1.026091e-03  1.187829e-06
    266    280   2   0.50000    -0.3300000    0.0600000   2.521103e-04  1.063590e-07
    266    281   2   0.50000    -0.3300000    0.0600000   2.521103e-04  1.063590e-07
    278    269   2   0.50000     0.0300000   -0.1200000   1.599888e-04  9.721644e-08
    278    280   2   0.50000     0.0300000    0.0600000   3.930919e-05  8.704828e-09
    278    281   2   0.50000     0.0300000    0.0600000   3.930919e-05  8.704828e-09
    279    269   2   0.50000     0.0300000   -0.1200000   1.599888e-04  9.721644e-08
    279    280   2   0.50000     0.0300000    0.0600000   3.930919e-05  8.704828e-09
    279    281   2   0.50000     0.0300000    0.0600000   3.930919e-05  8.704828e-09
    267    270   2   0.50000     0.1900000    0.1900000   1.015252e-03  1.866303e-06
    267    282   2   0.50000     0.1900000    0.0600000   2.494471e-04  1.671101e-07
    267    283   2   0.50000     0.1900000    0.0600000   2.494471e-04  1.671101e-07
    280    270   2   0.50000     0.0600000    0.1900000   2.494471e-04  1.671101e-07
    280    282   2   0.50000     0.0600000    0.0600000   6.128906e-05  1.496315e-08
    280    283   2   0.50000     0.0600000    0.0600000   6.128906e-05  1.496315e-08
    281    270   2   0.50000     0.0600000    0.1900000   2.494471e-04  1.671101e-07
    281    282   2   0.50000     0.0600000    0.0600000   6.128906e-05  1.496315e-08
    281    283   2   0.50000     0.0600000    0.0600000   6.128906e-05  1.496315e-08
    268    271   2   0.50000    -0.1200000   -0.3300000   1.026091e-03  1.187829e-06
    268    284   2   0.50000    -0.1200000    0.0300000   1.599888e-04  9.721644e-08
    268    285   2   0.50000    -0.1200000    0.0300000   1.599888e-04  9.721644e-08
    282    271   2   0.50000     0.0600000   -0.3300000   2.521103e-04  1.063590e-07
    282    284   2   0.50000     0.0600000    0.0300000   3.930919e-05  8.704828e-09
    282    285   2   0.50000     0.0600000    0.0300000   3.930919e-05  8.704828e-09
    283    271   2   0.50000     0.0600000   -0.3300000   2.521103e-04  1.063590e-07
    283    284   2   0.50000     0.0600000    0.0300000   3.930919e-05  8.704828e-09
    283    285   2   0.50000     0.0600000    0.0300000   3.930919e-05  8.704828e-09
    269    272   2   0.50000    -0.1200000    0.5100000   1.575021e-03  3.561100e-06
    284    272   2   0.50000     0.0300000    0.5100000   2.482000e-04  1.854991e-07
    285    272   2   0.50000     0.0300000    0.5100000   2.482000e-04  1.854991e-07
    270    273   2   0.50000     0.1900000   -0.4300000   1.095425e-03  1.218041e-06
    270    274   2   0.50000     0.1900000   -0.1200000   1.015252e-03  1.866303e-06
    271    275   2   0.50000    -0.3300000   -0.1200000   1.026091e-03  1.187829e-06
    271    286   2   0.50000    -0.3300000    0.0600000   1.616969e-04  6.187447e-08
    271    287   2   0.50000    -0.3300000    0.0600000   1.616969e-04  6.187447e-08
    273    275   2   0.50000    -0.4300000   -0.1200000   1.095425e-03  1.218041e-06
    273    286   2   0.50000    -0.4300000    0.0600000   1.726228e-04  6.344822e-08
    273    287   2   0.50000    -0.4300000    0.0600000   1.726228e-04  6.344822e-08
    272    276   2   0.50000     0.5100000    0.5100000   2.443423e-03  6.794949e-06
    272    288   2   0.50000     0.5100000    0.0600000   2.482000e-04  1.854991e-07
    272    289   2   0.50000     0.5100000    0.0600000   2.482000e-04  1.854991e-07
    286    276   2   0.50000     0.0600000    0.5100000   2.482000e-04  1.854991e-07
    286    288   2   0.50000     0.0600000    0.0600000   2.521187e-05  5.064042e-09
    286    289   2   0.50000     0.0600000    0.0600000   2.521187e-05  5.064042e-09
    287    276   2   0.50000     0.0600000    0.5100000   2.482000e-04  1.854991e-07
    287    288   2   0.50000     0.0600000    0.0600000   2.521187e-05  5.064042e-09
    287    289   2   0.50000     0.0600000    0.0600000   2.521187e-05  5.064042e-09
    274    277   2   0.50000    -0.1200000   -0.4300000   1.095425e-03  1.218041e-06
    274    290   2   0.50000    -0.1200000   -0.3300000   1.026091e-03  1.187829e-06
    288    277   2   0.50000     0.0600000   -0.4300000   1.726228e-04  6.344822e-08
    288    290   2   0.50000     0.0600000   -0.3300000   1.616969e-04  6.187447e-08
    289    277   2   0.50000     0.0600000   -0.4300000   1.726228e-04  6.344822e-08
    289    290   2   0.50000     0.0600000   -0.3300000   1.616969e-04  6.187447e-08
    275    291   2   0.50000    -0.1200000    0.1900000   1.015252e-03  1.866303e-06
    277    291   2   0.50000    -0.4300000    0.1900000   1.095425e-03  1.218041e-06
    276    292   2   0.50000     0.5100000   -0.1200000   1.575021e-03  3.561100e-06
    276    302   2   0.50000     0.5100000    0.0300000   2.482000e-04  1.854991e-07
    276    303   2   0.50000     0.5100000    0.0300000   2.482000e-04  1.854991e-07
    290    293   2   0.50000    -0.3300000   -0.1200000   1.026091e-03  1.187829e-06
    290    304   2   0.50000    -0.3300000    0.0600000   2.521103e-04  1.063590e-07
    290    305   2   0.50000    -0.3300000    0.0600000   2.521103e-04  1.063590e-07
    302    293   2   0.50000     0.0300000   -0.1200000   1.599888e-04  9.721644e-08
    302    304   2   0.50000     0.0300000    0.0600000   3.930919e-05  8.704828e-09
    302    305   2   0.50000     0.0300000    0.0600000   3.930919e-05  8.704828e-09
    303    293   2   0.50000     0.0300000   -0.1200000   1.599888e-04  9.721644e-08
    303    304   2   0.50000     0.0300000    0.0600000   3.930919e-05  8.704828e-09
    303    305   2   0.50000     0.0300000    0.0600000   3.930919e-05  8.704828e-09
    291    294   2   0.50000     0.1900000    0.1900000   1.015252e-03  1.866303e-06
    291    306   2   0.50000     0.1900000    0.0600000   2.494471e-04  1.671101e-07
    291    307   2   0.50000     0.1900000    0.0600000   2.494471e-04  1.671101e-07
    304    294   2   0.50000     0.0600000    0.1900000   2.494471e-04  1.671101e-07
    304    306   2   0.50000     0.0600000    0.0600000   6.128906e-05  1.496315e-08
    304    307   2   0.50000     0.0600000    0.0600000   6.128906e-05  1.496315e-08
    305    294   2   0.50000     0.0600000    0.1900000   2.494471e-04  1.671101e-07
    305    306   2   0.50000     0.0600000    0.0600000   6.128906e-05  1.496315e-08
    305    307   2   0.50000     0.0600000    0.0600000   6.128906e-05  1.496315e-08
    292    295   2   0.50000    -0.1200000   -0.3300000   1.026091e-03  1.187829e-06
    292    308   2   0.50000    -0.1200000    0.0300000   1.599888e-04  9.721644e-08
    292    309   2   0.50000    -0.1200000    0.0300000   1.599888e-04  9.721644e-08
    306    295   2   0.50000     0.0600000   -0.3300000   2.521103e-04  1.063590e-07
    306    308   2   0.50000     0.0600000    0.0300000   3.930919e-05  8.704828e-09
    306    309   2   0.50000     0.0600000    0.0300000   3.930919e-05  8.704828e-09
    307    295   2   0.50000     0.0600000   -0.3300000   2.521103e-04  1.063590e-07
    307    308   2   0.50000     0.0600000    0.0300000   3.930919e-05  8.704828e-09
    307    309   2   0.50000     0.0600000    0.0300000   3.930919e-05  8.704828e-09
    293    296   2   0.50000    -0.1200000    0.5100000   1.575021e-03  3.561100e-06
    308    296   2   0.50000     0.0300000    0.5100000   2.482000e-04  1.854991e-07
    309    296   2   0.50000     0.0300000    0.5100000   2.482000e-04  1.854991e-07
    294    297   2   0.50000     0.1900000   -0.4300000   1.095425e-03  1.218041e-06
    294    298   2   0.50000     0.1900000   -0.1200000   1.015252e-03  1.866303e-06
    295    299   2   0.50000    -0.3300000   -0.1200000   1.026091e-03  1.187829e-06
    295    310   2   0.50000    -0.3300000    0.0600000   1.616969e-04  6.187447e-08
    295    311   2   0.50000    -0.3300000    0.0600000   1.616969e-04  6.187447e-08
    297    299   2   0.50000    -0.4300000   -0.1200000   1.095425e-03  1.218041e-06
    297    310   2   0.50000    -0.4300000    0.0600000   1.726228e-04  6.344822e-08
    297    311   2   0.50000    -0.4300000    0.0600000   1.726228e-04  6.344822e-08
    296    300   2   0.50000     0.5100000    0.5100000   2.443423e-03  6.794949e-06
    296    312   2   0.50000     0.5100000    0.0600000   2.482000e-04  1.854991e-07
    296    313   2   0.50000     0.5100000    0.0600000   2.482000e-04  1.854991e-07
    310    300   2   0.50000     0.0600000    0.5100000   2.482000e-04  1.854991e-07
    310    312   2   0.50000     0.0600000    0.0600000   2.521187e-05  5.064042e-09
    310    313   2   0.50000     0.0600000    0.0600000   2.521187e-05  5.064042e-09
    311    300   2   0.50000     0.0600000    0.5100000   2.482000e-04  1.854991e-07
    311    312   2   0.50000     0.0600000    0.0600000   2.521187e-05  5.064042e-09
    311    313   2   0.50000     0.0600000    0.0600000   2.521187e-05  5.064042e-09
    298    301   2   0.50000    -0.1200000   -0.4300000   1.095425e-03  1.218041e-06
    298    314   2   0.50000    -0.1200000   -0.3300000   1.026091e-03  1.187829e-06
    312    301   2   0.50000     0.0600000   -0.4300000   1.726228e-04  6.344822e-08
    312    314   2   0.50000     0.0600000   -0.3300000   1.616969e-04  6.187447e-08
    313    301   2   0.50000     0.0600000   -0.4300000   1.726228e-04  6.344822e-08
    313    314   2   0.50000     0.0600000   -0.3300000   1.616969e-04  6.187447e-08
    299    315   2   0.50000    -0.1200000    0.1900000   1.015252e-03  1.866303e-06
    301    315   2   0.50000    -0.4300000    0.1900000   1.095425e-03  1.218041e-06
    300    316   2   0.50000     0.5100000   -0.1200000   1.575021e-03  3.561100e-06
    300    326   2   0.50000     0.5100000    0.0300000   2.482000e-04  1.854991e-07
    300    327   2   0.50000     0.5100000    0.0300000   2.482000e-04  1.854991e-07
    314    317   2   0.50000    -0.3300000   -0.1200000   1.026091e-03  1.187829e-06
    314    328   2   0.50000    -0.3300000    0.0600000   2.521103e-04  1.063590e-07
    314    329   2   0.50000    -0.3300000    0.0600000   2.521103e-04  1.063590e-07
    326    317   2   0.50000     0.0300000   -0.1200000   1.599888e-04  9.721644e-08
    326    328   2   0.50000     0.0300000    0.0600000   3.930919e-05  8.704828e-09
    326    329   2   0.50000     0.0300000    0.0600000   3.930919e-05  8.704828e-09
    327    317   2   0.50000     0.0300000   -0.1200000   1.599888e-04  9.721644e-08
    327    328   2   0.50000     0.0300000    0.0600000   3.930919e-05  8.704828e-09
    327    329   2   0.50000     0.0300000    0.0600000   3.930919e-05  8.704828e-09
    315    318   2   0.50000     0.1900000    0.1900000   1.015252e-03  1.866303e-06
    315    330   2   0.50000     0.1900000    0.0600000   2.494471e-04  1.671101e-07
    315    331   2   0.50000     0.1900000    0.0600000   2.494471e-04  1.671101e-07
    328    318   2   0.50000     0.0600000    0.1900000   2.494471e-04  1.671101e-07
    328    330   2   0.50000     0.0600000    0.0600000   6.128906e-05  1.496315e-08
    328    331   2   0.50000     0.0600000    0.0600000   6.128906e-05  1.496315e-08
    329    318   2   0.50000     0.0600000    0.1900000   2.494471e-04  1.671101e-07
    329    330   2   0.50000     0.0600000    0.0600000   6.128906e-05  1.496315e-08
    329    331   2   0.50000     0.0600000    0.0600000   6.128906e-05  1.496315e-08
    316    319   2   0.50000    -0.1200000   -0.3300000   1.026091e-03  1.187829e-06
    316    332   2   0.50000    -0.1200000    0.0300000   1.599888e-04  9.721644e-08
    316    333   2   0.50000    -0.1200000    0.0300000   1.599888e-04  9.721644e-08
    330    319   2   0.50000     0.0600000   -0.3300000   2.521103e-04  1.063590e-07
    330    332   2   0.50000     0.0600000    0.0300000   3.930919e-05  8.704828e-09
    330    333   2   0.50000     0.0600000    0.0300000   3.930919e-05  8.704828e-09
    331    319   2   0.50000     0.0600000   -0.3300000   2.521103e-04  1.063590e-07
    331    332   2   0.50000     0.0600000    0.0300000   3.930919e-05  8.704828e-09
    331    333   2   0.50000     0.0600000    0.0300000   3.930919e-05  8.704828e-09
    317    320   2   0.50000    -0.1200000    0.5100000   1.575021e-03  3.561100e-06
    332    320   2   0.50000     0.0300000    0.5100000   2.482000e-04  1.854991e-07
    333    320   2   0.50000     0.0300000    0.5100000   2.482000e-04  1.854991e-07
    318    321   2   0.50000     0.1900000   -0.4300000   1.095425e-03  1.218041e-06
    318    322   2   0.50000     0.1900000   -0.1200000   1.015252e-03  1.866303e-06
    319    323   2   0.50000    -0.3300000   -0.1200000   1.026091e-03  1.187829e-06
    319    334   2   0.50000    -0.3300000    0.0600000   1.616969e-04  6.187447e-08
    319    335   2   0.50000    -0.3300000    0.0600000   1.616969e-04  6.187447e-08
    321    323   2   0.50000    -0.4300000   -0.1200000   1.095425e-03  1.218041e-06
    321    334   2   0.50000    -0.4300000    0.0600000   1.726228e-04  6.344822e-08
    321    335   2   0.50000    -0.4300000    0.0600000   1.726228e-04  6.344822e-08
    320    324   2   0.50000     0.5100000    0.5100000   2.443423e-03  6.794949e-06
    320    336   2   0.50000     0.5100000    0.0600000   2.482000e-04  1.854991e-07
    320    337   2   0.50000     0.5100000    0.0600000   2.482000e-04  1.854991e-07
    334    324   2   0.50000     0.0600000    0.5100000   2.482000e-04  1.854991e-07
    334    336   2   0.50000     0.0600000    0.0600000   2.521187e-05  5.064042e-09
    334    337   2   0.50000     0.0600000    0.0600000   2.521187e-05  5.064042e-09
    335    324   2   0.50000     0.0600000    0.5100000   2.482000e-04  1.854991e-07
    335    336   2   0.50000     0.0600000    0.0600000   2.521187e-05  5.064042e-09
    335    337   2   0.50000     0.0600000    0.0600000   2.521187e-05  5.064042e-09
    322    325   2   0.50000    -0.1200000   -0.4300000   1.095425e-03  1.218041e-06
    322    338   2   0.50000    -0.1200000   -0.3300000   1.026091e-03  1.187829e-06
    336    325   2   0.50000     0.0600000   -0.4300000   1.726228e-04  6.344822e-08
    336    338   2   0.50000     0.0600000   -0.3300000   1.616969e-04  6.187447e-08
    337    325   2   0.50000     0.0600000   -0.4300000   1.726228e-04  6.344822e-08
    337    338   2   0.50000     0.0600000   -0.3300000   1.616969e-04  6.187447e-08
    323    339   2   0.50000    -0.1200000    0.1900000   1.015252e-03  1.866303e-06
    325    339   2   0.50000    -0.4300000    0.1900000   1.095425e-03  1.218041e-06
    324    340   2   0.50000     0.5100000   -0.1200000   1.575021e-03  3.561100e-06
    324    350   2   0.50000     0.5100000    0.0300000   2.482000e-04  1.854991e-07
    324    351   2   0.50000     0.5100000    0.0300000   2.482000e-04  1.854991e-07
    338    341   2   0.50000    -0.3300000   -0.1200000   1.026091e-03  1.187829e-06
    338    352   2   0.50000    -0.3300000    0.0600000   2.521103e-04  1.063590e-07
    338    353   2   0.50000    -0.3300000    0.0600000   2.521103e-04  1.063590e-07
    350    341   2   0.50000     0.0300000   -0.1200000   1.599888e-04  9.721644e-08
    350    352   2   0.50000     0.0300000    0.0600000   3.930919e-05  8.704828e-09
    350    353   2   0.50000     0.0300000    0.0600000   3.930919e-05  8.704828e-09
    351    341   2   0.50000     0.0300000   -0.1200000   1.599888e-04  9.721644e-08
    351    352   2   0.50000     0.0300000    0.0600000   3.930919e-05  8.704828e-09
    351    353   2   0.50000     0.0300000    0.0600000   3.930919e-05  8.704828e-09
    339    342   2   0.50000     0.1900000    0.1900000   1.015252e-03  1.866303e-06
    339    354   2   0.50000     0.1900000    0.0600000   2.494471e-04  1.671101e-07
    339    355   2   0.50000     0.1900000    0.0600000   2.494471e-04  1.671101e-07
    352    342   2   0.50000     0.0600000    0.1900000   2.494471e-04  1.671101e-07
    352    354   2   0.50000     0.0600000    0.0600000   6.128906e-05  1.496315e-08
    352    355   2   0.50000     0.0600000    0.0600000   6.128906e-05  1.496315e-08
    353    342   2   0.50000     0.0600000    0.1900000   2.494471e-04  1.671101e-07
    353    354   2   0.50000     0.0600000    0.0600000   6.128906e-05  1.496315e-08
    353    355   2   0.50000     0.0600000    0.0600000   6.128906e-05  1.496315e-08
    340    343   2   0.50000    -0.1200000   -0.3300000   1.026091e-03  1.187829e-06
    340    356   2   0.50000    -0.1200000    0.0300000   1.599888e-04  9.721644e-08
    340    357   2   0.50000    -0.1200000    0.0300000   1.599888e-04  9.721644e-08
    354    343   2   0.50000     0.0600000   -0.3300000   2.521103e-04  1.063590e-07
    354    356   2   0.50000     0.0600000    0.0300000   3.930919e-05  8.704828e-09
    354    357   2   0.50000     0.0600000    0.0300000   3.930919e-05  8.704828e-09
    355    343   2   0.50000     0.0600000   -0.3300000   2.521103e-04  1.063590e-07
    355    356   2   0.50000     0.0600000    0.0300000   3.930919e-05  8.704828e-09
    355    357   2   0.50000     0.0600000    0.0300000   3.930919e-05  8.704828e-09
    341    344   2   0.50000    -0.1200000    0.5100000   1.575021e-03  3.561100e-06
    356    344   2   0.50000     0.0300000    0.5100000   2.482000e-04  1.854991e-07
    357    344   2   0.50000     0.0300000    0.5100000   2.482000e-04  1.854991e-07
    342    345   2   0.50000     0.1900000   -0.4300000   1.095425e-03  1.218041e-06
    342    346   2   0.50000     0.1900000   -0.1200000   1.015252e-03  1.866303e-06
    343    347   2   0.50000    -0.3300000   -0.1200000   1.026091e-03  1.187829e-06
    343    358   2   0.50000    -0.3300000    0.0600000   1.616969e-04  6.187447e-08
    343    359   2   0.50000    -0.3300000    0.0600000   1.616969e-04  6.187447e-08
    345    347   2   0.50000    -0.4300000   -0.1200000   1.095425e-03  1.218041e-06
    345    358   2   0.50000    -0.4300000    0.0600000   1.726228e-04  6.344822e-08
    345    359   2   0.50000    -0.4300000    0.0600000   1.726228e-04  6.344822e-08
    344    348   2   0.50000     0.5100000    0.5100000   2.443423e-03  6.794949e-06
    344    360   2   0.50000     0.5100000    0.0600000   2.482000e-04  1.854991e-07
    344    361   2   0.50000     0.5100000    0.0600000   2.482000e-04  1.854991e-07
    358    348   2   0.50000     0.0600000    0.5100000   2.482000e-04  1.854991e-07
    358    360   2   0.50000     0.0600000    0.0600000   2.521187e-05  5.064042e-09
    358    361   2   0.50000     0.0600000    0.0600000   2.521187e-05  5.064042e-09
    359    348   2   0.50000     0.0600000    0.5100000   2.482000e-04  1.854991e-07
    359    360   2   0.50000     0.0600000    0.0600000   2.521187e-05  5.064042e-09
    359    361   2   0.50000     0.0600000    0.0600000   2.521187e-05  5.064042e-09
    346    349   2   0.50000    -0.1200000   -0.4300000   1.095425e-03  1.218041e-06
    346    362   2   0.50000    -0.1200000   -0.3300000   1.026091e-03  1.187829e-06
    360    349   2   0.50000     0.0600000   -0.4300000   1.726228e-04  6.344822e-08
    360    362   2   0.50000     0.0600000   -0.3300000   1.616969e-04  6.187447e-08
    361    349   2   0.50000     0.0600000   -0.4300000   1.726228e-04  6.344822e-08
    361    362   2   0.50000     0.0600000   -0.3300000   1.616969e-04  6.187447e-08
    347    363   2   0.50000    -0.1200000    0.1900000   1.015252e-03  1.866303e-06
    349    363   2   0.50000    -0.4300000    0.1900000   1.095425e-03  1.218041e-06
    348    364   2   0.50000     0.5100000   -0.1200000   1.575021e-03  3.561100e-06
    348    374   2   0.50000     0.5100000    0.0300000   2.482000e-04  1.854991e-07
    348    375   2   0.50000     0.5100000    0.0300000   2.482000e-04  1.854991e-07
    362    365   2   0.50000    -0.3300000   -0.1200000   1.026091e-03  1.187829e-06
    362    376   2   0.50000    -0.3300000    0.0600000   2.521103e-04  1.063590e-07
    362    377   2   0.50000    -0.3300000    0.0600000   2.521103e-04  1.063590e-07
    374    365   2   0.50000     0.0300000   -0.1200000   1.599888e-04  9.721644e-08
    374    376   2   0.50000     0.0300000    0.0600000   3.930919e-05  8.704828e-09
    374    377   2   0.50000     0.0300000    0.0600000   3.930919e-05  8.704828e-09
    375    365   2   0.50000     0.0300000   -0.1200000   1.599888e-04  9.721644e-08
    375    376   2   0.50000     0.0300000    0.0600000   3.930919e-05  8.704828e-09
    375    377   2   0.50000     0.0300000    0.0600000   3.930919e-05  8.704828e-09
    363    366   2   0.50000     0.1900000    0.1900000   1.015252e-03  1.866303e-06
    363    378   2   0.50000     0.1900000    0.0600000   2.494471e-04  1.671101e-07
    363    379   2   0.50000     0.1900000    0.0600000   2.494471e-04  1.671101e-07
    376    366   2   0.50000     0.0600000    0.1900000   2.494471e-04  1.671101e-07
    376    378   2   0.50000     0.0600000    0.0600000   6.128906e-05  1.496315e-08
    376    379   2   0.50000     0.0600000    0.0600000   6.128906e-05  1.496315e-08
    377    366   2   0.50000     0.0600000    0.1900000   2.494471e-04  1.671101e-07
    377    378   2   0.50000     0.0600000    0.0600000   6.128906e-05  1.496315e-08
    377    379   2   0.50000     0.0600000    0.0600000   6.128906e-05  1.496315e-08
    364    367   2   0.50000    -0.1200000   -0.3300000   1.026091e-03  1.187829e-06
    364    380   2   0.50000    -0.1200000    0.0300000   1.599888e-04  9.721644e-08
    364    381   2   0.50000    -0.1200000    0.0300000   1.599888e-04  9.721644e-08
    378    367   2   0.50000     0.0600000   -0.3300000   2.521103e-04  1.063590e-07
    378    380   2   0.50000     0.0600000    0.0300000   3.930919e-05  8.704828e-09
    378    381   2   0.50000     0.0600000    0.0300000   3.930919e-05  8.704828e-09
    379    367   2   0.50000     0.0600000   -0.3300000   2.521103e-04  1.063590e-07
    379    380   2   0.50000     0.0600000    0.0300000   3.930919e-05  8.704828e-09
    379    381   2   0.50000     0.0600000    0.0300000   3.930919e-05  8.704828e-09
    365    368   2   0.50000    -0.1200000    0.5100000   1.575021e-03  3.561100e-06
    380    368   2   0.50000     0.0300000    0.5100000   2.482000e-04  1.854991e-07
    381    368   2   0.50000     0.0300000    0.5100000   2.482000e-04  1.854991e-07
    366    369   2   0.50000     0.1900000   -0.4300000   1.095425e-03  1.218041e-06
    366    370   2   0.50000     0.1900000   -0.1200000   1.015252e-03  1.866303e-06
    367    371   2   0.50000    -0.3300000   -0.1200000   1.026091e-03  1.187829e-06
    367    382   2   0.50000    -0.3300000    0.0600000   1.616969e-04  6.187447e-08
    367    383   2   0.50000    -0.3300000    0.0600000   1.616969e-04  6.187447e-08
    369    371   2   0.50000    -0.4300000   -0.1200000   1.095425e-03  1.218041e-06
    369    382   2   0.50000    -0.4300000    0.0600000   1.726228e-04  6.344822e-08
    369    383   2   0.50000    -0.4300000    0.0600000   1.726228e-04  6.344822e-08
    368    372   2   0.50000     0.5100000    0.5100000   2.443423e-03  6.794949e-06
    368    384   2   0.50000     0.5100000    0.0600000   2.482000e-04  1.854991e-07
    368    385   2   0.50000     0.5100000    0.0600000   2.482000e-04  1.854991e-07
    382    372   2   0.50000     0.0600000    0.5100000   2.482000e-04  1.854991e-07
    382    384   2   0.50000     0.0600000    0.0600000   2.521187e-05  5.064042e-09
    382    385   2   0.50000     0.0600000    0.0600000   2.521187e-05  5.064042e-09
    383    372   2   0.50000     0.0600000    0.5100000   2.482000e-04  1.854991e-07
    383    384   2   0.50000     0.0600000    0.0600000   2.521187e-05  5.064042e-09
    383    385   2   0.50000     0.0600000    0.0600000   2.521187e-05  5.064042e-09
    370    373   2   0.50000    -0.1200000   -0.4300000   1.095425e-03  1.218041e-06
    370    386   2   0.50000    -0.1200000   -0.3300000   1.026091e-03  1.187829e-06
    384    373   2   0.50000     0.0600000   -0.4300000   1.726228e-04  6.344822e-08
    384    386   2   0.50000     0.0600000   -0.3300000   1.616969e-04  6.187447e-08
    385    373   2   0.50000     0.0600000   -0.4300000   1.726228e-04  6.344822e-08
    385    386   2   0.50000     0.0600000   -0.3300000   1.616969e-04  6.187447e-08
    371    387   2   0.50000    -0.1200000    0.1900000   1.015252e-03  1.866303e-06
    373    387   2   0.50000    -0.4300000    0.1900000   1.095425e-03  1.218041e-06
    372    388   2   0.50000     0.5100000   -0.1200000   1.575021e-03  3.561100e-06
    372    398   2   0.50000     0.5100000    0.0300000   2.482000e-04  1.854991e-07
    372    399   2   0.50000     0.5100000    0.0300000   2.482000e-04  1.854991e-07
    386    389   2   0.50000    -0.3300000   -0.1200000   1.026091e-03  1.187829e-06
    386    400   2   0.50000    -0.3300000    0.0600000   2.521103e-04  1.063590e-07
    386    401   2   0.50000    -0.3300000    0.0600000   2.521103e-04  1.063590e-07
    398    389   2   0.50000     0.0300000   -0.1200000   1.599888e-04  9.721644e-08
    398    400   2   0.50000     0.0300000    0.0600000   3.930919e-05  8.704828e-09
    398    401   2   0.50000     0.0300000    0.0600000   3.930919e-05  8.704828e-09
    399    389   2   0.50000     0.0300000   -0.1200000   1.599888e-04  9.721644e-08
    399    400   2   0.50000     0.0300000    0.0600000   3.930919e-05  8.704828e-09
    399    401   2   0.50000     0.0300000    0.0600000   3.930919e-05  8.704828e-09
    387    390   2   0.50000     0.1900000    0.1900000   1.015252e-03  1.866303e-06
    387    402   2   0.50000     0.1900000    0.0600000   2.494471e-04  1.671101e-07
    387    403   2   0.50000     0.1900000    0.0600000   2.494471e-04  1.671101e-07
    400    390   2   0.50000     0.0600000    0.1900000   2.494471e-04  1.671101e-07
    400    402   2   0.50000     0.0600000    0.0600000   6.128906e-05  1.496315e-08
    400    403   2   0.50000     0.0600000    0.0600000   6.128906e-05  1.496315e-08
    401    390   2   0.50000     0.0600000    0.1900000   2.494471e-04  1.671101e-07
    401    402   2   0.50000     0.0600000    0.0600000   6.128906e-05  1.496315e-08
    401    403   2   0.50000     0.0600000    0.0600000   6.128906e-05  1.496315e-08
    388    391   2   0.50000    -0.1200000   -0.3300000   1.026091e-03  1.187829e-06
    388    404   2   0.50000    -0.1200000    0.0300000   1.599888e-04  9.721644e-08
    388    405   2   0.50000    -0.1200000    0.0300000   1.599888e-04  9.721644e-08
    402    391   2   0.50000     0.0600000   -0.3300000   2.521103e-04  1.063590e-07
    402    404   2   0.50000     0.0600000    0.0300000   3.930919e-05  8.704828e-09
    402    405   2   0.50000     0.0600000    0.0300000   3.930919e-05  8.704828e-09
    403    391   2   0.50000     0.0600000   -0.3300000   2.521103e-04  1.063590e-07
    403    404   2   0.50000     0.0600000    0.0300000   3.930919e-05  8.704828e-09
    403    405   2   0.50000     0.0600000    0.0300000   3.930919e-05  8.704828e-09
    389    392   2   0.50000    -0.1200000    0.5100000   1.575021e-03  3.561100e-06
    404    392   2   0.50000     0.0300000    0.5100000   2.482000e-04  1.854991e-07
    405    392   2   0.50000     0.0300000    0.5100000   2.482000e-04  1.854991e-07
    390    393   2   0.50000     0.1900000   -0.4300000   1.095425e-03  1.218041e-06
    390    394   2   0.50000     0.1900000   -0.1200000   1.015252e-03  1.866303e-06
    391    395   2   0.50000    -0.3300000   -0.1200000   1.026091e-03  1.187829e-06
    391    406   2   0.50000    -0.3300000    0.0600000   1.616969e-04  6.187447e-08
    391    407   2   0.50000    -0.3300000    0.0600000   1.616969e-04  6.187447e-08
    393    395   2   0.50000    -0.4300000   -0.1200000   1.095425e-03  1.218041e-06
    393    406   2   0.50000    -0.4300000    0.0600000   1.726228e-04  6.344822e-08
    393    407   2   0.50000    -0.4300000    0.0600000   1.726228e-04  6.344822e-08
    392    396   2   0.50000     0.5100000    0.5100000   2.443423e-03  6.794949e-06
    392    408   2   0.50000     0.5100000    0.0600000   2.482000e-04  1.854991e-07
    392    409   2   0.50000     0.5100000    0.0600000   2.482000e-04  1.854991e-07
    406    396   2   0.50000     0.0600000    0.5100000   2.482000e-04  1.854991e-07
    406    408   2   0.50000     0.0600000    0.0600000   2.521187e-05  5.064042e-09
    406    409   2   0.50000     0.0600000    0.0600000   2.521187e-05  5.064042e-09
    407    396   2   0.50000     0.0600000    0.5100000   2.482000e-04  1.854991e-07
    407    408   2   0.50000     0.0600000    0.0600000   2.521187e-05  5.064042e-09
    407    409   2   0.50000     0.0600000    0.0600000   2.521187e-05  5.064042e-09
    394    397   2   0.50000    -0.1200000   -0.4300000   1.095425e-03  1.218041e-06
    394    410   2   0.50000    -0.1200000   -0.3300000   1.026091e-03  1.187829e-06
    408    397   2   0.50000     0.0600000   -0.4300000   1.726228e-04  6.344822e-08
    408    410   2   0.50000     0.0600000   -0.3300000   1.616969e-04  6.187447e-08
    409    397   2   0.50000     0.0600000   -0.4300000   1.726228e-04  6.344822e-08
    409    410   2   0.50000     0.0600000   -0.3300000   1.616969e-04  6.187447e-08
    395    411   2   0.50000    -0.1200000    0.1900000   1.015252e-03  1.866303e-06
    397    411   2   0.50000    -0.4300000    0.1900000   1.095425e-03  1.218041e-06
    396    412   2   0.50000     0.5100000   -0.1200000   1.575021e-03  3.561100e-06
    396    422   2   0.50000     0.5100000    0.0300000   2.482000e-04  1.854991e-07
    396    423   2   0.50000     0.5100000    0.0300000   2.482000e-04  1.854991e-07
    410    413   2   0.50000    -0.3300000   -0.1200000   1.026091e-03  1.187829e-06
    410    424   2   0.50000    -0.3300000    0.0600000   2.521103e-04  1.063590e-07
    410    425   2   0.50000    -0.3300000    0.0600000   2.521103e-04  1.063590e-07
    422    413   2   0.50000     0.0300000   -0.1200000   1.599888e-04  9.721644e-08
    422    424   2   0.50000     0.0300000    0.0600000   3.930919e-05  8.704828e-09
    422    425   2   0.50000     0.0300000    0.0600000   3.930919e-05  8.704828e-09
    423    413   2   0.50000     0.0300000   -0.1200000   1.599888e-04  9.721644e-08
    423    424   2   0.50000     0.0300000    0.0600000   3.930919e-05  8.704828e-09
    423    425   2   0.50000     0.0300000    0.0600000   3.930919e-05  8.704828e-09
    411    414   2   0.50000     0.1900000    0.1900000   1.015252e-03  1.866303e-06
    411    426   2   0.50000     0.1900000    0.0600000   2.494471e-04  1.671101e-07
    411    427   2   0.50000     0.1900000    0.0600000   2.494471e-04  1.671101e-07
    424    414   2   0.50000     0.0600000    0.1900000   2.494471e-04  1.671101e-07
    424    426   2   0.50000     0.0600000    0.0600000   6.128906e-05  1.496315e-08
    424    427   2   0.50000     0.0600000    0.0600000   6.128906e-05  1.496315e-08
    425    414   2   0.50000     0.0600000    0.1900000   2.494471e-04  1.671101e-07
    425    426   2   0.50000     0.0600000    0.0600000   6.128906e-05  1.496315e-08
    425    427   2   0.50000     0.0600000    0.0600000   6.128906e-05  1.496315e-08
    412    415   2   0.50000    -0.1200000   -0.3300000   1.026091e-03  1.187829e-06
    412    428   2   0.50000    -0.1200000    0.0300000   1.599888e-04  9.721644e-08
    412    429   2   0.50000    -0.1200000    0.0300000   1.599888e-04  9.721644e-08
    426    415   2   0.50000     0.0600000   -0.3300000   2.521103e-04  1.063590e-07
    426    428   2   0.50000     0.0600000    0.0300000   3.930919e-05  8.704828e-09
    426    429   2   0.50000     0.0600000    0.0300000   3.930919e-05  8.704828e-09
    427    415   2   0.50000     0.0600000   -0.3300000   2.521103e-04  1.063590e-07
    427    428   2   0.50000     0.0600000    0.0300000   3.930919e-05  8.704828e-09
    427    429   2   0.50000     0.0600000    0.0300000   3.930919e-05  8.704828e-09
    413    416   2   0.50000    -0.1200000    0.5100000   1.575021e-03  3.561100e-06
    428    416   2   0.50000     0.0300000    0.5100000   2.482000e-04  1.854991e-07
    429    416   2   0.50000     0.0300000    0.5100000   2.482000e-04  1.854991e-07
    414    417   2   0.50000     0.1900000   -0.4300000   1.095425e-03  1.218041e-06
    414    418   2   0.50000     0.1900000   -0.1200000   1.015252e-03  1.866303e-06
    415    419   2   0.50000    -0.3300000   -0.1200000   1.026091e-03  1.187829e-06
    415    430   2   0.50000    -0.3300000    0.0600000   1.616969e-04  6.187447e-08
    415    431   2   0.50000    -0.3300000    0.0600000   1.616969e-04  6.187447e-08
    417    419   2   0.50000    -0.4300000   -0.1200000   1.095425e-03  1.218041e-06
    417    430   2   0.50000    -0.4300000    0.0600000   1.726228e-04  6.344822e-08
    417    431   2   0.50000    -0.4300000    0.0600000   1.726228e-04  6.344822e-08
    416    420   2   0.50000     0.5100000    0.5100000   2.443423e-03  6.794949e-06
    416    432   2   0.50000     0.5100000    0.0600000   2.482000e-04  1.854991e-07
    416    433   2   0.50000     0.5100000    0.0600000   2.482000e-04  1.854991e-07
    430    420   2   0.50000     0.0600000    0.5100000   2.482000e-04  1.854991e-07
    430    432   2   0.50000     0.0600000    0.0600000   2.521187e-05  5.064042e-09
    430    433   2   0.50000     0.0600000    0.0600000   2.521187e-05  5.064042e-09
    431    420   2   0.50000     0.0600000    0.5100000   2.482000e-04  1.854991e-07
    431    432   2   0.50000     0.0600000    0.0600000   2.521187e-05  5.064042e-09
    431    433   2   0.50000     0.0600000    0.0600000   2.521187e-05  5.064042e-09
    418    421   2   0.50000    -0.1200000   -0.4300000   1.095425e-03  1.218041e-06
    418    434   2   0.50000    -0.1200000   -0.3300000   1.026091e-03  1.187829e-06
    432    421   2   0.50000     0.0600000   -0.4300000   1.726228e-04  6.344822e-08
    432    434   2   0.50000     0.0600000   -0.3300000   1.616969e-04  6.187447e-08
    433    421   2   0.50000     0.0600000   -0.4300000   1.726228e-04  6.344822e-08
    433    434   2   0.50000     0.0600000   -0.3300000   1.616969e-04  6.187447e-08
    419    435   2   0.50000    -0.1200000    0.1900000   1.015252e-03  1.866303e-06
    421    435   2   0.50000    -0.4300000    0.1900000   1.095425e-03  1.218041e-06
    420    436   2   0.50000     0.5100000   -0.1200000   1.575021e-03  3.561100e-06
    420    446   2   0.50000     0.5100000    0.0300000   2.482000e-04  1.854991e-07
    420    447   2   0.50000     0.5100000    0.0300000   2.482000e-04  1.854991e-07
    434    437   2   0.50000    -0.3300000   -0.1200000   1.026091e-03  1.187829e-06
    434    448   2   0.50000    -0.3300000    0.0600000   2.521103e-04  1.063590e-07
    434    449   2   0.50000    -0.3300000    0.0600000   2.521103e-04  1.063590e-07
    446    437   2   0.50000     0.0300000   -0.1200000   1.599888e-04  9.721644e-08
    446    448   2   0.50000     0.0300000    0.0600000   3.930919e-05  8.704828e-09
    446    449   2   0.50000     0.0300000    0.0600000   3.930919e-05  8.704828e-09
    447    437   2   0.50000     0.0300000   -0.1200000   1.599888e-04  9.721644e-08
    447    448   2   0.50000     0.0300000    0.0600000   3.930919e-05  8.704828e-09
    447    449   2   0.50000     0.0300000    0.0600000   3.930919e-05  8.704828e-09
    435    438   2   0.50000     0.1900000    0.1900000   1.015252e-03  1.866303e-06
    435    450   2   0.50000     0.1900000    0.0600000   2.494471e-04  1.671101e-07
    435    451   2   0.50000     0.1900000    0.0600000   2.494471e-04  1.671101e-07
    448    438   2   0.50000     0.0600000    0.1900000   2.494471e-04  1.671101e-07
    448    450   2   0.50000     0.0600000    0.0600000   6.128906e-05  1.496315e-08
    448    451   2   0.50000     0.0600000    0.0600000   6.128906e-05  1.496315e-08
    449    438   2   0.50000     0.0600000    0.1900000   2.494471e-04  1.671101e-07
    449    450   2   0.50000     0.0600000    0.0600000   6.128906e-05  1.496315e-08
    449    451   2   0.50000     0.0600000    0.0600000   6.128906e-05  1.496315e-08
    436    439   2   0.50000    -0.1200000   -0.3300000   1.026091e-03  1.187829e-06
    436    452   2   0.50000    -0.1200000    0.0300000   1.599888e-04  9.721644e-08
    436    453   2   0.50000    -0.1200000    0.0300000   1.599888e-04  9.721644e-08
    450    439   2   0.50000     0.0600000   -0.3300000   2.521103e-04  1.063590e-07
    450    452   2   0.50000     0.0600000    0.0300000   3.930919e-05  8.704828e-09
    450    453   2   0.50000     0.0600000    0.0300000   3.930919e-05  8.704828e-09
    451    439   2   0.50000     0.0600000   -0.3300000   2.521103e-04  1.063590e-07
    451    452   2   0.50000     0.0600000    0.0300000   3.930919e-05  8.704828e-09
    451    453   2   0.50000     0.0600000    0.0300000   3.930919e-05  8.704828e-09
    437    440   2   0.50000    -0.1200000    0.5100000   1.575021e-03  3.561100e-06
    452    440   2   0.50000     0.0300000    0.5100000   2.482000e-04  1.854991e-07
    453    440   2   0.50000     0.0300000    0.5100000   2.482000e-04  1.854991e-07
    438    441   2   0.50000     0.1900000   -0.4300000   1.095425e-03  1.218041e-06
    438    442   2   0.50000     0.1900000   -0.1200000   1.015252e-03  1.866303e-06
    439    443   2   0.50000    -0.3300000   -0.1200000   1.026091e-03  1.187829e-06
    439    454   2   0.50000    -0.3300000    0.0600000   1.616969e-04  6.187447e-08
    439    455   2   0.50000    -0.3300000    0.0600000   1.616969e-04  6.187447e-08
    441    443   2   0.50000    -0.4300000   -0.1200000   1.095425e-03  1.218041e-06
    441    454   2   0.50000    -0.4300000    0.0600000   1.726228e-04  6.344822e-08
    441    455   2   0.50000    -0.4300000    0.0600000   1.726228e-04  6.344822e-08
    440    444   2   0.50000     0.5100000    0.5100000   2.443423e-03  6.794949e-06
    440    456   2   0.50000     0.5100000    0.0600000   2.482000e-04  1.854991e-07
    440    457   2   0.50000     0.5100000    0.0600000   2.482000e-04  1.854991e-07
    454    444   2   0.50000     0.0600000    0.5100000   2.482000e-04  1.854991e-07
    454    456   2   0.50000     0.0600000    0.0600000   2.521187e-05  5.064042e-09
    454    457   2   0.50000     0.0600000    0.0600000   2.521187e-05  5.064042e-09
    455    444   2   0.50000     0.0600000    0.5100000   2.482000e-04  1.854991e-07
    455    456   2   0.50000     0.0600000    0.0600000   2.521187e-05  5.064042e-09
    455    457   2   0.50000     0.0600000    0.0600000   2.521187e-05  5.064042e-09
    442    445   2   0.50000    -0.1200000   -0.4300000   1.095425e-03  1.218041e-06
    442    458   2   0.50000    -0.1200000   -0.3300000   1.026091e-03  1.187829e-06
    456    445   2   0.50000     0.0600000   -0.4300000   1.726228e-04  6.344822e-08
    456    458   2   0.50000     0.0600000   -0.3300000   1.616969e-04  6.187447e-08
    457    445   2   0.50000     0.0600000   -0.4300000   1.726228e-04  6.344822e-08
    457    458   2   0.50000     0.0600000   -0.3300000   1.616969e-04  6.187447e-08
    443    459   2   0.50000    -0.1200000    0.1900000   1.015252e-03  1.866303e-06
    445    459   2   0.50000    -0.4300000    0.1900000   1.095425e-03  1.218041e-06
    444    460   2   0.50000     0.5100000   -0.1200000   1.575021e-03  3.561100e-06
    444    470   2   0.50000     0.5100000    0.0300000   2.482000e-04  1.854991e-07
    444    471   2   0.50000     0.5100000    0.0300000   2.482000e-04  1.854991e-07
    458    461   2   0.50000    -0.3300000   -0.1200000   1.026091e-03  1.187829e-06
    458    472   2   0.50000    -0.3300000    0.0600000   2.521103e-04  1.063590e-07
    458    473   2   0.50000    -0.3300000    0.0600000   2.521103e-04  1.063590e-07
    470    461   2   0.50000     0.0300000   -0.1200000   1.599888e-04  9.721644e-08
    470    472   2   0.50000     0.0300000    0.0600000   3.930919e-05  8.704828e-09
    470    473   2   0.50000     0.0300000    0.0600000   3.930919e-05  8.704828e-09
    471    461   2   0.50000     0.0300000   -0.1200000   1.599888e-04  9.721644e-08
    471    472   2   0.50000     0.0300000    0.0600000   3.930919e-05  8.704828e-09
    471    473   2   0.50000     0.0300000    0.0600000   3.930919e-05  8.704828e-09
    459    462   2   0.50000     0.1900000    0.1900000   1.015252e-03  1.866303e-06
    459    474   2   0.50000     0.1900000    0.0600000   2.494471e-04  1.671101e-07
    459    475   2   0.50000     0.1900000    0.0600000   2.494471e-04  1.671101e-07
    472    462   2   0.50000     0.0600000    0.1900000   2.494471e-04  1.671101e-07
    472    474   2   0.50000     0.0600000    0.0600000   6.128906e-05  1.496315e-08
    472    475   2   0.50000     0.0600000    0.0600000   6.128906e-05  1.496315e-08
    473    462   2   0.50000     0.0600000    0.1900000   2.494471e-04  1.671101e-07
    473    474   2   0.50000     0.0600000    0.0600000   6.128906e-05  1.496315e-08
    473    475   2   0.50000     0.0600000    0.0600000   6.128906e-05  1.496315e-08
    460    463   2   0.50000    -0.1200000   -0.3300000   1.026091e-03  1.187829e-06
    460    476   2   0.50000    -0.1200000    0.0300000   1.599888e-04  9.721644e-08
    460    477   2   0.50000    -0.1200000    0.0300000   1.599888e-04  9.721644e-08
    474    463   2   0.50000     0.0600000   -0.3300000   2.521103e-04  1.063590e-07
    474    476   2   0.50000     0.0600000    0.0300000   3.930919e-05  8.704828e-09
    474    477   2   0.50000     0.0600000    0.0300000   3.930919e-05  8.704828e-09
    475    463   2   0.50000     0.0600000   -0.3300000   2.521103e-04  1.063590e-07
    475    476   2   0.50000     0.0600000    0.0300000   3.930919e-05  8.704828e-09
    475    477   2   0.50000     0.0600000    0.0300000   3.930919e-05  8.704828e-09
    461    464   2   0.50000    -0.1200000    0.5100000   1.575021e-03  3.561100e-06
    476    464   2   0.50000     0.0300000    0.5100000   2.482000e-04  1.854991e-07
    477    464   2   0.50000     0.0300000    0.5100000   2.482000e-04  1.854991e-07
    462    465   2   0.50000     0.1900000   -0.4300000   1.095425e-03  1.218041e-06
    462    466   2   0.50000     0.1900000   -0.1200000   1.015252e-03  1.866303e-06
    463    467   2   0.50000    -0.3300000   -0.1200000   1.026091e-03  1.187829e-06
    463    478   2   0.50000    -0.3300000    0.0600000   1.616969e-04  6.187447e-08
    463    479   2   0.50000    -0.3300000    0.0600000   1.616969e-04  6.187447e-08
    465    467   2   0.50000    -0.4300000   -0.1200000   1.095425e-03  1.218041e-06
    465    478   2   0.50000    -0.4300000    0.0600000   1.726228e-04  6.344822e-08
    465    479   2   0.50000    -0.4300000    0.0600000   1.726228e-04  6.344822e-08
    464    468   2   0.50000     0.5100000    0.4500000   2.443423e-03  6.794949e-06
    464    480   2   0.50000     0.5100000    0.0600000   2.482000e-04  1.854991e-07
    464    481   2   0.50000     0.5100000    0.0600000   2.482000e-04  1.854991e-07
    478    468   2   0.50000     0.0600000    0.4500000   2.482000e-04  1.854991e-07
    478    480   2   0.50000     0.0600000    0.0600000   2.521187e-05  5.064042e-09
    478    481   2   0.50000     0.0600000    0.0600000   2.521187e-05  5.064042e-09
    479    468   2   0.50000     0.0600000    0.4500000   2.482000e-04  1.854991e-07
    479    480   2   0.50000     0.0600000    0.0600000   2.521187e-05  5.064042e-09
    479    481   2   0.50000     0.0600000    0.0600000   2.521187e-05  5.064042e-09
    466    469   2   0.50000    -0.1200000   -0.4500000   1.095425e-03  1.218041e-06
    466    482   2   0.50000    -0.1200000    0.0000000   1.599888e-04  9.721644e-08
    480    469   2   0.50000     0.0600000   -0.4500000   1.726228e-04  6.344822e-08
    480    482   2   0.50000     0.0600000    0.0000000   2.521187e-05  5.064042e-09
    481    469   2   0.50000     0.0600000   -0.4500000   1.726228e-04  6.344822e-08
    481    482   2   0.50000     0.0600000    0.0000000   2.521187e-05  5.064042e-09

[ angles ]
; ai  aj  ak
      2      1     25   1    108.5000    460.2400
      1      2      3   1    109.5000    418.4000
      1      2     13   1    109.5000    292.8800
      1      2     14   1    109.5000    292.8800
      3      2     13   1    110.7000    313.8000
      3      2     14   1    110.7000    313.8000
     13      2     14   1    107.8000    276.1440
      2      3      4   1    112.7000    488.2728
      2      3     15   1    110.7000    313.8000
      2      3     16   1    110.7000    313.8000
      4      3     15   1    110.7000    313.8000
      4      3     16   1    110.7000    313.8000
     15      3     16   1    107.8000    276.1440
      3      4      5   1    112.7000    488.2728
      3      4     17   1    110.7000    313.8000
      3      4     18   1    110.7000    313.8000
      5      4     17   1    110.7000    313.8000
      5      4     18   1    110.7000    313.8000
     17      4     18   1    107.8000    276.1440
      4      5      6   1    109.5000    418.4000
      4      5     19   1    110.7000    313.8000
      4      5     20   1    110.7000    313.8000
      6      5     19   1    109.5000    292.8800
      6      5     20   1    109.5000    292.8800
     19      5     20   1    107.8000    276.1440
      5      6      7   1    116.9000    694.5440
      6      7      8   1    123.4000    694.5440
      6      7      9   1    111.4000    677.8080
      8      7      9   1    120.4000    669.4400
      7      9     10   1    111.1000    527.1840
      7      9     21   1    109.5000    292.8800
      7      9     22   1    109.5000    292.8800
     10      9     21   1    110.7000    313.8000
     10      9     22   1    110.7000    313.8000
     21      9     22   1    107.8000    276.1440
      9     10     11   1    111.1000    527.1840
      9     10     23   1    110.7000    313.8000
      9     10     24   1    110.7000    313.8000
     11     10     23   1    109.5000    292.8800
     11     10     24   1    109.5000    292.8800
     23     10     24   1    107.8000    276.1440
     10     11     12   1    120.4000    669.4400
     10     11     26   1    111.4000    677.8080
     12     11     26   1    123.4000    694.5440
     11     26     27   1    116.9000    694.5440
     26     27     28   1    109.5000    418.4000
     26     27     38   1    109.5000    292.8800
     26     27     39   1    109.5000    292.8800
     28     27     38   1    110.7000    313.8000
     28     27     39   1    110.7000    313.8000
     38     27     39   1    107.8000    276.1440
     27     28     29   1    112.7000    488.2728
     27     28     40   1    110.7000    313.8000
     27     28     41   1    110.7000    313.8000
     29     28     40   1    110.7000    313.8000
     29     28     41   1    110.7000    313.8000
     40     28     41   1    107.8000    276.1440
     28     29     30   1    112.7000    488.2728
     28     29     42   1    110.7000    313.8000
     28     29     43   1    110.7000    313.8000
     30     29     42   1    110.7000    313.8000
     30     29     43   1    110.7000    313.8000
     42     29     43   1    107.8000    276.1440
     29     30     31   1    109.5000    418.4000
     29     30     44   1    110.7000    313.8000
     29     30     45   1    110.7000    313.8000
     31     30     44   1    109.5000    292.8800
     31     30     45   1    109.5000    292.8800
     44     30     45   1    107.8000    276.1440
     30     31     32   1    116.9000    694.5440
     31     32     33   1    123.4000    694.5440
     31     32     34   1    111.4000    677.8080
     33     32     34   1    120.4000    669.4400
     32     34     35   1    111.1000    527.1840
     32     34     46   1    109.5000    292.8800
     32     34     47   1    109.5000    292.8800
     35     34     46   1    110.7000    313.8000
     35     34     47   1    110.7000    313.8000
     46     34     47   1    107.8000    276.1440
     34     35     36   1    111.1000    527.1840
     34     35     48   1    110.7000    313.8000
     34     35     49   1    110.7000    313.8000
     36     35     48   1    109.5000    292.8800
     36     35     49   1    109.5000    292.8800
     48     35     49   1    107.8000    276.1440
     35     36     37   1    120.4000    669.4400
     35     36     50   1    111.4000    677.8080
     37     36     50   1    123.4000    694.5440
     36     50     51   1    116.9000    694.5440
     50     51     52   1    109.5000    418.4000
     50     51     62   1    109.5000    292.8800
     50     51     63   1    109.5000    292.8800
     52     51     62   1    110.7000    313.8000
     52     51     63   1    110.7000    313.8000
     62     51     63   1    107.8000    276.1440
     51     52     53   1    112.7000    488.2728
     51     52     64   1    110.7000    313.8000
     51     52     65   1    110.7000    313.8000
     53     52     64   1    110.7000    313.8000
     53     52     65   1    110.7000    313.8000
     64     52     65   1    107.8000    276.1440
     52     53     54   1    112.7000    488.2728
     52     53     66   1    110.7000    313.8000
     52     53     67   1    110.7000    313.8000
     54     53     66   1    110.7000    313.8000
     54     53     67   1    110.7000    313.8000
     66     53     67   1    107.8000    276.1440
     53     54     55   1    109.5000    418.4000
     53     54     68   1    110.7000    313.8000
     53     54     69   1    110.7000    313.8000
     55     54     68   1    109.5000    292.8800
     55     54     69   1    109.5000    292.8800
     68     54     69   1    107.8000    276.1440
     54     55     56   1    116.9000    694.5440
     55     56     57   1    123.4000    694.5440
     55     56     58   1    111.4000    677.8080
     57     56     58   1    120.4000    669.4400
     56     58     59   1    111.1000    527.1840
     56     58     70   1    109.5000    292.8800
     56     58     71   1    109.5000    292.8800
     59     58     70   1    110.7000    313.8000
     59     58     71   1    110.7000    313.8000
     70     58     71   1    107.8000    276.1440
     58     59     60   1    111.1000    527.1840
     58     59     72   1    110.7000    313.8000
     58     59     73   1    110.7000    313.8000
     60     59     72   1    109.5000    292.8800
     60     59     73   1    109.5000    292.8800
     72     59     73   1    107.8000    276.1440
     59     60     61   1    120.4000    669.4400
     59     60     74   1    111.4000    677.8080
     61     60     74   1    123.4000    694.5440
     60     74     75   1    116.9000    694.5440
     74     75     76   1    109.5000    418.4000
     74     75     86   1    109.5000    292.8800
     74     75     87   1    109.5000    292.8800
     76     75     86   1    110.7000    313.8000
     76     75     87   1    110.7000    313.8000
     86     75     87   1    107.8000    276.1440
     75     76     77   1    112.7000    488.2728
     75     76     88   1    110.7000    313.8000
     75     76     89   1    110.7000    313.8000
     77     76     88   1    110.7000    313.8000
     77     76     89   1    110.7000    313.8000
     88     76     89   1    107.8000    276.1440
     76     77     78   1    112.7000    488.2728
     76     77     90   1    110.7000    313.8000
     76     77     91   1    110.7000    313.8000
     78     77     90   1    110.7000    313.8000
     78     77     91   1    110.7000    313.8000
     90     77     91   1    107.8000    276.1440
     77     78     79   1    109.5000    418.4000
     77     78     92   1    110.7000    313.8000
     77     78     93   1    110.7000    313.8000
     79     78     92   1    109.5000    292.8800
     79     78     93   1    109.5000    292.8800
     92     78     93   1    107.8000    276.1440
     78     79     80   1    116.9000    694.5440
     79     80     81   1    123.4000    694.5440
     79     80     82   1    111.4000    677.8080
     81     80     82   1    120.4000    669.4400
     80     82     83   1    111.1000    527.1840
     80     82     94   1    109.5000    292.8800
     80     82     95   1    109.5000    292.8800
     83     82     94   1    110.7000    313.8000
     83     82     95   1    110.7000    313.8000
     94     82     95   1    107.8000    276.1440
     82     83     84   1    111.1000    527.1840
     82     83     96   1    110.7000    313.8000
     82     83     97   1    110.7000    313.8000
     84     83     96   1    109.5000    292.8800
     84     83     97   1    109.5000    292.8800
     96     83     97   1    107.8000    276.1440
     83     84     85   1    120.4000    669.4400
     83     84     98   1    111.4000    677.8080
     85     84     98   1    123.4000    694.5440
     84     98     99   1    116.9000    694.5440
     98     99    100   1    109.5000    418.4000
     98     99    110   1    109.5000    292.8800
     98     99    111   1    109.5000    292.8800
    100     99    110   1    110.7000    313.8000
    100     99    111   1    110.7000    313.8000
    110     99    111   1    107.8000    276.1440
     99    100    101   1    112.7000    488.2728
     99    100    112   1    110.7000    313.8000
     99    100    113   1    110.7000    313.8000
    101    100    112   1    110.7000    313.8000
    101    100    113   1    110.7000    313.8000
    112    100    113   1    107.8000    276.1440
    100    101    102   1    112.7000    488.2728
    100    101    114   1    110.7000    313.8000
    100    101    115   1    110.7000    313.8000
    102    101    114   1    110.7000    313.8000
    102    101    115   1    110.7000    313.8000
    114    101    115   1    107.8000    276.1440
    101    102    103   1    109.5000    418.4000
    101    102    116   1    110.7000    313.8000
    101    102    117   1    110.7000    313.8000
    103    102    116   1    109.5000    292.8800
    103    102    117   1    109.5000    292.8800
    116    102    117   1    107.8000    276.1440
    102    103    104   1    116.9000    694.5440
    103    104    105   1    123.4000    694.5440
    103    104    106   1    111.4000    677.8080
    105    104    106   1    120.4000    669.4400
    104    106    107   1    111.1000    527.1840
    104    106    118   1    109.5000    292.8800
    104    106    119   1    109.5000    292.8800
    107    106    118   1    110.7000    313.8000
    107    106    119   1    110.7000    313.8000
    118    106    119   1    107.8000    276.1440
    106    107    108   1    111.1000    527.1840
    106    107    120   1    110.7000    313.8000
    106    107    121   1    110.7000    313.8000
    108    107    120   1    109.5000    292.8800
    108    107    121   1    109.5000    292.8800
    120    107    121   1    107.8000    276.1440
    107    108    109   1    120.4000    669.4400
    107    108    122   1    111.4000    677.8080
    109    108    122   1    123.4000    694.5440
    108    122    123   1    116.9000    694.5440
    122    123    124   1    109.5000    418.4000
    122    123    134   1    109.5000    292.8800
    122    123    135   1    109.5000    292.8800
    124    123    134   1    110.7000    313.8000
    124    123    135   1    110.7000    313.8000
    134    123    135   1    107.8000    276.1440
    123    124    125   1    112.7000    488.2728
    123    124    136   1    110.7000    313.8000
    123    124    137   1    110.7000    313.8000
    125    124    136   1    110.7000    313.8000
    125    124    137   1    110.7000    313.8000
    136    124    137   1    107.8000    276.1440
    124    125    126   1    112.7000    488.2728
    124    125    138   1    110.7000    313.8000
    124    125    139   1    110.7000    313.8000
    126    125    138   1    110.7000    313.8000
    126    125    139   1    110.7000    313.8000
    138    125    139   1    107.8000    276.1440
    125    126    127   1    109.5000    418.4000
    125    126    140   1    110.7000    313.8000
    125    126    141   1    110.7000    313.8000
    127    126    140   1    109.5000    292.8800
    127    126    141   1    109.5000    292.8800
    140    126    141   1    107.8000    276.1440
    126    127    128   1    116.9000    694.5440
    127    128    129   1    123.4000    694.5440
    127    128    130   1    111.4000    677.8080
    129    128    130   1    120.4000    669.4400
    128    130    131   1    111.1000    527.1840
    128    130    142   1    109.5000    292.8800
    128    130    143   1    109.5000    292.8800
    131    130    142   1    110.7000    313.8000
    131    130    143   1    110.7000    313.8000
    142    130    143   1    107.8000    276.1440
    130    131    132   1    111.1000    527.1840
    130    131    144   1    110.7000    313.8000
    130    131    145   1    110.7000    313.8000
    132    131    144   1    109.5000    292.8800
    132    131    145   1    109.5000    292.8800
    144    131    145   1    107.8000    276.1440
    131    132    133   1    120.4000    669.4400
    131    132    146   1    111.4000    677.8080
    133    132    146   1    123.4000    694.5440
    132    146    147   1    116.9000    694.5440
    146    147    148   1    109.5000    418.4000
    146    147    158   1    109.5000    292.8800
    146    147    159   1    109.5000    292.8800
    148    147    158   1    110.7000    313.8000
    148    147    159   1    110.7000    313.8000
    158    147    159   1    107.8000    276.1440
    147    148    149   1    112.7000    488.2728
    147    148    160   1    110.7000    313.8000
    147    148    161   1    110.7000    313.8000
    149    148    160   1    110.7000    313.8000
    149    148    161   1    110.7000    313.8000
    160    148    161   1    107.8000    276.1440
    148    149    150   1    112.7000    488.2728
    148    149    162   1    110.7000    313.8000
    148    149    163   1    110.7000    313.8000
    150    149    162   1    110.7000    313.8000
    150    149    163   1    110.7000    313.8000
    162    149    163   1    107.8000    276.1440
    149    150    151   1    109.5000    418.4000
    149    150    164   1    110.7000    313.8000
    149    150    165   1    110.7000    313.8000
    151    150    164   1    109.5000    292.8800
    151    150    165   1    109.5000    292.8800
    164    150    165   1    107.8000    276.1440
    150    151    152   1    116.9000    694.5440
    151    152    153   1    123.4000    694.5440
    151    152    154   1    111.4000    677.8080
    153    152    154   1    120.4000    669.4400
    152    154    155   1    111.1000    527.1840
    152    154    166   1    109.5000    292.8800
    152    154    167   1    109.5000    292.8800
    155    154    166   1    110.7000    313.8000
    155    154    167   1    110.7000    313.8000
    166    154    167   1    107.8000    276.1440
    154    155    156   1    111.1000    527.1840
    154    155    168   1    110.7000    313.8000
    154    155    169   1    110.7000    313.8000
    156    155    168   1    109.5000    292.8800
    156    155    169   1    109.5000    292.8800
    168    155    169   1    107.8000    276.1440
    155    156    157   1    120.4000    669.4400
    155    156    170   1    111.4000    677.8080
    157    156    170   1    123.4000    694.5440
    156    170    171   1    116.9000    694.5440
    170    171    172   1    109.5000    418.4000
    170    171    182   1    109.5000    292.8800
    170    171    183   1    109.5000    292.8800
    172    171    182   1    110.7000    313.8000
    172    171    183   1    110.7000    313.8000
    182    171    183   1    107.8000    276.1440
    171    172    173   1    112.7000    488.2728
    171    172    184   1    110.7000    313.8000
    171    172    185   1    110.7000    313.8000
    173    172    184   1    110.7000    313.8000
    173    172    185   1    110.7000    313.8000
    184    172    185   1    107.8000    276.1440
    172    173    174   1    112.7000    488.2728
    172    173    186   1    110.7000    313.8000
    172    173    187   1    110.7000    313.8000
    174    173    186   1    110.7000    313.8000
    174    173    187   1    110.7000    313.8000
    186    173    187   1    107.8000    276.1440
    173    174    175   1    109.5000    418.4000
    173    174    188   1    110.7000    313.8000
    173    174    189   1    110.7000    313.8000
    175    174    188   1    109.5000    292.8800
    175    174    189   1    109.5000    292.8800
    188    174    189   1    107.8000    276.1440
    174    175    176   1    116.9000    694.5440
    175    176    177   1    123.4000    694.5440
    175    176    178   1    111.4000    677.8080
    177    176    178   1    120.4000    669.4400
    176    178    179   1    111.1000    527.1840
    176    178    190   1    109.5000    292.8800
    176    178    191   1    109.5000    292.8800
    179    178    190   1    110.7000    313.8000
    179    178    191   1    110.7000    313.8000
    190    178    191   1    107.8000    276.1440
    178    179    180   1    111.1000    527.1840
    178    179    192   1    110.7000    313.8000
    178    179    193   1    110.7000    313.8000
    180    179    192   1    109.5000    292.8800
    180    179    193   1    109.5000    292.8800
    192    179    193   1    107.8000    276.1440
    179    180    181   1    120.4000    669.4400
    179    180    194   1    111.4000    677.8080
    181    180    194   1    123.4000    694.5440
    180    194    195   1    116.9000    694.5440
    194    195    196   1    109.5000    418.4000
    194    195    206   1    109.5000    292.8800
    194    195    207   1    109.5000    292.8800
    196    195    206   1    110.7000    313.8000
    196    195    207   1    110.7000    313.8000
    206    195    207   1    107.8000    276.1440
    195    196    197   1    112.7000    488.2728
    195    196    208   1    110.7000    313.8000
    195    196    209   1    110.7000    313.8000
    197    196    208   1    110.7000    313.8000
    197    196    209   1    110.7000    313.8000
    208    196    209   1    107.8000    276.1440
    196    197    198   1    112.7000    488.2728
    196    197    210   1    110.7000    313.8000
    196    197    211   1    110.7000    313.8000
    198    197    210   1    110.7000    313.8000
    198    197    211   1    110.7000    313.8000
    210    197    211   1    107.8000    276.1440
    197    198    199   1    109.5000    418.4000
    197    198    212   1    110.7000    313.8000
    197    198    213   1    110.7000    313.8000
    199    198    212   1    109.5000    292.8800
    199    198    213   1    109.5000    292.8800
    212    198    213   1    107.8000    276.1440
    198    199    200   1    116.9000    694.5440
    199    200    201   1    123.4000    694.5440
    199    200    202   1    111.4000    677.8080
    201    200    202   1    120.4000    669.4400
    200    202    203   1    111.1000    527.1840
    200    202    214   1    109.5000    292.8800
    200    202    215   1    109.5000    292.8800
    203    202    214   1    110.7000    313.8000
    203    202    215   1    110.7000    313.8000
    214    202    215   1    107.8000    276.1440
    202    203    204   1    111.1000    527.1840
    202    203    216   1    110.7000    313.8000
    202    203    217   1    110.7000    313.8000
    204    203    216   1    109.5000    292.8800
    204    203    217   1    109.5000    292.8800
    216    203    217   1    107.8000    276.1440
    203    204    205   1    120.4000    669.4400
    203    204    218   1    111.4000    677.8080
    205    204    218   1    123.4000    694.5440
    204    218    219   1    116.9000    694.5440
    218    219    220   1    109.5000    418.4000
    218    219    230   1    109.5000    292.8800
    218    219    231   1    109.5000    292.8800
    220    219    230   1    110.7000    313.8000
    220    219    231   1    110.7000    313.8000
    230    219    231   1    107.8000    276.1440
    219    220    221   1    112.7000    488.2728
    219    220    232   1    110.7000    313.8000
    219    220    233   1    110.7000    313.8000
    221    220    232   1    110.7000    313.8000
    221    220    233   1    110.7000    313.8000
    232    220    233   1    107.8000    276.1440
    220    221    222   1    112.7000    488.2728
    220    221    234   1    110.7000    313.8000
    220    221    235   1    110.7000    313.8000
    222    221    234   1    110.7000    313.8000
    222    221    235   1    110.7000    313.8000
    234    221    235   1    107.8000    276.1440
    221    222    223   1    109.5000    418.4000
    221    222    236   1    110.7000    313.8000
    221    222    237   1    110.7000    313.8000
    223    222    236   1    109.5000    292.8800
    223    222    237   1    109.5000    292.8800
    236    222    237   1    107.8000    276.1440
    222    223    224   1    116.9000    694.5440
    223    224    225   1    123.4000    694.5440
    223    224    226   1    111.4000    677.8080
    225    224    226   1    120.4000    669.4400
    224    226    227   1    111.1000    527.1840
    224    226    238   1    109.5000    292.8800
    224    226    239   1    109.5000    292.8800
    227    226    238   1    110.7000    313.8000
    227    226    239   1    110.7000    313.8000
    238    226    239   1    107.8000    276.1440
    226    227    228   1    111.1000    527.1840
    226    227    240   1    110.7000    313.8000
    226    227    241   1    110.7000    313.8000
    228    227    240   1    109.5000    292.8800
    228    227    241   1    109.5000    292.8800
    240    227    241   1    107.8000    276.1440
    227    228    229   1    120.4000    669.4400
    227    228    242   1    111.4000    677.8080
    229    228    242   1    123.4000    694.5440
    228    242    243   1    116.9000    694.5440
    242    243    244   1    109.5000    418.4000
    242    243    254   1    109.5000    292.8800
    242    243    255   1    109.5000    292.8800
    244    243    254   1    110.7000    313.8000
    244    243    255   1    110.7000    313.8000
    254    243    255   1    107.8000    276.1440
    243    244    245   1    112.7000    488.2728
    243    244    256   1    110.7000    313.8000
    243    244    257   1    110.7000    313.8000
    245    244    256   1    110.7000    313.8000
    245    244    257   1    110.7000    313.8000
    256    244    257   1    107.8000    276.1440
    244    245    246   1    112.7000    488.2728
    244    245    258   1    110.7000    313.8000
    244    245    259   1    110.7000    313.8000
    246    245    258   1    110.7000    313.8000
    246    245    259   1    110.7000    313.8000
    258    245    259   1    107.8000    276.1440
    245    246    247   1    109.5000    418.4000
    245    246    260   1    110.7000    313.8000
    245    246    261   1    110.7000    313.8000
    247    246    260   1    109.5000    292.8800
    247    246    261   1    109.5000    292.8800
    260    246    261   1    107.8000    276.1440
    246    247    248   1    116.9000    694.5440
    247    248    249   1    123.4000    694.5440
    247    248    250   1    111.4000    677.8080
    249    248    250   1    120.4000    669.4400
    248    250    251   1    111.1000    527.1840
    248    250    262   1    109.5000    292.8800
    248    250    263   1    109.5000    292.8800
    251    250    262   1    110.7000    313.8000
    251    250    263   1    110.7000    313.8000
    262    250    263   1    107.8000    276.1440
    250    251    252   1    111.1000    527.1840
    250    251    264   1    110.7000    313.8000
    250    251    265   1    110.7000    313.8000
    252    251    264   1    109.5000    292.8800
    252    251    265   1    109.5000    292.8800
    264    251    265   1    107.8000    276.1440
    251    252    253   1    120.4000    669.4400
    251    252    266   1    111.4000    677.8080
    253    252    266   1    123.4000    694.5440
    252    266    267   1    116.9000    694.5440
    266    267    268   1    109.5000    418.4000
    266    267    278   1    109.5000    292.8800
    266    267    279   1    109.5000    292.8800
    268    267    278   1    110.7000    313.8000
    268    267    279   1    110.7000    313.8000
    278    267    279   1    107.8000    276.1440
    267    268    269   1    112.7000    488.2728
    267    268    280   1    110.7000    313.8000
    267    268    281   1    110.7000    313.8000
    269    268    280   1    110.7000    313.8000
    269    268    281   1    110.7000    313.8000
    280    268    281   1    107.8000    276.1440
    268    269    270   1    112.7000    488.2728
    268    269    282   1    110.7000    313.8000
    268    269    283   1    110.7000    313.8000
    270    269    282   1    110.7000    313.8000
    270    269    283   1    110.7000    313.8000
    282    269    283   1    107.8000    276.1440
    269    270    271   1    109.5000    418.4000
    269    270    284   1    110.7000    313.8000
    269    270    285   1    110.7000    313.8000
    271    270    284   1    109.5000    292.8800
    271    270    285   1    109.5000    292.8800
    284    270    285   1    107.8000    276.1440
    270    271    272   1    116.9000    694.5440
    271    272    273   1    123.4000    694.5440
    271    272    274   1    111.4000    677.8080
    273    272    274   1    120.4000    669.4400
    272    274    275   1    111.1000    527.1840
    272    274    286   1    109.5000    292.8800
    272    274    287   1    109.5000    292.8800
    275    274    286   1    110.7000    313.8000
    275    274    287   1    110.7000    313.8000
    286    274    287   1    107.8000    276.1440
    274    275    276   1    111.1000    527.1840
    274    275    288   1    110.7000    313.8000
    274    275    289   1    110.7000    313.8000
    276    275    288   1    109.5000    292.8800
    276    275    289   1    109.5000    292.8800
    288    275    289   1    107.8000    276.1440
    275    276    277   1    120.4000    669.4400
    275    276    290   1    111.4000    677.8080
    277    276    290   1    123.4000    694.5440
    276    290    291   1    116.9000    694.5440
    290    291    292   1    109.5000    418.4000
    290    291    302   1    109.5000    292.8800
    290    291    303   1    109.5000    292.8800
    292    291    302   1    110.7000    313.8000
    292    291    303   1    110.7000    313.8000
    302    291    303   1    107.8000    276.1440
    291    292    293   1    112.7000    488.2728
    291    292    304   1    110.7000    313.8000
    291    292    305   1    110.7000    313.8000
    293    292    304   1    110.7000    313.8000
    293    292    305   1    110.7000    313.8000
    304    292    305   1    107.8000    276.1440
    292    293    294   1    112.7000    488.2728
    292    293    306   1    110.7000    313.8000
    292    293    307   1    110.7000    313.8000
    294    293    306   1    110.7000    313.8000
    294    293    307   1    110.7000    313.8000
    306    293    307   1    107.8000    276.1440
    293    294    295   1    109.5000    418.4000
    293    294    308   1    110.7000    313.8000
    293    294    309   1    110.7000    313.8000
    295    294    308   1    109.5000    292.8800
    295    294    309   1    109.5000    292.8800
    308    294    309   1    107.8000    276.1440
    294    295    296   1    116.9000    694.5440
    295    296    297   1    123.4000    694.5440
    295    296    298   1    111.4000    677.8080
    297    296    298   1    120.4000    669.4400
    296    298    299   1    111.1000    527.1840
    296    298    310   1    109.5000    292.8800
    296    298    311   1    109.5000    292.8800
    299    298    310   1    110.7000    313.8000
    299    298    311   1    110.7000    313.8000
    310    298    311   1    107.8000    276.1440
    298    299    300   1    111.1000    527.1840
    298    299    312   1    110.7000    313.8000
    298    299    313   1    110.7000    313.8000
    300    299    312   1    109.5000    292.8800
    300    299    313   1    109.5000    292.8800
    312    299    313   1    107.8000    276.1440
    299    300    301   1    120.4000    669.4400
    299    300    314   1    111.4000    677.8080
    301    300    314   1    123.4000    694.5440
    300    314    315   1    116.9000    694.5440
    314    315    316   1    109.5000    418.4000
    314    315    326   1    109.5000    292.8800
    314    315    327   1    109.5000    292.8800
    316    315    326   1    110.7000    313.8000
    316    315    327   1    110.7000    313.8000
    326    315    327   1    107.8000    276.1440
    315    316    317   1    112.7000    488.2728
    315    316    328   1    110.7000    313.8000
    315    316    329   1    110.7000    313.8000
    317    316    328   1    110.7000    313.8000
    317    316    329   1    110.7000    313.8000
    328    316    329   1    107.8000    276.1440
    316    317    318   1    112.7000    488.2728
    316    317    330   1    110.7000    313.8000
    316    317    331   1    110.7000    313.8000
    318    317    330   1    110.7000    313.8000
    318    317    331   1    110.7000    313.8000
    330    317    331   1    107.8000    276.1440
    317    318    319   1    109.5000    418.4000
    317    318    332   1    110.7000    313.8000
    317    318    333   1    110.7000    313.8000
    319    318    332   1    109.5000    292.8800
    319    318    333   1    109.5000    292.8800
    332    318    333   1    107.8000    276.1440
    318    319    320   1    116.9000    694.5440
    319    320    321   1    123.4000    694.5440
    319    320    322   1    111.4000    677.8080
    321    320    322   1    120.4000    669.4400
    320    322    323   1    111.1000    527.1840
    320    322    334   1    109.5000    292.8800
    320    322    335   1    109.5000    292.8800
    323    322    334   1    110.7000    313.8000
    323    322    335   1    110.7000    313.8000
    334    322    335   1    107.8000    276.1440
    322    323    324   1    111.1000    527.1840
    322    323    336   1    110.7000    313.8000
    322    323    337   1    110.7000    313.8000
    324    323    336   1    109.5000    292.8800
    324    323    337   1    109.5000    292.8800
    336    323    337   1    107.8000    276.1440
    323    324    325   1    120.4000    669.4400
    323    324    338   1    111.4000    677.8080
    325    324    338   1    123.4000    694.5440
    324    338    339   1    116.9000    694.5440
    338    339    340   1    109.5000    418.4000
    338    339    350   1    109.5000    292.8800
    338    339    351   1    109.5000    292.8800
    340    339    350   1    110.7000    313.8000
    340    339    351   1    110.7000    313.8000
    350    339    351   1    107.8000    276.1440
    339    340    341   1    112.7000    488.2728
    339    340    352   1    110.7000    313.8000
    339    340    353   1    110.7000    313.8000
    341    340    352   1    110.7000    313.8000
    341    340    353   1    110.7000    313.8000
    352    340    353   1    107.8000    276.1440
    340    341    342   1    112.7000    488.2728
    340    341    354   1    110.7000    313.8000
    340    341    355   1    110.7000    313.8000
    342    341    354   1    110.7000    313.8000
    342    341    355   1    110.7000    313.8000
    354    341    355   1    107.8000    276.1440
    341    342    343   1    109.5000    418.4000
    341    342    356   1    110.7000    313.8000
    341    342    357   1    110.7000    313.8000
    343    342    356   1    109.5000    292.8800
    343    342    357   1    109.5000    292.8800
    356    342    357   1    107.8000    276.1440
    342    343    344   1    116.9000    694.5440
    343    344    345   1    123.4000    694.5440
    343    344    346   1    111.4000    677.8080
    345    344    346   1    120.4000    669.4400
    344    346    347   1    111.1000    527.1840
    344    346    358   1    109.5000    292.8800
    344    346    359   1    109.5000    292.8800
    347    346    358   1    110.7000    313.8000
    347    346    359   1    110.7000    313.8000
    358    346    359   1    107.8000    276.1440
    346    347    348   1    111.1000    527.1840
    346    347    360   1    110.7000    313.8000
    346    347    361   1    110.7000    313.8000
    348    347    360   1    109.5000    292.8800
    348    347    361   1    109.5000    292.8800
    360    347    361   1    107.8000    276.1440
    347    348    349   1    120.4000    669.4400
    347    348    362   1    111.4000    677.8080
    349    348    362   1    123.4000    694.5440
    348    362    363   1    116.9000    694.5440
    362    363    364   1    109.5000    418.4000
    362    363    374   1    109.5000    292.8800
    362    363    375   1    109.5000    292.8800
    364    363    374   1    110.7000    313.8000
    364    363    375   1    110.7000    313.8000
    374    363    375   1    107.8000    276.1440
    363    364    365   1    112.7000    488.2728
    363    364    376   1    110.7000    313.8000
    363    364    377   1    110.7000    313.8000
    365    364    376   1    110.7000    313.8000
    365    364    377   1    110.7000    313.8000
    376    364    377   1    107.8000    276.1440
    364    365    366   1    112.7000    488.2728
    364    365    378   1    110.7000    313.8000
    364    365    379   1    110.7000    313.8000
    366    365    378   1    110.7000    313.8000
    366    365    379   1    110.7000    313.8000
    378    365    379   1    107.8000    276.1440
    365    366    367   1    109.5000    418.4000
    365    366    380   1    110.7000    313.8000
    365    366    381   1    110.7000    313.8000
    367    366    380   1    109.5000    292.8800
    367    366    381   1    109.5000    292.8800
    380    366    381   1    107.8000    276.1440
    366    367    368   1    116.9000    694.5440
    367    368    369   1    123.4000    694.5440
    367    368    370   1    111.4000    677.8080
    369    368    370   1    120.4000    669.4400
    368    370    371   1    111.1000    527.1840
    368    370    382   1    109.5000    292.8800
    368    370    383   1    109.5000    292.8800
    371    370    382   1    110.7000    313.8000
    371    370    383   1    110.7000    313.8000
    382    370    383   1    107.8000    276.1440
    370    371    372   1    111.1000    527.1840
    370    371    384   1    110.7000    313.8000
    370    371    385   1    110.7000    313.8000
    372    371    384   1    109.5000    292.8800
    372    371    385   1    109.5000    292.8800
    384    371    385   1    107.8000    276.1440
    371    372    373   1    120.4000    669.4400
    371    372    386   1    111.4000    677.8080
    373    372    386   1    123.4000    694.5440
    372    386    387   1    116.9000    694.5440
    386    387    388   1    109.5000    418.4000
    386    387    398   1    109.5000    292.8800
    386    387    399   1    109.5000    292.8800
    388    387    398   1    110.7000    313.8000
    388    387    399   1    110.7000    313.8000
    398    387    399   1    107.8000    276.1440
    387    388    389   1    112.7000    488.2728
    387    388    400   1    110.7000    313.8000
    387    388    401   1    110.7000    313.8000
    389    388    400   1    110.7000    313.8000
    389    388    401   1    110.7000    313.8000
    400    388    401   1    107.8000    276.1440
    388    389    390   1    112.7000    488.2728
    388    389    402   1    110.7000    313.8000
    388    389    403   1    110.7000    313.8000
    390    389    402   1    110.7000    313.8000
    390    389    403   1    110.7000    313.8000
    402    389    403   1    107.8000    276.1440
    389    390    391   1    109.5000    418.4000
    389    390    404   1    110.7000    313.8000
    389    390    405   1    110.7000    313.8000
    391    390    404   1    109.5000    292.8800
    391    390    405   1    109.5000    292.8800
    404    390    405   1    107.8000    276.1440
    390    391    392   1    116.9000    694.5440
    391    392    393   1    123.4000    694.5440
    391    392    394   1    111.4000    677.8080
    393    392    394   1    120.4000    669.4400
    392    394    395   1    111.1000    527.1840
    392    394    406   1    109.5000    292.8800
    392    394    407   1    109.5000    292.8800
    395    394    406   1    110.7000    313.8000
    395    394    407   1    110.7000    313.8000
    406    394    407   1    107.8000    276.1440
    394    395    396   1    111.1000    527.1840
    394    395    408   1    110.7000    313.8000
    394    395    409   1    110.7000    313.8000
    396    395    408   1    109.5000    292.8800
    396    395    409   1    109.5000    292.8800
    408    395    409   1    107.8000    276.1440
    395    396    397   1    120.4000    669.4400
    395    396    410   1    111.4000    677.8080
    397    396    410   1    123.4000    694.5440
    396    410    411   1    116.9000    694.5440
    410    411    412   1    109.5000    418.4000
    410    411    422   1    109.5000    292.8800
    410    411    423   1    109.5000    292.8800
    412    411    422   1    110.7000    313.8000
    412    411    423   1    110.7000    313.8000
    422    411    423   1    107.8000    276.1440
    411    412    413   1    112.7000    488.2728
    411    412    424   1    110.7000    313.8000
    411    412    425   1    110.7000    313.8000
    413    412    424   1    110.7000    313.8000
    413    412    425   1    110.7000    313.8000
    424    412    425   1    107.8000    276.1440
    412    413    414   1    112.7000    488.2728
    412    413    426   1    110.7000    313.8000
    412    413    427   1    110.7000    313.8000
    414    413    426   1    110.7000    313.8000
    414    413    427   1    110.7000    313.8000
    426    413    427   1    107.8000    276.1440
    413    414    415   1    109.5000    418.4000
    413    414    428   1    110.7000    313.8000
    413    414    429   1    110.7000    313.8000
    415    414    428   1    109.5000    292.8800
    415    414    429   1    109.5000    292.8800
    428    414    429   1    107.8000    276.1440
    414    415    416   1    116.9000    694.5440
    415    416    417   1    123.4000    694.5440
    415    416    418   1    111.4000    677.8080
    417    416    418   1    120.4000    669.4400
    416    418    419   1    111.1000    527.1840
    416    418    430   1    109.5000    292.8800
    416    418    431   1    109.5000    292.8800
    419    418    430   1    110.7000    313.8000
    419    418    431   1    110.7000    313.8000
    430    418    431   1    107.8000    276.1440
    418    419    420   1    111.1000    527.1840
    418    419    432   1    110.7000    313.8000
    418    419    433   1    110.7000    313.8000
    420    419    432   1    109.5000    292.8800
    420    419    433   1    109.5000    292.8800
    432    419    433   1    107.8000    276.1440
    419    420    421   1    120.4000    669.4400
    419    420    434   1    111.4000    677.8080
    421    420    434   1    123.4000    694.5440
    420    434    435   1    116.9000    694.5440
    434    435    436   1    109.5000    418.4000
    434    435    446   1    109.5000    292.8800
    434    435    447   1    109.5000    292.8800
    436    435    446   1    110.7000    313.8000
    436    435    447   1    110.7000    313.8000
    446    435    447   1    107.8000    276.1440
    435    436    437   1    112.7000    488.2728
    435    436    448   1    110.7000    313.8000
    435    436    449   1    110.7000    313.8000
    437    436    448   1    110.7000    313.8000
    437    436    449   1    110.7000    313.8000
    448    436    449   1    107.8000    276.1440
    436    437    438   1    112.7000    488.2728
    436    437    450   1    110.7000    313.8000
    436    437    451   1    110.7000    313.8000
    438    437    450   1    110.7000    313.8000
    438    437    451   1    110.7000    313.8000
    450    437    451   1    107.8000    276.1440
    437    438    439   1    109.5000    418.4000
    437    438    452   1    110.7000    313.8000
    437    438    453   1    110.7000    313.8000
    439    438    452   1    109.5000    292.8800
    439    438    453   1    109.5000    292.8800
    452    438    453   1    107.8000    276.1440
    438    439    440   1    116.9000    694.5440
    439    440    441   1    123.4000    694.5440
    439    440    442   1    111.4000    677.8080
    441    440    442   1    120.4000    669.4400
    440    442    443   1    111.1000    527.1840
    440    442    454   1    109.5000    292.8800
    440    442    455   1    109.5000    292.8800
    443    442    454   1    110.7000    313.8000
    443    442    455   1    110.7000    313.8000
    454    442    455   1    107.8000    276.1440
    442    443    444   1    111.1000    527.1840
    442    443    456   1    110.7000    313.8000
    442    443    457   1    110.7000    313.8000
    444    443    456   1    109.5000    292.8800
    444    443    457   1    109.5000    292.8800
    456    443    457   1    107.8000    276.1440
    443    444    445   1    120.4000    669.4400
    443    444    458   1    111.4000    677.8080
    445    444    458   1    123.4000    694.5440
    444    458    459   1    116.9000    694.5440
    458    459    460   1    109.5000    418.4000
    458    459    470   1    109.5000    292.8800
    458    459    471   1    109.5000    292.8800
    460    459    470   1    110.7000    313.8000
    460    459    471   1    110.7000    313.8000
    470    459    471   1    107.8000    276.1440
    459    460    461   1    112.7000    488.2728
    459    460    472   1    110.7000    313.8000
    459    460    473   1    110.7000    313.8000
    461    460    472   1    110.7000    313.8000
    461    460    473   1    110.7000    313.8000
    472    460    473   1    107.8000    276.1440
    460    461    462   1    112.7000    488.2728
    460    461    474   1    110.7000    313.8000
    460    461    475   1    110.7000    313.8000
    462    461    474   1    110.7000    313.8000
    462    461    475   1    110.7000    313.8000
    474    461    475   1    107.8000    276.1440
    461    462    463   1    109.5000    418.4000
    461    462    476   1    110.7000    313.8000
    461    462    477   1    110.7000    313.8000
    463    462    476   1    109.5000    292.8800
    463    462    477   1    109.5000    292.8800
    476    462    477   1    107.8000    276.1440
    462    463    464   1    116.9000    694.5440
    463    464    465   1    123.4000    694.5440
    463    464    466   1    111.4000    677.8080
    465    464    466   1    120.4000    669.4400
    464    466    467   1    111.1000    527.1840
    464    466    478   1    109.5000    292.8800
    464    466    479   1    109.5000    292.8800
    467    466    478   1    110.7000    313.8000
    467    466    479   1    110.7000    313.8000
    478    466    479   1    107.8000    276.1440
    466    467    468   1    111.1000    527.1840
    466    467    480   1    110.7000    313.8000
    466    467    481   1    110.7000    313.8000
    468    467    480   1    109.5000    292.8800
    468    467    481   1    109.5000    292.8800
    480    467    481   1    107.8000    276.1440
    467    468    469   1    120.4000    669.4400
    467    468    482   1    115.0000    292.8800
    469    468    482   1    123.0000    292.8800

[ dihedrals ]
; Proper dihedrals
     25      1      2      3   5    -0.97069    -0.79078     1.77820  0.0
     25      1      2     13   5     0.00000     0.00000     1.62758  0.0
     25      1      2     14   5     0.00000     0.00000     1.62758  0.0
      1      2      3      4   5     7.23832    -1.46440     1.74054  0.0
      1      2      3     15   5     0.00000     0.00000     1.95811  0.0
      1      2      3     16   5     0.00000     0.00000     1.95811  0.0
     13      2      3      4   5     0.00000     0.00000     1.25520  0.0
     13      2      3     15   5     0.00000     0.00000     1.25520  0.0
     13      2      3     16   5     0.00000     0.00000     1.25520  0.0
     14      2      3      4   5     0.00000     0.00000     1.25520  0.0
     14      2      3     15   5     0.00000     0.00000     1.25520  0.0
     14      2      3     16   5     0.00000     0.00000     1.25520  0.0
      2      3      4      5   5     4.74884    -0.63178     1.67360  0.0
      2      3      4     17   5     0.00000     0.00000     1.25520  0.0
      2      3      4     18   5     0.00000     0.00000     1.25520  0.0
     15      3      4      5   5     0.00000     0.00000     1.25520  0.0
     15      3      4     17   5     0.00000     0.00000     1.25520  0.0
     15      3      4     18   5     0.00000     0.00000     1.25520  0.0
     16      3      4      5   5     0.00000     0.00000     1.25520  0.0
     16      3      4     17   5     0.00000     0.00000     1.25520  0.0
     16      3      4     18   5     0.00000     0.00000     1.25520  0.0
      3      4      5      6   5     5.25092    -2.58990     2.28446  0.0
      3      4      5     19   5     0.00000     0.00000     1.25520  0.0
      3      4      5     20   5     0.00000     0.00000     1.25520  0.0
     17      4      5      6   5     0.00000     0.00000     1.95811  0.0
     17      4      5     19   5     0.00000     0.00000     1.25520  0.0
     17      4      5     20   5     0.00000     0.00000     1.25520  0.0
     18      4      5      6   5     0.00000     0.00000     1.95811  0.0
     18      4      5     19   5     0.00000     0.00000     1.25520  0.0
     18      4      5     20   5     0.00000     0.00000     1.25520  0.0
      4      5      6      7   5    -2.16731    -3.93296     0.98324  0.0
     19      5      6      7   5     0.00000     0.00000     0.67362  0.0
     20      5      6      7   5     0.00000     0.00000     0.67362  0.0
      5      6      7      8   5     0.00000    25.10400     0.00000  0.0
      5      6      7      9   5    13.65239    24.43456     0.00000  0.0
      6      7      9     10   5     0.00000     0.00000     3.07524  0.0
      6      7      9     21   5     0.00000     0.00000     0.00000  0.0
      6      7      9     22   5     0.00000     0.00000     0.00000  0.0
      8      7      9     10   5     0.00000     2.52295     0.00000  0.0
      8      7      9     21   5     0.00000     0.00000     0.00000  0.0
      8      7      9     22   5     0.00000     0.00000     0.00000  0.0
      7      9     10     11   5     0.99998     1.69870    -5.92454  0.0
      7      9     10     23   5     0.00000     0.00000    -0.94140  0.0
      7      9     10     24   5     0.00000     0.00000    -0.94140  0.0
     21      9     10     11   5     0.00000     0.00000    -0.94140  0.0
     21      9     10     23   5     0.00000     0.00000     1.25520  0.0
     21      9     10     24   5     0.00000     0.00000     1.25520  0.0
     22      9     10     11   5     0.00000     0.00000    -0.94140  0.0
     22      9     10     23   5     0.00000     0.00000     1.25520  0.0
     22      9     10     24   5     0.00000     0.00000     1.25520  0.0
      9     10     11     12   5     0.00000     2.52295     0.00000  0.0
      9     10     11     26   5     0.00000     0.00000     3.07524  0.0
     23     10     11     12   5     0.00000     0.00000     0.00000  0.0
     23     10     11     26   5     0.00000     0.00000     0.00000  0.0
     24     10     11     12   5     0.00000     0.00000     0.00000  0.0
     24     10     11     26   5     0.00000     0.00000     0.00000  0.0
     10     11     26     27   5    13.65239    24.43456     0.00000  0.0
     12     11     26     27   5     0.00000    25.10400     0.00000  0.0
     11     26     27     28   5    -2.16731    -3.93296     0.98324  0.0
     11     26     27     38   5     0.00000     0.00000     0.67362  0.0
     11     26     27     39   5     0.00000     0.00000     0.67362  0.0
     26     27     28     29   5     5.25092    -2.58990     2.28446  0.0
     26     27     28     40   5     0.00000     0.00000     1.95811  0.0
     26     27     28     41   5     0.00000     0.00000     1.95811  0.0
     38     27     28     29   5     0.00000     0.00000     1.25520  0.0
     38     27     28     40   5     0.00000     0.00000     1.25520  0.0
     38     27     28     41   5     0.00000     0.00000     1.25520  0.0
     39     27     28     29   5     0.00000     0.00000     1.25520  0.0
     39     27     28     40   5     0.00000     0.00000     1.25520  0.0
     39     27     28     41   5     0.00000     0.00000     1.25520  0.0
     27     28     29     30   5     4.74884    -0.63178     1.67360  0.0
     27     28     29     42   5     0.00000     0.00000     1.25520  0.0
     27     28     29     43   5     0.00000     0.00000     1.25520  0.0
     40     28     29     30   5     0.00000     0.00000     1.25520  0.0
     40     28     29     42   5     0.00000     0.00000     1.25520  0.0
     40     28     29     43   5     0.00000     0.00000     1.25520  0.0
     41     28     29     30   5     0.00000     0.00000     1.25520  0.0
     41     28     29     42   5     0.00000     0.00000     1.25520  0.0
     41     28     29     43   5     0.00000     0.00000     1.25520  0.0
     28     29     30     31   5     5.25092    -2.58990     2.28446  0.0
     28     29     30     44   5     0.00000     0.00000     1.25520  0.0
     28     29     30     45   5     0.00000     0.00000     1.25520  0.0
     42     29     30     31   5     0.00000     0.00000     1.95811  0.0
     42     29     30     44   5     0.00000     0.00000     1.25520  0.0
     42     29     30     45   5     0.00000     0.00000     1.25520  0.0
     43     29     30     31   5     0.00000     0.00000     1.95811  0.0
     43     29     30     44   5     0.00000     0.00000     1.25520  0.0
     43     29     30     45   5     0.00000     0.00000     1.25520  0.0
     29     30     31     32   5    -2.16731    -3.93296     0.98324  0.0
     44     30     31     32   5     0.00000     0.00000     0.67362  0.0
     45     30     31     32   5     0.00000     0.00000     0.67362  0.0
     30     31     32     33   5     0.00000    25.10400     0.00000  0.0
     30     31     32     34   5    13.65239    24.43456     0.00000  0.0
     31     32     34     35   5     0.00000     0.00000     3.07524  0.0
     31     32     34     46   5     0.00000     0.00000     0.00000  0.0
     31     32     34     47   5     0.00000     0.00000     0.00000  0.0
     33     32     34     35   5     0.00000     2.52295     0.00000  0.0
     33     32     34     46   5     0.00000     0.00000     0.00000  0.0
     33     32     34     47   5     0.00000     0.00000     0.00000  0.0
     32     34     35     36   5     0.99998     1.69870    -5.92454  0.0
     32     34     35     48   5     0.00000     0.00000    -0.94140  0.0
     32     34     35     49   5     0.00000     0.00000    -0.94140  0.0
     46     34     35     36   5     0.00000     0.00000    -0.94140  0.0
     46     34     35     48   5     0.00000     0.00000     1.25520  0.0
     46     34     35     49   5     0.00000     0.00000     1.25520  0.0
     47     34     35     36   5     0.00000     0.00000    -0.94140  0.0
     47     34     35     48   5     0.00000     0.00000     1.25520  0.0
     47     34     35     49   5     0.00000     0.00000     1.25520  0.0
     34     35     36     37   5     0.00000     2.52295     0.00000  0.0
     34     35     36     50   5     0.00000     0.00000     3.07524  0.0
     48     35     36     37   5     0.00000     0.00000     0.00000  0.0
     48     35     36     50   5     0.00000     0.00000     0.00000  0.0
     49     35     36     37   5     0.00000     0.00000     0.00000  0.0
     49     35     36     50   5     0.00000     0.00000     0.00000  0.0
     35     36     50     51   5    13.65239    24.43456     0.00000  0.0
     37     36     50     51   5     0.00000    25.10400     0.00000  0.0
     36     50     51     52   5    -2.16731    -3.93296     0.98324  0.0
     36     50     51     62   5     0.00000     0.00000     0.67362  0.0
     36     50     51     63   5     0.00000     0.00000     0.67362  0.0
     50     51     52     53   5     5.25092    -2.58990     2.28446  0.0
     50     51     52     64   5     0.00000     0.00000     1.95811  0.0
     50     51     52     65   5     0.00000     0.00000     1.95811  0.0
     62     51     52     53   5     0.00000     0.00000     1.25520  0.0
     62     51     52     64   5     0.00000     0.00000     1.25520  0.0
     62     51     52     65   5     0.00000     0.00000     1.25520  0.0
     63     51     52     53   5     0.00000     0.00000     1.25520  0.0
     63     51     52     64   5     0.00000     0.00000     1.25520  0.0
     63     51     52     65   5     0.00000     0.00000     1.25520  0.0
     51     52     53     54   5     4.74884    -0.63178     1.67360  0.0
     51     52     53     66   5     0.00000     0.00000     1.25520  0.0
     51     52     53     67   5     0.00000     0.00000     1.25520  0.0
     64     52     53     54   5     0.00000     0.00000     1.25520  0.0
     64     52     53     66   5     0.00000     0.00000     1.25520  0.0
     64     52     53     67   5     0.00000     0.00000     1.25520  0.0
     65     52     53     54   5     0.00000     0.00000     1.25520  0.0
     65     52     53     66   5     0.00000     0.00000     1.25520  0.0
     65     52     53     67   5     0.00000     0.00000     1.25520  0.0
     52     53     54     55   5     5.25092    -2.58990     2.28446  0.0
     52     53     54     68   5     0.00000     0.00000     1.25520  0.0
     52     53     54     69   5     0.00000     0.00000     1.25520  0.0
     66     53     54     55   5     0.00000     0.00000     1.95811  0.0
     66     53     54     68   5     0.00000     0.00000     1.25520  0.0
     66     53     54     69   5     0.00000     0.00000     1.25520  0.0
     67     53     54     55   5     0.00000     0.00000     1.95811  0.0
     67     53     54     68   5     0.00000     0.00000     1.25520  0.0
     67     53     54     69   5     0.00000     0.00000     1.25520  0.0
     53     54     55     56   5    -2.16731    -3.93296     0.98324  0.0
     68     54     55     56   5     0.00000     0.00000     0.67362  0.0
     69     54     55     56   5     0.00000     0.00000     0.67362  0.0
     54     55     56     57   5     0.00000    25.10400     0.00000  0.0
     54     55     56     58   5    13.65239    24.43456     0.00000  0.0
     55     56     58     59   5     0.00000     0.00000     3.07524  0.0
     55     56     58     70   5     0.00000     0.00000     0.00000  0.0
     55     56     58     71   5     0.00000     0.00000     0.00000  0.0
     57     56     58     59   5     0.00000     2.52295     0.00000  0.0
     57     56     58     70   5     0.00000     0.00000     0.00000  0.0
     57     56     58     71   5     0.00000     0.00000     0.00000  0.0
     56     58     59     60   5     0.99998     1.69870    -5.92454  0.0
     56     58     59     72   5     0.00000     0.00000    -0.94140  0.0
     56     58     59     73   5     0.00000     0.00000    -0.94140  0.0
     70     58     59     60   5     0.00000     0.00000    -0.94140  0.0
     70     58     59     72   5     0.00000     0.00000     1.25520  0.0
     70     58     59     73   5     0.00000     0.00000     1.25520  0.0
     71     58     59     60   5     0.00000     0.00000    -0.94140  0.0
     71     58     59     72   5     0.00000     0.00000     1.25520  0.0
     71     58     59     73   5     0.00000     0.00000     1.25520  0.0
     58     59     60     61   5     0.00000     2.52295     0.00000  0.0
     58     59     60     74   5     0.00000     0.00000     3.07524  0.0
     72     59     60     61   5     0.00000     0.00000     0.00000  0.0
     72     59     60     74   5     0.00000     0.00000     0.00000  0.0
     73     59     60     61   5     0.00000     0.00000     0.00000  0.0
     73     59     60     74   5     0.00000     0.00000     0.00000  0.0
     59     60     74     75   5    13.65239    24.43456     0.00000  0.0
     61     60     74     75   5     0.00000    25.10400     0.00000  0.0
     60     74     75     76   5    -2.16731    -3.93296     0.98324  0.0
     60     74     75     86   5     0.00000     0.00000     0.67362  0.0
     60     74     75     87   5     0.00000     0.00000     0.67362  0.0
     74     75     76     77   5     5.25092    -2.58990     2.28446  0.0
     74     75     76     88   5     0.00000     0.00000     1.95811  0.0
     74     75     76     89   5     0.00000     0.00000     1.95811  0.0
     86     75     76     77   5     0.00000     0.00000     1.25520  0.0
     86     75     76     88   5     0.00000     0.00000     1.25520  0.0
     86     75     76     89   5     0.00000     0.00000     1.25520  0.0
     87     75     76     77   5     0.00000     0.00000     1.25520  0.0
     87     75     76     88   5     0.00000     0.00000     1.25520  0.0
     87     75     76     89   5     0.00000     0.00000     1.25520  0.0
     75     76     77     78   5     4.74884    -0.63178     1.67360  0.0
     75     76     77     90   5     0.00000     0.00000     1.25520  0.0
     75     76     77     91   5     0.00000     0.00000     1.25520  0.0
     88     76     77     78   5     0.00000     0.00000     1.25520  0.0
     88     76     77     90   5     0.00000     0.00000     1.25520  0.0
     88     76     77     91   5     0.00000     0.00000     1.25520  0.0
     89     76     77     78   5     0.00000     0.00000     1.25520  0.0
     89     76     77     90   5     0.00000     0.00000     1.25520  0.0
     89     76     77     91   5     0.00000     0.00000     1.25520  0.0
     76     77     78     79   5     5.25092    -2.58990     2.28446  0.0
     76     77     78     92   5     0.00000     0.00000     1.25520  0.0
     76     77     78     93   5     0.00000     0.00000     1.25520  0.0
     90     77     78     79   5     0.00000     0.00000     1.95811  0.0
     90     77     78     92   5     0.00000     0.00000     1.25520  0.0
     90     77     78     93   5     0.00000     0.00000     1.25520  0.0
     91     77     78     79   5     0.00000     0.00000     1.95811  0.0
     91     77     78     92   5     0.00000     0.00000     1.25520  0.0
     91     77     78     93   5     0.00000     0.00000     1.25520  0.0
     77     78     79     80   5    -2.16731    -3.93296     0.98324  0.0
     92     78     79     80   5     0.00000     0.00000     0.67362  0.0
     93     78     79     80   5     0.00000     0.00000     0.67362  0.0
     78     79     80     81   5     0.00000    25.10400     0.00000  0.0
     78     79     80     82   5    13.65239    24.43456     0.00000  0.0
     79     80     82     83   5     0.00000     0.00000     3.07524  0.0
     79     80     82     94   5     0.00000     0.00000     0.00000  0.0
     79     80     82     95   5     0.00000     0.00000     0.00000  0.0
     81     80     82     83   5     0.00000     2.52295     0.00000  0.0
     81     80     82     94   5     0.00000     0.00000     0.00000  0.0
     81     80     82     95   5     0.00000     0.00000     0.00000  0.0
     80     82     83     84   5     0.99998     1.69870    -5.92454  0.0
     80     82     83     96   5     0.00000     0.00000    -0.94140  0.0
     80     82     83     97   5     0.00000     0.00000    -0.94140  0.0
     94     82     83     84   5     0.00000     0.00000    -0.94140  0.0
     94     82     83     96   5     0.00000     0.00000     1.25520  0.0
     94     82     83     97   5     0.00000     0.00000     1.25520  0.0
     95     82     83     84   5     0.00000     0.00000    -0.94140  0.0
     95     82     83     96   5     0.00000     0.00000     1.25520  0.0
     95     82     83     97   5     0.00000     0.00000     1.25520  0.0
     82     83     84     85   5     0.00000     2.52295     0.00000  0.0
     82     83     84     98   5     0.00000     0.00000     3.07524  0.0
     96     83     84     85   5     0.00000     0.00000     0.00000  0.0
     96     83     84     98   5     0.00000     0.00000     0.00000  0.0
     97     83     84     85   5     0.00000     0.00000     0.00000  0.0
     97     83     84     98   5     0.00000     0.00000     0.00000  0.0
     83     84     98     99   5    13.65239    24.43456     0.00000  0.0
     85     84     98     99   5     0.00000    25.10400     0.00000  0.0
     84     98     99    100   5    -2.16731    -3.93296     0.98324  0.0
     84     98     99    110   5     0.00000     0.00000     0.67362  0.0
     84     98     99    111   5     0.00000     0.00000     0.67362  0.0
     98     99    100    101   5     5.25092    -2.58990     2.28446  0.0
     98     99    100    112   5     0.00000     0.00000     1.95811  0.0
     98     99    100    113   5     0.00000     0.00000     1.95811  0.0
    110     99    100    101   5     0.00000     0.00000     1.25520  0.0
    110     99    100    112   5     0.00000     0.00000     1.25520  0.0
    110     99    100    113   5     0.00000     0.00000     1.25520  0.0
    111     99    100    101   5     0.00000     0.00000     1.25520  0.0
    111     99    100    112   5     0.00000     0.00000     1.25520  0.0
    111     99    100    113   5     0.00000     0.00000     1.25520  0.0
     99    100    101    102   5     4.74884    -0.63178     1.67360  0.0
     99    100    101    114   5     0.00000     0.00000     1.25520  0.0
     99    100    101    115   5     0.00000     0.00000     1.25520  0.0
    112    100    101    102   5     0.00000     0.00000     1.25520  0.0
    112    100    101    114   5     0.00000     0.00000     1.25520  0.0
    112    100    101    115   5     0.00000     0.00000     1.25520  0.0
    113    100    101    102   5     0.00000     0.00000     1.25520  0.0
    113    100    101    114   5     0.00000     0.00000     1.25520  0.0
    113    100    101    115   5     0.00000     0.00000     1.25520  0.0
    100    101    102    103   5     5.25092    -2.58990     2.28446  0.0
    100    101    102    116   5     0.00000     0.00000     1.25520  0.0
    100    101    102    117   5     0.00000     0.00000     1.25520  0.0
    114    101    102    103   5     0.00000     0.00000     1.95811  0.0
    114    101    102    116   5     0.00000     0.00000     1.25520  0.0
    114    101    102    117   5     0.00000     0.00000     1.25520  0.0
    115    101    102    103   5     0.00000     0.00000     1.95811  0.0
    115    101    102    116   5     0.00000     0.00000     1.25520  0.0
    115    101    102    117   5     0.00000     0.00000     1.25520  0.0
    101    102    103    104   5    -2.16731    -3.93296     0.98324  0.0
    116    102    103    104   5     0.00000     0.00000     0.67362  0.0
    117    102    103    104   5     0.00000     0.00000     0.67362  0.0
    102    103    104    105   5     0.00000    25.10400     0.00000  0.0
    102    103    104    106   5    13.65239    24.43456     0.00000  0.0
    103    104    106    107   5     0.00000     0.00000     3.07524  0.0
    103    104    106    118   5     0.00000     0.00000     0.00000  0.0
    103    104    106    119   5     0.00000     0.00000     0.00000  0.0
    105    104    106    107   5     0.00000     2.52295     0.00000  0.0
    105    104    106    118   5     0.00000     0.00000     0.00000  0.0
    105    104    106    119   5     0.00000     0.00000     0.00000  0.0
    104    106    107    108   5     0.99998     1.69870    -5.92454  0.0
    104    106    107    120   5     0.00000     0.00000    -0.94140  0.0
    104    106    107    121   5     0.00000     0.00000    -0.94140  0.0
    118    106    107    108   5     0.00000     0.00000    -0.94140  0.0
    118    106    107    120   5     0.00000     0.00000     1.25520  0.0
    118    106    107    121   5     0.00000     0.00000     1.25520  0.0
    119    106    107    108   5     0.00000     0.00000    -0.94140  0.0
    119    106    107    120   5     0.00000     0.00000     1.25520  0.0
    119    106    107    121   5     0.00000     0.00000     1.25520  0.0
    106    107    108    109   5     0.00000     2.52295     0.00000  0.0
    106    107    108    122   5     0.00000     0.00000     3.07524  0.0
    120    107    108    109   5     0.00000     0.00000     0.00000  0.0
    120    107    108    122   5     0.00000     0.00000     0.00000  0.0
    121    107    108    109   5     0.00000     0.00000     0.00000  0.0
    121    107    108    122   5     0.00000     0.00000     0.00000  0.0
    107    108    122    123   5    13.65239    24.43456     0.00000  0.0
    109    108    122    123   5     0.00000    25.10400     0.00000  0.0
    108    122    123    124   5    -2.16731    -3.93296     0.98324  0.0
    108    122    123    134   5     0.00000     0.00000     0.67362  0.0
    108    122    123    135   5     0.00000     0.00000     0.67362  0.0
    122    123    124    125   5     5.25092    -2.58990     2.28446  0.0
    122    123    124    136   5     0.00000     0.00000     1.95811  0.0
    122    123    124    137   5     0.00000     0.00000     1.95811  0.0
    134    123    124    125   5     0.00000     0.00000     1.25520  0.0
    134    123    124    136   5     0.00000     0.00000     1.25520  0.0
    134    123    124    137   5     0.00000     0.00000     1.25520  0.0
    135    123    124    125   5     0.00000     0.00000     1.25520  0.0
    135    123    124    136   5     0.00000     0.00000     1.25520  0.0
    135    123    124    137   5     0.00000     0.00000     1.25520  0.0
    123    124    125    126   5     4.74884    -0.63178     1.67360  0.0
    123    124    125    138   5     0.00000     0.00000     1.25520  0.0
    123    124    125    139   5     0.00000     0.00000     1.25520  0.0
    136    124    125    126   5     0.00000     0.00000     1.25520  0.0
    136    124    125    138   5     0.00000     0.00000     1.25520  0.0
    136    124    125    139   5     0.00000     0.00000     1.25520  0.0
    137    124    125    126   5     0.00000     0.00000     1.25520  0.0
    137    124    125    138   5     0.00000     0.00000     1.25520  0.0
    137    124    125    139   5     0.00000     0.00000     1.25520  0.0
    124    125    126    127   5     5.25092    -2.58990     2.28446  0.0
    124    125    126    140   5     0.00000     0.00000     1.25520  0.0
    124    125    126    141   5     0.00000     0.00000     1.25520  0.0
    138    125    126    127   5     0.00000     0.00000     1.95811  0.0
    138    125    126    140   5     0.00000     0.00000     1.25520  0.0
    138    125    126    141   5     0.00000     0.00000     1.25520  0.0
    139    125    126    127   5     0.00000     0.00000     1.95811  0.0
    139    125    126    140   5     0.00000     0.00000     1.25520  0.0
    139    125    126    141   5     0.00000     0.00000     1.25520  0.0
    125    126    127    128   5    -2.16731    -3.93296     0.98324  0.0
    140    126    127    128   5     0.00000     0.00000     0.67362  0.0
    141    126    127    128   5     0.00000     0.00000     0.67362  0.0
    126    127    128    129   5     0.00000    25.10400     0.00000  0.0
    126    127    128    130   5    13.65239    24.43456     0.00000  0.0
    127    128    130    131   5     0.00000     0.00000     3.07524  0.0
    127    128    130    142   5     0.00000     0.00000     0.00000  0.0
    127    128    130    143   5     0.00000     0.00000     0.00000  0.0
    129    128    130    131   5     0.00000     2.52295     0.00000  0.0
    129    128    130    142   5     0.00000     0.00000     0.00000  0.0
    129    128    130    143   5     0.00000     0.00000     0.00000  0.0
    128    130    131    132   5     0.99998     1.69870    -5.92454  0.0
    128    130    131    144   5     0.00000     0.00000    -0.94140  0.0
    128    130    131    145   5     0.00000     0.00000    -0.94140  0.0
    142    130    131    132   5     0.00000     0.00000    -0.94140  0.0
    142    130    131    144   5     0.00000     0.00000     1.25520  0.0
    142    130    131    145   5     0.00000     0.00000     1.25520  0.0
    143    130    131    132   5     0.00000     0.00000    -0.94140  0.0
    143    130    131    144   5     0.00000     0.00000     1.25520  0.0
    143    130    131    145   5     0.00000     0.00000     1.25520  0.0
    130    131    132    133   5     0.00000     2.52295     0.00000  0.0
    130    131    132    146   5     0.00000     0.00000     3.07524  0.0
    144    131    132    133   5     0.00000     0.00000     0.00000  0.0
    144    131    132    146   5     0.00000     0.00000     0.00000  0.0
    145    131    132    133   5     0.00000     0.00000     0.00000  0.0
    145    131    132    146   5     0.00000     0.00000     0.00000  0.0
    131    132    146    147   5    13.65239    24.43456     0.00000  0.0
    133    132    146    147   5     0.00000    25.10400     0.00000  0.0
    132    146    147    148   5    -2.16731    -3.93296     0.98324  0.0
    132    146    147    158   5     0.00000     0.00000     0.67362  0.0
    132    146    147    159   5     0.00000     0.00000     0.67362  0.0
    146    147    148    149   5     5.25092    -2.58990     2.28446  0.0
    146    147    148    160   5     0.00000     0.00000     1.95811  0.0
    146    147    148    161   5     0.00000     0.00000     1.95811  0.0
    158    147    148    149   5     0.00000     0.00000     1.25520  0.0
    158    147    148    160   5     0.00000     0.00000     1.25520  0.0
    158    147    148    161   5     0.00000     0.00000     1.25520  0.0
    159    147    148    149   5     0.00000     0.00000     1.25520  0.0
    159    147    148    160   5     0.00000     0.00000     1.25520  0.0
    159    147    148    161   5     0.00000     0.00000     1.25520  0.0
    147    148    149    150   5     4.74884    -0.63178     1.67360  0.0
    147    148    149    162   5     0.00000     0.00000     1.25520  0.0
    147    148    149    163   5     0.00000     0.00000     1.25520  0.0
    160    148    149    150   5     0.00000     0.00000     1.25520  0.0
    160    148    149    162   5     0.00000     0.00000     1.25520  0.0
    160    148    149    163   5     0.00000     0.00000     1.25520  0.0
    161    148    149    150   5     0.00000     0.00000     1.25520  0.0
    161    148    149    162   5     0.00000     0.00000     1.25520  0.0
    161    148    149    163   5     0.00000     0.00000     1.25520  0.0
    148    149    150    151   5     5.25092    -2.58990     2.28446  0.0
    148    149    150    164   5     0.00000     0.00000     1.25520  0.0
    148    149    150    165   5     0.00000     0.00000     1.25520  0.0
    162    149    150    151   5     0.00000     0.00000     1.95811  0.0
    162    149    150    164   5     0.00000     0.00000     1.25520  0.0
    162    149    150    165   5     0.00000     0.00000     1.25520  0.0
    163    149    150    151   5     0.00000     0.00000     1.95811  0.0
    163    149    150    164   5     0.00000     0.00000     1.25520  0.0
    163    149    150    165   5     0.00000     0.00000     1.25520  0.0
    149    150    151    152   5    -2.16731    -3.93296     0.98324  0.0
    164    150    151    152   5     0.00000     0.00000     0.67362  0.0
    165    150    151    152   5     0.00000     0.00000     0.67362  0.0
    150    151    152    153   5     0.00000    25.10400     0.00000  0.0
    150    151    152    154   5    13.65239    24.43456     0.00000  0.0
    151    152    154    155   5     0.00000     0.00000     3.07524  0.0
    151    152    154    166   5     0.00000     0.00000     0.00000  0.0
    151    152    154    167   5     0.00000     0.00000     0.00000  0.0
    153    152    154    155   5     0.00000     2.52295     0.00000  0.0
    153    152    154    166   5     0.00000     0.00000     0.00000  0.0
    153    152    154    167   5     0.00000     0.00000     0.00000  0.0
    152    154    155    156   5     0.99998     1.69870    -5.92454  0.0
    152    154    155    168   5     0.00000     0.00000    -0.94140  0.0
    152    154    155    169   5     0.00000     0.00000    -0.94140  0.0
    166    154    155    156   5     0.00000     0.00000    -0.94140  0.0
    166    154    155    168   5     0.00000     0.00000     1.25520  0.0
    166    154    155    169   5     0.00000     0.00000     1.25520  0.0
    167    154    155    156   5     0.00000     0.00000    -0.94140  0.0
    167    154    155    168   5     0.00000     0.00000     1.25520  0.0
    167    154    155    169   5     0.00000     0.00000     1.25520  0.0
    154    155    156    157   5     0.00000     2.52295     0.00000  0.0
    154    155    156    170   5     0.00000     0.00000     3.07524  0.0
    168    155    156    157   5     0.00000     0.00000     0.00000  0.0
    168    155    156    170   5     0.00000     0.00000     0.00000  0.0
    169    155    156    157   5     0.00000     0.00000     0.00000  0.0
    169    155    156    170   5     0.00000     0.00000     0.00000  0.0
    155    156    170    171   5    13.65239    24.43456     0.00000  0.0
    157    156    170    171   5     0.00000    25.10400     0.00000  0.0
    156    170    171    172   5    -2.16731    -3.93296     0.98324  0.0
    156    170    171    182   5     0.00000     0.00000     0.67362  0.0
    156    170    171    183   5     0.00000     0.00000     0.67362  0.0
    170    171    172    173   5     5.25092    -2.58990     2.28446  0.0
    170    171    172    184   5     0.00000     0.00000     1.95811  0.0
    170    171    172    185   5     0.00000     0.00000     1.95811  0.0
    182    171    172    173   5     0.00000     0.00000     1.25520  0.0
    182    171    172    184   5     0.00000     0.00000     1.25520  0.0
    182    171    172    185   5     0.00000     0.00000     1.25520  0.0
    183    171    172    173   5     0.00000     0.00000     1.25520  0.0
    183    171    172    184   5     0.00000     0.00000     1.25520  0.0
    183    171    172    185   5     0.00000     0.00000     1.25520  0.0
    171    172    173    174   5     4.74884    -0.63178     1.67360  0.0
    171    172    173    186   5     0.00000     0.00000     1.25520  0.0
    171    172    173    187   5     0.00000     0.00000     1.25520  0.0
    184    172    173    174   5     0.00000     0.00000     1.25520  0.0
    184    172    173    186   5     0.00000     0.00000     1.25520  0.0
    184    172    173    187   5     0.00000     0.00000     1.25520  0.0
    185    172    173    174   5     0.00000     0.00000     1.25520  0.0
    185    172    173    186   5     0.00000     0.00000     1.25520  0.0
    185    172    173    187   5     0.00000     0.00000     1.25520  0.0
    172    173    174    175   5     5.25092    -2.58990     2.28446  0.0
    172    173    174    188   5     0.00000     0.00000     1.25520  0.0
    172    173    174    189   5     0.00000     0.00000     1.25520  0.0
    186    173    174    175   5     0.00000     0.00000     1.95811  0.0
    186    173    174    188   5     0.00000     0.00000     1.25520  0.0
    186    173    174    189   5     0.00000     0.00000     1.25520  0.0
    187    173    174    175   5     0.00000     0.00000     1.95811  0.0
    187    173    174    188   5     0.00000     0.00000     1.25520  0.0
    187    173    174    189   5     0.00000     0.00000     1.25520  0.0
    173    174    175    176   5    -2.16731    -3.93296     0.98324  0.0
    188    174    175    176   5     0.00000     0.00000     0.67362  0.0
    189    174    175    176   5     0.00000     0.00000     0.67362  0.0
    174    175    176    177   5     0.00000    25.10400     0.00000  0.0
    174    175    176    178   5    13.65239    24.43456     0.00000  0.0
    175    176    178    179   5     0.00000     0.00000     3.07524  0.0
    175    176    178    190   5     0.00000     0.00000     0.00000  0.0
    175    176    178    191   5     0.00000     0.00000     0.00000  0.0
    177    176    178    179   5     0.00000     2.52295     0.00000  0.0
    177    176    178    190   5     0.00000     0.00000     0.00000  0.0
    177    176    178    191   5     0.00000     0.00000     0.00000  0.0
    176    178    179    180   5     0.99998     1.69870    -5.92454  0.0
    176    178    179    192   5     0.00000     0.00000    -0.94140  0.0
    176    178    179    193   5     0.00000     0.00000    -0.94140  0.0
    190    178    179    180   5     0.00000     0.00000    -0.94140  0.0
    190    178    179    192   5     0.00000     0.00000     1.25520  0.0
    190    178    179    193   5     0.00000     0.00000     1.25520  0.0
    191    178    179    180   5     0.00000     0.00000    -0.94140  0.0
    191    178    179    192   5     0.00000     0.00000     1.25520  0.0
    191    178    179    193   5     0.00000     0.00000     1.25520  0.0
    178    179    180    181   5     0.00000     2.52295     0.00000  0.0
    178    179    180    194   5     0.00000     0.00000     3.07524  0.0
    192    179    180    181   5     0.00000     0.00000     0.00000  0.0
    192    179    180    194   5     0.00000     0.00000     0.00000  0.0
    193    179    180    181   5     0.00000     0.00000     0.00000  0.0
    193    179    180    194   5     0.00000     0.00000     0.00000  0.0
    179    180    194    195   5    13.65239    24.43456     0.00000  0.0
    181    180    194    195   5     0.00000    25.10400     0.00000  0.0
    180    194    195    196   5    -2.16731    -3.93296     0.98324  0.0
    180    194    195    206   5     0.00000     0.00000     0.67362  0.0
    180    194    195    207   5     0.00000     0.00000     0.67362  0.0
    194    195    196    197   5     5.25092    -2.58990     2.28446  0.0
    194    195    196    208   5     0.00000     0.00000     1.95811  0.0
    194    195    196    209   5     0.00000     0.00000     1.95811  0.0
    206    195    196    197   5     0.00000     0.00000     1.25520  0.0
    206    195    196    208   5     0.00000     0.00000     1.25520  0.0
    206    195    196    209   5     0.00000     0.00000     1.25520  0.0
    207    195    196    197   5     0.00000     0.00000     1.25520  0.0
    207    195    196    208   5     0.00000     0.00000     1.25520  0.0
    207    195    196    209   5     0.00000     0.00000     1.25520  0.0
    195    196    197    198   5     4.74884    -0.63178     1.67360  0.0
    195    196    197    210   5     0.00000     0.00000     1.25520  0.0
    195    196    197    211   5     0.00000     0.00000     1.25520  0.0
    208    196    197    198   5     0.00000     0.00000     1.25520  0.0
    208    196    197    210   5     0.00000     0.00000     1.25520  0.0
    208    196    197    211   5     0.00000     0.00000     1.25520  0.0
    209    196    197    198   5     0.00000     0.00000     1.25520  0.0
    209    196    197    210   5     0.00000     0.00000     1.25520  0.0
    209    196    197    211   5     0.00000     0.00000     1.25520  0.0
    196    197    198    199   5     5.25092    -2.58990     2.28446  0.0
    196    197    198    212   5     0.00000     0.00000     1.25520  0.0
    196    197    198    213   5     0.00000     0.00000     1.25520  0.0
    210    197    198    199   5     0.00000     0.00000     1.95811  0.0
    210    197    198    212   5     0.00000     0.00000     1.25520  0.0
    210    197    198    213   5     0.00000     0.00000     1.25520  0.0
    211    197    198    199   5     0.00000     0.00000     1.95811  0.0
    211    197    198    212   5     0.00000     0.00000     1.25520  0.0
    211    197    198    213   5     0.00000     0.00000     1.25520  0.0
    197    198    199    200   5    -2.16731    -3.93296     0.98324  0.0
    212    198    199    200   5     0.00000     0.00000     0.67362  0.0
    213    198    199    200   5     0.00000     0.00000     0.67362  0.0
    198    199    200    201   5     0.00000    25.10400     0.00000  0.0
    198    199    200    202   5    13.65239    24.43456     0.00000  0.0
    199    200    202    203   5     0.00000     0.00000     3.07524  0.0
    199    200    202    214   5     0.00000     0.00000     0.00000  0.0
    199    200    202    215   5     0.00000     0.00000     0.00000  0.0
    201    200    202    203   5     0.00000     2.52295     0.00000  0.0
    201    200    202    214   5     0.00000     0.00000     0.00000  0.0
    201    200    202    215   5     0.00000     0.00000     0.00000  0.0
    200    202    203    204   5     0.99998     1.69870    -5.92454  0.0
    200    202    203    216   5     0.00000     0.00000    -0.94140  0.0
    200    202    203    217   5     0.00000     0.00000    -0.94140  0.0
    214    202    203    204   5     0.00000     0.00000    -0.94140  0.0
    214    202    203    216   5     0.00000     0.00000     1.25520  0.0
    214    202    203    217   5     0.00000     0.00000     1.25520  0.0
    215    202    203    204   5     0.00000     0.00000    -0.94140  0.0
    215    202    203    216   5     0.00000     0.00000     1.25520  0.0
    215    202    203    217   5     0.00000     0.00000     1.25520  0.0
    202    203    204    205   5     0.00000     2.52295     0.00000  0.0
    202    203    204    218   5     0.00000     0.00000     3.07524  0.0
    216    203    204    205   5     0.00000     0.00000     0.00000  0.0
    216    203    204    218   5     0.00000     0.00000     0.00000  0.0
    217    203    204    205   5     0.00000     0.00000     0.00000  0.0
    217    203    204    218   5     0.00000     0.00000     0.00000  0.0
    203    204    218    219   5    13.65239    24.43456     0.00000  0.0
    205    204    218    219   5     0.00000    25.10400     0.00000  0.0
    204    218    219    220   5    -2.16731    -3.93296     0.98324  0.0
    204    218    219    230   5     0.00000     0.00000     0.67362  0.0
    204    218    219    231   5     0.00000     0.00000     0.67362  0.0
    218    219    220    221   5     5.25092    -2.58990     2.28446  0.0
    218    219    220    232   5     0.00000     0.00000     1.95811  0.0
    218    219    220    233   5     0.00000     0.00000     1.95811  0.0
    230    219    220    221   5     0.00000     0.00000     1.25520  0.0
    230    219    220    232   5     0.00000     0.00000     1.25520  0.0
    230    219    220    233   5     0.00000     0.00000     1.25520  0.0
    231    219    220    221   5     0.00000     0.00000     1.25520  0.0
    231    219    220    232   5     0.00000     0.00000     1.25520  0.0
    231    219    220    233   5     0.00000     0.00000     1.25520  0.0
    219    220    221    222   5     4.74884    -0.63178     1.67360  0.0
    219    220    221    234   5     0.00000     0.00000     1.25520  0.0
    219    220    221    235   5     0.00000     0.00000     1.25520  0.0
    232    220    221    222   5     0.00000     0.00000     1.25520  0.0
    232    220    221    234   5     0.00000     0.00000     1.25520  0.0
    232    220    221    235   5     0.00000     0.00000     1.25520  0.0
    233    220    221    222   5     0.00000     0.00000     1.25520  0.0
    233    220    221    234   5     0.00000     0.00000     1.25520  0.0
    233    220    221    235   5     0.00000     0.00000     1.25520  0.0
    220    221    222    223   5     5.25092    -2.58990     2.28446  0.0
    220    221    222    236   5     0.00000     0.00000     1.25520  0.0
    220    221    222    237   5     0.00000     0.00000     1.25520  0.0
    234    221    222    223   5     0.00000     0.00000     1.95811  0.0
    234    221    222    236   5     0.00000     0.00000     1.25520  0.0
    234    221    222    237   5     0.00000     0.00000     1.25520  0.0
    235    221    222    223   5     0.00000     0.00000     1.95811  0.0
    235    221    222    236   5     0.00000     0.00000     1.25520  0.0
    235    221    222    237   5     0.00000     0.00000     1.25520  0.0
    221    222    223    224   5    -2.16731    -3.93296     0.98324  0.0
    236    222    223    224   5     0.00000     0.00000     0.67362  0.0
    237    222    223    224   5     0.00000     0.00000     0.67362  0.0
    222    223    224    225   5     0.00000    25.10400     0.00000  0.0
    222    223    224    226   5    13.65239    24.43456     0.00000  0.0
    223    224    226    227   5     0.00000     0.00000     3.07524  0.0
    223    224    226    238   5     0.00000     0.00000     0.00000  0.0
    223    224    226    239   5     0.00000     0.00000     0.00000  0.0
    225    224    226    227   5     0.00000     2.52295     0.00000  0.0
    225    224    226    238   5     0.00000     0.00000     0.00000  0.0
    225    224    226    239   5     0.00000     0.00000     0.00000  0.0
    224    226    227    228   5     0.99998     1.69870    -5.92454  0.0
    224    226    227    240   5     0.00000     0.00000    -0.94140  0.0
    224    226    227    241   5     0.00000     0.00000    -0.94140  0.0
    238    226    227    228   5     0.00000     0.00000    -0.94140  0.0
    238    226    227    240   5     0.00000     0.00000     1.25520  0.0
    238    226    227    241   5     0.00000     0.00000     1.25520  0.0
    239    226    227    228   5     0.00000     0.00000    -0.94140  0.0
    239    226    227    240   5     0.00000     0.00000     1.25520  0.0
    239    226    227    241   5     0.00000     0.00000     1.25520  0.0
    226    227    228    229   5     0.00000     2.52295     0.00000  0.0
    226    227    228    242   5     0.00000     0.00000     3.07524  0.0
    240    227    228    229   5     0.00000     0.00000     0.00000  0.0
    240    227    228    242   5     0.00000     0.00000     0.00000  0.0
    241    227    228    229   5     0.00000     0.00000     0.00000  0.0
    241    227    228    242   5     0.00000     0.00000     0.00000  0.0
    227    228    242    243   5    13.65239    24.43456     0.00000  0.0
    229    228    242    243   5     0.00000    25.10400     0.00000  0.0
    228    242    243    244   5    -2.16731    -3.93296     0.98324  0.0
    228    242    243    254   5     0.00000     0.00000     0.67362  0.0
    228    242    243    255   5     0.00000     0.00000     0.67362  0.0
    242    243    244    245   5     5.25092    -2.58990     2.28446  0.0
    242    243    244    256   5     0.00000     0.00000     1.95811  0.0
    242    243    244    257   5     0.00000     0.00000     1.95811  0.0
    254    243    244    245   5     0.00000     0.00000     1.25520  0.0
    254    243    244    256   5     0.00000     0.00000     1.25520  0.0
    254    243    244    257   5     0.00000     0.00000     1.25520  0.0
    255    243    244    245   5     0.00000     0.00000     1.25520  0.0
    255    243    244    256   5     0.00000     0.00000     1.25520  0.0
    255    243    244    257   5     0.00000     0.00000     1.25520  0.0
    243    244    245    246   5     4.74884    -0.63178     1.67360  0.0
    243    244    245    258   5     0.00000     0.00000     1.25520  0.0
    243    244    245    259   5     0.00000     0.00000     1.25520  0.0
    256    244    245    246   5     0.00000     0.00000     1.25520  0.0
    256    244    245    258   5     0.00000     0.00000     1.25520  0.0
    256    244    245    259   5     0.00000     0.00000     1.25520  0.0
    257    244    245    246   5     0.00000     0.00000     1.25520  0.0
    257    244    245    258   5     0.00000     0.00000     1.25520  0.0
    257    244    245    259   5     0.00000     0.00000     1.25520  0.0
    244    245    246    247   5     5.25092    -2.58990     2.28446  0.0
    244    245    246    260   5     0.00000     0.00000     1.25520  0.0
    244    245    246    261   5     0.00000     0.00000     1.25520  0.0
    258    245    246    247   5     0.00000     0.00000     1.95811  0.0
    258    245    246    260   5     0.00000     0.00000     1.25520  0.0
    258    245    246    261   5     0.00000     0.00000     1.25520  0.0
    259    245    246    247   5     0.00000     0.00000     1.95811  0.0
    259    245    246    260   5     0.00000     0.00000     1.25520  0.0
    259    245    246    261   5     0.00000     0.00000     1.25520  0.0
    245    246    247    248   5    -2.16731    -3.93296     0.98324  0.0
    260    246    247    248   5     0.00000     0.00000     0.67362  0.0
    261    246    247    248   5     0.00000     0.00000     0.67362  0.0
    246    247    248    249   5     0.00000    25.10400     0.00000  0.0
    246    247    248    250   5    13.65239    24.43456     0.00000  0.0
    247    248    250    251   5     0.00000     0.00000     3.07524  0.0
    247    248    250    262   5     0.00000     0.00000     0.00000  0.0
    247    248    250    263   5     0.00000     0.00000     0.00000  0.0
    249    248    250    251   5     0.00000     2.52295     0.00000  0.0
    249    248    250    262   5     0.00000     0.00000     0.00000  0.0
    249    248    250    263   5     0.00000     0.00000     0.00000  0.0
    248    250    251    252   5     0.99998     1.69870    -5.92454  0.0
    248    250    251    264   5     0.00000     0.00000    -0.94140  0.0
    248    250    251    265   5     0.00000     0.00000    -0.94140  0.0
    262    250    251    252   5     0.00000     0.00000    -0.94140  0.0
    262    250    251    264   5     0.00000     0.00000     1.25520  0.0
    262    250    251    265   5     0.00000     0.00000     1.25520  0.0
    263    250    251    252   5     0.00000     0.00000    -0.94140  0.0
    263    250    251    264   5     0.00000     0.00000     1.25520  0.0
    263    250    251    265   5     0.00000     0.00000     1.25520  0.0
    250    251    252    253   5     0.00000     2.52295     0.00000  0.0
    250    251    252    266   5     0.00000     0.00000     3.07524  0.0
    264    251    252    253   5     0.00000     0.00000     0.00000  0.0
    264    251    252    266   5     0.00000     0.00000     0.00000  0.0
    265    251    252    253   5     0.00000     0.00000     0.00000  0.0
    265    251    252    266   5     0.00000     0.00000     0.00000  0.0
    251    252    266    267   5    13.65239    24.43456     0.00000  0.0
    253    252    266    267   5     0.00000    25.10400     0.00000  0.0
    252    266    267    268   5    -2.16731    -3.93296     0.98324  0.0
    252    266    267    278   5     0.00000     0.00000     0.67362  0.0
    252    266    267    279   5     0.00000     0.00000     0.67362  0.0
    266    267    268    269   5     5.25092    -2.58990     2.28446  0.0
    266    267    268    280   5     0.00000     0.00000     1.95811  0.0
    266    267    268    281   5     0.00000     0.00000     1.95811  0.0
    278    267    268    269   5     0.00000     0.00000     1.25520  0.0
    278    267    268    280   5     0.00000     0.00000     1.25520  0.0
    278    267    268    281   5     0.00000     0.00000     1.25520  0.0
    279    267    268    269   5     0.00000     0.00000     1.25520  0.0
    279    267    268    280   5     0.00000     0.00000     1.25520  0.0
    279    267    268    281   5     0.00000     0.00000     1.25520  0.0
    267    268    269    270   5     4.74884    -0.63178     1.67360  0.0
    267    268    269    282   5     0.00000     0.00000     1.25520  0.0
    267    268    269    283   5     0.00000     0.00000     1.25520  0.0
    280    268    269    270   5     0.00000     0.00000     1.25520  0.0
    280    268    269    282   5     0.00000     0.00000     1.25520  0.0
    280    268    269    283   5     0.00000     0.00000     1.25520  0.0
    281    268    269    270   5     0.00000     0.00000     1.25520  0.0
    281    268    269    282   5     0.00000     0.00000     1.25520  0.0
    281    268    269    283   5     0.00000     0.00000     1.25520  0.0
    268    269    270    271   5     5.25092    -2.58990     2.28446  0.0
    268    269    270    284   5     0.00000     0.00000     1.25520  0.0
    268    269    270    285   5     0.00000     0.00000     1.25520  0.0
    282    269    270    271   5     0.00000     0.00000     1.95811  0.0
    282    269    270    284   5     0.00000     0.00000     1.25520  0.0
    282    269    270    285   5     0.00000     0.00000     1.25520  0.0
    283    269    270    271   5     0.00000     0.00000     1.95811  0.0
    283    269    270    284   5     0.00000     0.00000     1.25520  0.0
    283    269    270    285   5     0.00000     0.00000     1.25520  0.0
    269    270    271    272   5    -2.16731    -3.93296     0.98324  0.0
    284    270    271    272   5     0.00000     0.00000     0.67362  0.0
    285    270    271    272   5     0.00000     0.00000     0.67362  0.0
    270    271    272    273   5     0.00000    25.10400     0.00000  0.0
    270    271    272    274   5    13.65239    24.43456     0.00000  0.0
    271    272    274    275   5     0.00000     0.00000     3.07524  0.0
    271    272    274    286   5     0.00000     0.00000     0.00000  0.0
    271    272    274    287   5     0.00000     0.00000     0.00000  0.0
    273    272    274    275   5     0.00000     2.52295     0.00000  0.0
    273    272    274    286   5     0.00000     0.00000     0.00000  0.0
    273    272    274    287   5     0.00000     0.00000     0.00000  0.0
    272    274    275    276   5     0.99998     1.69870    -5.92454  0.0
    272    274    275    288   5     0.00000     0.00000    -0.94140  0.0
    272    274    275    289   5     0.00000     0.00000    -0.94140  0.0
    286    274    275    276   5     0.00000     0.00000    -0.94140  0.0
    286    274    275    288   5     0.00000     0.00000     1.25520  0.0
    286    274    275    289   5     0.00000     0.00000     1.25520  0.0
    287    274    275    276   5     0.00000     0.00000    -0.94140  0.0
    287    274    275    288   5     0.00000     0.00000     1.25520  0.0
    287    274    275    289   5     0.00000     0.00000     1.25520  0.0
    274    275    276    277   5     0.00000     2.52295     0.00000  0.0
    274    275    276    290   5     0.00000     0.00000     3.07524  0.0
    288    275    276    277   5     0.00000     0.00000     0.00000  0.0
    288    275    276    290   5     0.00000     0.00000     0.00000  0.0
    289    275    276    277   5     0.00000     0.00000     0.00000  0.0
    289    275    276    290   5     0.00000     0.00000     0.00000  0.0
    275    276    290    291   5    13.65239    24.43456     0.00000  0.0
    277    276    290    291   5     0.00000    25.10400     0.00000  0.0
    276    290    291    292   5    -2.16731    -3.93296     0.98324  0.0
    276    290    291    302   5     0.00000     0.00000     0.67362  0.0
    276    290    291    303   5     0.00000     0.00000     0.67362  0.0
    290    291    292    293   5     5.25092    -2.58990     2.28446  0.0
    290    291    292    304   5     0.00000     0.00000     1.95811  0.0
    290    291    292    305   5     0.00000     0.00000     1.95811  0.0
    302    291    292    293   5     0.00000     0.00000     1.25520  0.0
    302    291    292    304   5     0.00000     0.00000     1.25520  0.0
    302    291    292    305   5     0.00000     0.00000     1.25520  0.0
    303    291    292    293   5     0.00000     0.00000     1.25520  0.0
    303    291    292    304   5     0.00000     0.00000     1.25520  0.0
    303    291    292    305   5     0.00000     0.00000     1.25520  0.0
    291    292    293    294   5     4.74884    -0.63178     1.67360  0.0
    291    292    293    306   5     0.00000     0.00000     1.25520  0.0
    291    292    293    307   5     0.00000     0.00000     1.25520  0.0
    304    292    293    294   5     0.00000     0.00000     1.25520  0.0
    304    292    293    306   5     0.00000     0.00000     1.25520  0.0
    304    292    293    307   5     0.00000     0.00000     1.25520  0.0
    305    292    293    294   5     0.00000     0.00000     1.25520  0.0
    305    292    293    306   5     0.00000     0.00000     1.25520  0.0
    305    292    293    307   5     0.00000     0.00000     1.25520  0.0
    292    293    294    295   5     5.25092    -2.58990     2.28446  0.0
    292    293    294    308   5     0.00000     0.00000     1.25520  0.0
    292    293    294    309   5     0.00000     0.00000     1.25520  0.0
    306    293    294    295   5     0.00000     0.00000     1.95811  0.0
    306    293    294    308   5     0.00000     0.00000     1.25520  0.0
    306    293    294    309   5     0.00000     0.00000     1.25520  0.0
    307    293    294    295   5     0.00000     0.00000     1.95811  0.0
    307    293    294    308   5     0.00000     0.00000     1.25520  0.0
    307    293    294    309   5     0.00000     0.00000     1.25520  0.0
    293    294    295    296   5    -2.16731    -3.93296     0.98324  0.0
    308    294    295    296   5     0.00000     0.00000     0.67362  0.0
    309    294    295    296   5     0.00000     0.00000     0.67362  0.0
    294    295    296    297   5     0.00000    25.10400     0.00000  0.0
    294    295    296    298   5    13.65239    24.43456     0.00000  0.0
    295    296    298    299   5     0.00000     0.00000     3.07524  0.0
    295    296    298    310   5     0.00000     0.00000     0.00000  0.0
    295    296    298    311   5     0.00000     0.00000     0.00000  0.0
    297    296    298    299   5     0.00000     2.52295     0.00000  0.0
    297    296    298    310   5     0.00000     0.00000     0.00000  0.0
    297    296    298    311   5     0.00000     0.00000     0.00000  0.0
    296    298    299    300   5     0.99998     1.69870    -5.92454  0.0
    296    298    299    312   5     0.00000     0.00000    -0.94140  0.0
    296    298    299    313   5     0.00000     0.00000    -0.94140  0.0
    310    298    299    300   5     0.00000     0.00000    -0.94140  0.0
    310    298    299    312   5     0.00000     0.00000     1.25520  0.0
    310    298    299    313   5     0.00000     0.00000     1.25520  0.0
    311    298    299    300   5     0.00000     0.00000    -0.94140  0.0
    311    298    299    312   5     0.00000     0.00000     1.25520  0.0
    311    298    299    313   5     0.00000     0.00000     1.25520  0.0
    298    299    300    301   5     0.00000     2.52295     0.00000  0.0
    298    299    300    314   5     0.00000     0.00000     3.07524  0.0
    312    299    300    301   5     0.00000     0.00000     0.00000  0.0
    312    299    300    314   5     0.00000     0.00000     0.00000  0.0
    313    299    300    301   5     0.00000     0.00000     0.00000  0.0
    313    299    300    314   5     0.00000     0.00000     0.00000  0.0
    299    300    314    315   5    13.65239    24.43456     0.00000  0.0
    301    300    314    315   5     0.00000    25.10400     0.00000  0.0
    300    314    315    316   5    -2.16731    -3.93296     0.98324  0.0
    300    314    315    326   5     0.00000     0.00000     0.67362  0.0
    300    314    315    327   5     0.00000     0.00000     0.67362  0.0
    314    315    316    317   5     5.25092    -2.58990     2.28446  0.0
    314    315    316    328   5     0.00000     0.00000     1.95811  0.0
    314    315    316    329   5     0.00000     0.00000     1.95811  0.0
    326    315    316    317   5     0.00000     0.00000     1.25520  0.0
    326    315    316    328   5     0.00000     0.00000     1.25520  0.0
    326    315    316    329   5     0.00000     0.00000     1.25520  0.0
    327    315    316    317   5     0.00000     0.00000     1.25520  0.0
    327    315    316    328   5     0.00000     0.00000     1.25520  0.0
    327    315    316    329   5     0.00000     0.00000     1.25520  0.0
    315    316    317    318   5     4.74884    -0.63178     1.67360  0.0
    315    316    317    330   5     0.00000     0.00000     1.25520  0.0
    315    316    317    331   5     0.00000     0.00000     1.25520  0.0
    328    316    317    318   5     0.00000     0.00000     1.25520  0.0
    328    316    317    330   5     0.00000     0.00000     1.25520  0.0
    328    316    317    331   5     0.00000     0.00000     1.25520  0.0
    329    316    317    318   5     0.00000     0.00000     1.25520  0.0
    329    316    317    330   5     0.00000     0.00000     1.25520  0.0
    329    316    317    331   5     0.00000     0.00000     1.25520  0.0
    316    317    318    319   5     5.25092    -2.58990     2.28446  0.0
    316    317    318    332   5     0.00000     0.00000     1.25520  0.0
    316    317    318    333   5     0.00000     0.00000     1.25520  0.0
    330    317    318    319   5     0.00000     0.00000     1.95811  0.0
    330    317    318    332   5     0.00000     0.00000     1.25520  0.0
    330    317    318    333   5     0.00000     0.00000     1.25520  0.0
    331    317    318    319   5     0.00000     0.00000     1.95811  0.0
    331    317    318    332   5     0.00000     0.00000     1.25520  0.0
    331    317    318    333   5     0.00000     0.00000     1.25520  0.0
    317    318    319    320   5    -2.16731    -3.93296     0.98324  0.0
    332    318    319    320   5     0.00000     0.00000     0.67362  0.0
    333    318    319    320   5     0.00000     0.00000     0.67362  0.0
    318    319    320    321   5     0.00000    25.10400     0.00000  0.0
    318    319    320    322   5    13.65239    24.43456     0.00000  0.0
    319    320    322    323   5     0.00000     0.00000     3.07524  0.0
    319    320    322    334   5     0.00000     0.00000     0.00000  0.0
    319    320    322    335   5     0.00000     0.00000     0.00000  0.0
    321    320    322    323   5     0.00000     2.52295     0.00000  0.0
    321    320    322    334   5     0.00000     0.00000     0.00000  0.0
    321    320    322    335   5     0.00000     0.00000     0.00000  0.0
    320    322    323    324   5     0.99998     1.69870    -5.92454  0.0
    320    322    323    336   5     0.00000     0.00000    -0.94140  0.0
    320    322    323    337   5     0.00000     0.00000    -0.94140  0.0
    334    322    323    324   5     0.00000     0.00000    -0.94140  0.0
    334    322    323    336   5     0.00000     0.00000     1.25520  0.0
    334    322    323    337   5     0.00000     0.00000     1.25520  0.0
    335    322    323    324   5     0.00000     0.00000    -0.94140  0.0
    335    322    323    336   5     0.00000     0.00000     1.25520  0.0
    335    322    323    337   5     0.00000     0.00000     1.25520  0.0
    322    323    324    325   5     0.00000     2.52295     0.00000  0.0
    322    323    324    338   5     0.00000     0.00000     3.07524  0.0
    336    323    324    325   5     0.00000     0.00000     0.00000  0.0
    336    323    324    338   5     0.00000     0.00000     0.00000  0.0
    337    323    324    325   5     0.00000     0.00000     0.00000  0.0
    337    323    324    338   5     0.00000     0.00000     0.00000  0.0
    323    324    338    339   5    13.65239    24.43456     0.00000  0.0
    325    324    338    339   5     0.00000    25.10400     0.00000  0.0
    324    338    339    340   5    -2.16731    -3.93296     0.98324  0.0
    324    338    339    350   5     0.00000     0.00000     0.67362  0.0
    324    338    339    351   5     0.00000     0.00000     0.67362  0.0
    338    339    340    341   5     5.25092    -2.58990     2.28446  0.0
    338    339    340    352   5     0.00000     0.00000     1.95811  0.0
    338    339    340    353   5     0.00000     0.00000     1.95811  0.0
    350    339    340    341   5     0.00000     0.00000     1.25520  0.0
    350    339    340    352   5     0.00000     0.00000     1.25520  0.0
    350    339    340    353   5     0.00000     0.00000     1.25520  0.0
    351    339    340    341   5     0.00000     0.00000     1.25520  0.0
    351    339    340    352   5     0.00000     0.00000     1.25520  0.0
    351    339    340    353   5     0.00000     0.00000     1.25520  0.0
    339    340    341    342   5     4.74884    -0.63178     1.67360  0.0
    339    340    341    354   5     0.00000     0.00000     1.25520  0.0
    339    340    341    355   5     0.00000     0.00000     1.25520  0.0
    352    340    341    342   5     0.00000     0.00000     1.25520  0.0
    352    340    341    354   5     0.00000     0.00000     1.25520  0.0
    352    340    341    355   5     0.00000     0.00000     1.25520  0.0
    353    340    341    342   5     0.00000     0.00000     1.25520  0.0
    353    340    341    354   5     0.00000     0.00000     1.25520  0.0
    353    340    341    355   5     0.00000     0.00000     1.25520  0.0
    340    341    342    343   5     5.25092    -2.58990     2.28446  0.0
    340    341    342    356   5     0.00000     0.00000     1.25520  0.0
    340    341    342    357   5     0.00000     0.00000     1.25520  0.0
    354    341    342    343   5     0.00000     0.00000     1.95811  0.0
    354    341    342    356   5     0.00000     0.00000     1.25520  0.0
    354    341    342    357   5     0.00000     0.00000     1.25520  0.0
    355    341    342    343   5     0.00000     0.00000     1.95811  0.0
    355    341    342    356   5     0.00000     0.00000     1.25520  0.0
    355    341    342    357   5     0.00000     0.00000     1.25520  0.0
    341    342    343    344   5    -2.16731    -3.93296     0.98324  0.0
    356    342    343    344   5     0.00000     0.00000     0.67362  0.0
    357    342    343    344   5     0.00000     0.00000     0.67362  0.0
    342    343    344    345   5     0.00000    25.10400     0.00000  0.0
    342    343    344    346   5    13.65239    24.43456     0.00000  0.0
    343    344    346    347   5     0.00000     0.00000     3.07524  0.0
    343    344    346    358   5     0.00000     0.00000     0.00000  0.0
    343    344    346    359   5     0.00000     0.00000     0.00000  0.0
    345    344    346    347   5     0.00000     2.52295     0.00000  0.0
    345    344    346    358   5     0.00000     0.00000     0.00000  0.0
    345    344    346    359   5     0.00000     0.00000     0.00000  0.0
    344    346    347    348   5     0.99998     1.69870    -5.92454  0.0
    344    346    347    360   5     0.00000     0.00000    -0.94140  0.0
    344    346    347    361   5     0.00000     0.00000    -0.94140  0.0
    358    346    347    348   5     0.00000     0.00000    -0.94140  0.0
    358    346    347    360   5     0.00000     0.00000     1.25520  0.0
    358    346    347    361   5     0.00000     0.00000     1.25520  0.0
    359    346    347    348   5     0.00000     0.00000    -0.94140  0.0
    359    346    347    360   5     0.00000     0.00000     1.25520  0.0
    359    346    347    361   5     0.00000     0.00000     1.25520  0.0
    346    347    348    349   5     0.00000     2.52295     0.00000  0.0
    346    347    348    362   5     0.00000     0.00000     3.07524  0.0
    360    347    348    349   5     0.00000     0.00000     0.00000  0.0
    360    347    348    362   5     0.00000     0.00000     0.00000  0.0
    361    347    348    349   5     0.00000     0.00000     0.00000  0.0
    361    347    348    362   5     0.00000     0.00000     0.00000  0.0
    347    348    362    363   5    13.65239    24.43456     0.00000  0.0
    349    348    362    363   5     0.00000    25.10400     0.00000  0.0
    348    362    363    364   5    -2.16731    -3.93296     0.98324  0.0
    348    362    363    374   5     0.00000     0.00000     0.67362  0.0
    348    362    363    375   5     0.00000     0.00000     0.67362  0.0
    362    363    364    365   5     5.25092    -2.58990     2.28446  0.0
    362    363    364    376   5     0.00000     0.00000     1.95811  0.0
    362    363    364    377   5     0.00000     0.00000     1.95811  0.0
    374    363    364    365   5     0.00000     0.00000     1.25520  0.0
    374    363    364    376   5     0.00000     0.00000     1.25520  0.0
    374    363    364    377   5     0.00000     0.00000     1.25520  0.0
    375    363    364    365   5     0.00000     0.00000     1.25520  0.0
    375    363    364    376   5     0.00000     0.00000     1.25520  0.0
    375    363    364    377   5     0.00000     0.00000     1.25520  0.0
    363    364    365    366   5     4.74884    -0.63178     1.67360  0.0
    363    364    365    378   5     0.00000     0.00000     1.25520  0.0
    363    364    365    379   5     0.00000     0.00000     1.25520  0.0
    376    364    365    366   5     0.00000     0.00000     1.25520  0.0
    376    364    365    378   5     0.00000     0.00000     1.25520  0.0
    376    364    365    379   5     0.00000     0.00000     1.25520  0.0
    377    364    365    366   5     0.00000     0.00000     1.25520  0.0
    377    364    365    378   5     0.00000     0.00000     1.25520  0.0
    377    364    365    379   5     0.00000     0.00000     1.25520  0.0
    364    365    366    367   5     5.25092    -2.58990     2.28446  0.0
    364    365    366    380   5     0.00000     0.00000     1.25520  0.0
    364    365    366    381   5     0.00000     0.00000     1.25520  0.0
    378    365    366    367   5     0.00000     0.00000     1.95811  0.0
    378    365    366    380   5     0.00000     0.00000     1.25520  0.0
    378    365    366    381   5     0.00000     0.00000     1.25520  0.0
    379    365    366    367   5     0.00000     0.00000     1.95811  0.0
    379    365    366    380   5     0.00000     0.00000     1.25520  0.0
    379    365    366    381   5     0.00000     0.00000     1.25520  0.0
    365    366    367    368   5    -2.16731    -3.93296     0.98324  0.0
    380    366    367    368   5     0.00000     0.00000     0.67362  0.0
    381    366    367    368   5     0.00000     0.00000     0.67362  0.0
    366    367    368    369   5     0.00000    25.10400     0.00000  0.0
    366    367    368    370   5    13.65239    24.43456     0.00000  0.0
    367    368    370    371   5     0.00000     0.00000     3.07524  0.0
    367    368    370    382   5     0.00000     0.00000     0.00000  0.0
    367    368    370    383   5     0.00000     0.00000     0.00000  0.0
    369    368    370    371   5     0.00000     2.52295     0.00000  0.0
    369    368    370    382   5     0.00000     0.00000     0.00000  0.0
    369    368    370    383   5     0.00000     0.00000     0.00000  0.0
    368    370    371    372   5     0.99998     1.69870    -5.92454  0.0
    368    370    371    384   5     0.00000     0.00000    -0.94140  0.0
    368    370    371    385   5     0.00000     0.00000    -0.94140  0.0
    382    370    371    372   5     0.00000     0.00000    -0.94140  0.0
    382    370    371    384   5     0.00000     0.00000     1.25520  0.0
    382    370    371    385   5     0.00000     0.00000     1.25520  0.0
    383    370    371    372   5     0.00000     0.00000    -0.94140  0.0
    383    370    371    384   5     0.00000     0.00000     1.25520  0.0
    383    370    371    385   5     0.00000     0.00000     1.25520  0.0
    370    371    372    373   5     0.00000     2.52295     0.00000  0.0
    370    371    372    386   5     0.00000     0.00000     3.07524  0.0
    384    371    372    373   5     0.00000     0.00000     0.00000  0.0
    384    371    372    386   5     0.00000     0.00000     0.00000  0.0
    385    371    372    373   5     0.00000     0.00000     0.00000  0.0
    385    371    372    386   5     0.00000     0.00000     0.00000  0.0
    371    372    386    387   5    13.65239    24.43456     0.00000  0.0
    373    372    386    387   5     0.00000    25.10400     0.00000  0.0
    372    386    387    388   5    -2.16731    -3.93296     0.98324  0.0
    372    386    387    398   5     0.00000     0.00000     0.67362  0.0
    372    386    387    399   5     0.00000     0.00000     0.67362  0.0
    386    387    388    389   5     5.25092    -2.58990     2.28446  0.0
    386    387    388    400   5     0.00000     0.00000     1.95811  0.0
    386    387    388    401   5     0.00000     0.00000     1.95811  0.0
    398    387    388    389   5     0.00000     0.00000     1.25520  0.0
    398    387    388    400   5     0.00000     0.00000     1.25520  0.0
    398    387    388    401   5     0.00000     0.00000     1.25520  0.0
    399    387    388    389   5     0.00000     0.00000     1.25520  0.0
    399    387    388    400   5     0.00000     0.00000     1.25520  0.0
    399    387    388    401   5     0.00000     0.00000     1.25520  0.0
    387    388    389    390   5     4.74884    -0.63178     1.67360  0.0
    387    388    389    402   5     0.00000     0.00000     1.25520  0.0
    387    388    389    403   5     0.00000     0.00000     1.25520  0.0
    400    388    389    390   5     0.00000     0.00000     1.25520  0.0
    400    388    389    402   5     0.00000     0.00000     1.25520  0.0
    400    388    389    403   5     0.00000     0.00000     1.25520  0.0
    401    388    389    390   5     0.00000     0.00000     1.25520  0.0
    401    388    389    402   5     0.00000     0.00000     1.25520  0.0
    401    388    389    403   5     0.00000     0.00000     1.25520  0.0
    388    389    390    391   5     5.25092    -2.58990     2.28446  0.0
    388    389    390    404   5     0.00000     0.00000     1.25520  0.0
    388    389    390    405   5     0.00000     0.00000     1.25520  0.0
    402    389    390    391   5     0.00000     0.00000     1.95811  0.0
    402    389    390    404   5     0.00000     0.00000     1.25520  0.0
    402    389    390    405   5     0.00000     0.00000     1.25520  0.0
    403    389    390    391   5     0.00000     0.00000     1.95811  0.0
    403    389    390    404   5     0.00000     0.00000     1.25520  0.0
    403    389    390    405   5     0.00000     0.00000     1.25520  0.0
    389    390    391    392   5    -2.16731    -3.93296     0.98324  0.0
    404    390    391    392   5     0.00000     0.00000     0.67362  0.0
    405    390    391    392   5     0.00000     0.00000     0.67362  0.0
    390    391    392    393   5     0.00000    25.10400     0.00000  0.0
    390    391    392    394   5    13.65239    24.43456     0.00000  0.0
    391    392    394    395   5     0.00000     0.00000     3.07524  0.0
    391    392    394    406   5     0.00000     0.00000     0.00000  0.0
    391    392    394    407   5     0.00000     0.00000     0.00000  0.0
    393    392    394    395   5     0.00000     2.52295     0.00000  0.0
    393    392    394    406   5     0.00000     0.00000     0.00000  0.0
    393    392    394    407   5     0.00000     0.00000     0.00000  0.0
    392    394    395    396   5     0.99998     1.69870    -5.92454  0.0
    392    394    395    408   5     0.00000     0.00000    -0.94140  0.0
    392    394    395    409   5     0.00000     0.00000    -0.94140  0.0
    406    394    395    396   5     0.00000     0.00000    -0.94140  0.0
    406    394    395    408   5     0.00000     0.00000     1.25520  0.0
    406    394    395    409   5     0.00000     0.00000     1.25520  0.0
    407    394    395    396   5     0.00000     0.00000    -0.94140  0.0
    407    394    395    408   5     0.00000     0.00000     1.25520  0.0
    407    394    395    409   5     0.00000     0.00000     1.25520  0.0
    394    395    396    397   5     0.00000     2.52295     0.00000  0.0
    394    395    396    410   5     0.00000     0.00000     3.07524  0.0
    408    395    396    397   5     0.00000     0.00000     0.00000  0.0
    408    395    396    410   5     0.00000     0.00000     0.00000  0.0
    409    395    396    397   5     0.00000     0.00000     0.00000  0.0
    409    395    396    410   5     0.00000     0.00000     0.00000  0.0
    395    396    410    411   5    13.65239    24.43456     0.00000  0.0
    397    396    410    411   5     0.00000    25.10400     0.00000  0.0
    396    410    411    412   5    -2.16731    -3.93296     0.98324  0.0
    396    410    411    422   5     0.00000     0.00000     0.67362  0.0
    396    410    411    423   5     0.00000     0.00000     0.67362  0.0
    410    411    412    413   5     5.25092    -2.58990     2.28446  0.0
    410    411    412    424   5     0.00000     0.00000     1.95811  0.0
    410    411    412    425   5     0.00000     0.00000     1.95811  0.0
    422    411    412    413   5     0.00000     0.00000     1.25520  0.0
    422    411    412    424   5     0.00000     0.00000     1.25520  0.0
    422    411    412    425   5     0.00000     0.00000     1.25520  0.0
    423    411    412    413   5     0.00000     0.00000     1.25520  0.0
    423    411    412    424   5     0.00000     0.00000     1.25520  0.0
    423    411    412    425   5     0.00000     0.00000     1.25520  0.0
    411    412    413    414   5     4.74884    -0.63178     1.67360  0.0
    411    412    413    426   5     0.00000     0.00000     1.25520  0.0
    411    412    413    427   5     0.00000     0.00000     1.25520  0.0
    424    412    413    414   5     0.00000     0.00000     1.25520  0.0
    424    412    413    426   5     0.00000     0.00000     1.25520  0.0
    424    412    413    427   5     0.00000     0.00000     1.25520  0.0
    425    412    413    414   5     0.00000     0.00000     1.25520  0.0
    425    412    413    426   5     0.00000     0.00000     1.25520  0.0
    425    412    413    427   5     0.00000     0.00000     1.25520  0.0
    412    413    414    415   5     5.25092    -2.58990     2.28446  0.0
    412    413    414    428   5     0.00000     0.00000     1.25520  0.0
    412    413    414    429   5     0.00000     0.00000     1.25520  0.0
    426    413    414    415   5     0.00000     0.00000     1.95811  0.0
    426    413    414    428   5     0.00000     0.00000     1.25520  0.0
    426    413    414    429   5     0.00000     0.00000     1.25520  0.0
    427    413    414    415   5     0.00000     0.00000     1.95811  0.0
    427    413    414    428   5     0.00000     0.00000     1.25520  0.0
    427    413    414    429   5     0.00000     0.00000     1.25520  0.0
    413    414    415    416   5    -2.16731    -3.93296     0.98324  0.0
    428    414    415    416   5     0.00000     0.00000     0.67362  0.0
    429    414    415    416   5     0.00000     0.00000     0.67362  0.0
    414    415    416    417   5     0.00000    25.10400     0.00000  0.0
    414    415    416    418   5    13.65239    24.43456     0.00000  0.0
    415    416    418    419   5     0.00000     0.00000     3.07524  0.0
    415    416    418    430   5     0.00000     0.00000     0.00000  0.0
    415    416    418    431   5     0.00000     0.00000     0.00000  0.0
    417    416    418    419   5     0.00000     2.52295     0.00000  0.0
    417    416    418    430   5     0.00000     0.00000     0.00000  0.0
    417    416    418    431   5     0.00000     0.00000     0.00000  0.0
    416    418    419    420   5     0.99998     1.69870    -5.92454  0.0
    416    418    419    432   5     0.00000     0.00000    -0.94140  0.0
    416    418    419    433   5     0.00000     0.00000    -0.94140  0.0
    430    418    419    420   5     0.00000     0.00000    -0.94140  0.0
    430    418    419    432   5     0.00000     0.00000     1.25520  0.0
    430    418    419    433   5     0.00000     0.00000     1.25520  0.0
    431    418    419    420   5     0.00000     0.00000    -0.94140  0.0
    431    418    419    432   5     0.00000     0.00000     1.25520  0.0
    431    418    419    433   5     0.00000     0.00000     1.25520  0.0
    418    419    420    421   5     0.00000     2.52295     0.00000  0.0
    418    419    420    434   5     0.00000     0.00000     3.07524  0.0
    432    419    420    421   5     0.00000     0.00000     0.00000  0.0
    432    419    420    434   5     0.00000     0.00000     0.00000  0.0
    433    419    420    421   5     0.00000     0.00000     0.00000  0.0
    433    419    420    434   5     0.00000     0.00000     0.00000  0.0
    419    420    434    435   5    13.65239    24.43456     0.00000  0.0
    421    420    434    435   5     0.00000    25.10400     0.00000  0.0
    420    434    435    436   5    -2.16731    -3.93296     0.98324  0.0
    420    434    435    446   5     0.00000     0.00000     0.67362  0.0
    420    434    435    447   5     0.00000     0.00000     0.67362  0.0
    434    435    436    437   5     5.25092    -2.58990     2.28446  0.0
    434    435    436    448   5     0.00000     0.00000     1.95811  0.0
    434    435    436    449   5     0.00000     0.00000     1.95811  0.0
    446    435    436    437   5     0.00000     0.00000     1.25520  0.0
    446    435    436    448   5     0.00000     0.00000     1.25520  0.0
    446    435    436    449   5     0.00000     0.00000     1.25520  0.0
    447    435    436    437   5     0.00000     0.00000     1.25520  0.0
    447    435    436    448   5     0.00000     0.00000     1.25520  0.0
    447    435    436    449   5     0.00000     0.00000     1.25520  0.0
    435    436    437    438   5     4.74884    -0.63178     1.67360  0.0
    435    436    437    450   5     0.00000     0.00000     1.25520  0.0
    435    436    437    451   5     0.00000     0.00000     1.25520  0.0
    448    436    437    438   5     0.00000     0.00000     1.25520  0.0
    448    436    437    450   5     0.00000     0.00000     1.25520  0.0
    448    436    437    451   5     0.00000     0.00000     1.25520  0.0
    449    436    437    438   5     0.00000     0.00000     1.25520  0.0
    449    436    437    450   5     0.00000     0.00000     1.25520  0.0
    449    436    437    451   5     0.00000     0.00000     1.25520  0.0
    436    437    438    439   5     5.25092    -2.58990     2.28446  0.0
    436    437    438    452   5     0.00000     0.00000     1.25520  0.0
    436    437    438    453   5     0.00000     0.00000     1.25520  0.0
    450    437    438    439   5     0.00000     0.00000     1.95811  0.0
    450    437    438    452   5     0.00000     0.00000     1.25520  0.0
    450    437    438    453   5     0.00000     0.00000     1.25520  0.0
    451    437    438    439   5     0.00000     0.00000     1.95811  0.0
    451    437    438    452   5     0.00000     0.00000     1.25520  0.0
    451    437    438    453   5     0.00000     0.00000     1.25520  0.0
    437    438    439    440   5    -2.16731    -3.93296     0.98324  0.0
    452    438    439    440   5     0.00000     0.00000     0.67362  0.0
    453    438    439    440   5     0.00000     0.00000     0.67362  0.0
    438    439    440    441   5     0.00000    25.10400     0.00000  0.0
    438    439    440    442   5    13.65239    24.43456     0.00000  0.0
    439    440    442    443   5     0.00000     0.00000     3.07524  0.0
    439    440    442    454   5     0.00000     0.00000     0.00000  0.0
    439    440    442    455   5     0.00000     0.00000     0.00000  0.0
    441    440    442    443   5     0.00000     2.52295     0.00000  0.0
    441    440    442    454   5     0.00000     0.00000     0.00000  0.0
    441    440    442    455   5     0.00000     0.00000     0.00000  0.0
    440    442    443    444   5     0.99998     1.69870    -5.92454  0.0
    440    442    443    456   5     0.00000     0.00000    -0.94140  0.0
    440    442    443    457   5     0.00000     0.00000    -0.94140  0.0
    454    442    443    444   5     0.00000     0.00000    -0.94140  0.0
    454    442    443    456   5     0.00000     0.00000     1.25520  0.0
    454    442    443    457   5     0.00000     0.00000     1.25520  0.0
    455    442    443    444   5     0.00000     0.00000    -0.94140  0.0
    455    442    443    456   5     0.00000     0.00000     1.25520  0.0
    455    442    443    457   5     0.00000     0.00000     1.25520  0.0
    442    443    444    445   5     0.00000     2.52295     0.00000  0.0
    442    443    444    458   5     0.00000     0.00000     3.07524  0.0
    456    443    444    445   5     0.00000     0.00000     0.00000  0.0
    456    443    444    458   5     0.00000     0.00000     0.00000  0.0
    457    443    444    445   5     0.00000     0.00000     0.00000  0.0
    457    443    444    458   5     0.00000     0.00000     0.00000  0.0
    443    444    458    459   5    13.65239    24.43456     0.00000  0.0
    445    444    458    459   5     0.00000    25.10400     0.00000  0.0
    444    458    459    460   5    -2.16731    -3.93296     0.98324  0.0
    444    458    459    470   5     0.00000     0.00000     0.67362  0.0
    444    458    459    471   5     0.00000     0.00000     0.67362  0.0
    458    459    460    461   5     5.25092    -2.58990     2.28446  0.0
    458    459    460    472   5     0.00000     0.00000     1.95811  0.0
    458    459    460    473   5     0.00000     0.00000     1.95811  0.0
    470    459    460    461   5     0.00000     0.00000     1.25520  0.0
    470    459    460    472   5     0.00000     0.00000     1.25520  0.0
    470    459    460    473   5     0.00000     0.00000     1.25520  0.0
    471    459    460    461   5     0.00000     0.00000     1.25520  0.0
    471    459    460    472   5     0.00000     0.00000     1.25520  0.0
    471    459    460    473   5     0.00000     0.00000     1.25520  0.0
    459    460    461    462   5     4.74884    -0.63178     1.67360  0.0
    459    460    461    474   5     0.00000     0.00000     1.25520  0.0
    459    460    461    475   5     0.00000     0.00000     1.25520  0.0
    472    460    461    462   5     0.00000     0.00000     1.25520  0.0
    472    460    461    474   5     0.00000     0.00000     1.25520  0.0
    472    460    461    475   5     0.00000     0.00000     1.25520  0.0
    473    460    461    462   5     0.00000     0.00000     1.25520  0.0
    473    460    461    474   5     0.00000     0.00000     1.25520  0.0
    473    460    461    475   5     0.00000     0.00000     1.25520  0.0
    460    461    462    463   5     5.25092    -2.58990     2.28446  0.0
    460    461    462    476   5     0.00000     0.00000     1.25520  0.0
    460    461    462    477   5     0.00000     0.00000     1.25520  0.0
    474    461    462    463   5     0.00000     0.00000     1.95811  0.0
    474    461    462    476   5     0.00000     0.00000     1.25520  0.0
    474    461    462    477   5     0.00000     0.00000     1.25520  0.0
    475    461    462    463   5     0.00000     0.00000     1.95811  0.0
    475    461    462    476   5     0.00000     0.00000     1.25520  0.0
    475    461    462    477   5     0.00000     0.00000     1.25520  0.0
    461    462    463    464   5    -2.16731    -3.93296     0.98324  0.0
    476    462    463    464   5     0.00000     0.00000     0.67362  0.0
    477    462    463    464   5     0.00000     0.00000     0.67362  0.0
    462    463    464    465   5     0.00000    25.10400     0.00000  0.0
    462    463    464    466   5    13.65239    24.43456     0.00000  0.0
    463    464    466    467   5     0.00000     0.00000     3.07524  0.0
    463    464    466    478   5     0.00000     0.00000     0.00000  0.0
    463    464    466    479   5     0.00000     0.00000     0.00000  0.0
    465    464    466    467   5     0.00000     2.52295     0.00000  0.0
    465    464    466    478   5     0.00000     0.00000     0.00000  0.0
    465    464    466    479   5     0.00000     0.00000     0.00000  0.0
    464    466    467    468   5     0.99998     1.69870    -5.92454  0.0
    464    466    467    480   5     0.00000     0.00000    -0.94140  0.0
    464    466    467    481   5     0.00000     0.00000    -0.94140  0.0
    478    466    467    468   5     0.00000     0.00000    -0.94140  0.0
    478    466    467    480   5     0.00000     0.00000     1.25520  0.0
    478    466    467    481   5     0.00000     0.00000     1.25520  0.0
    479    466    467    468   5     0.00000     0.00000    -0.94140  0.0
    479    466    467    480   5     0.00000     0.00000     1.25520  0.0
    479    466    467    481   5     0.00000     0.00000     1.25520  0.0
    466    467    468    469   5     0.00000     2.52295     0.00000  0.0
    466    467    468    482   5     6.23834    -0.04184     0.00000  0.0
    480    467    468    469   5     0.00000     0.00000     0.00000  0.0
    480    467    468    482   5     0.00000     0.00000     0.00000  0.0
    481    467    468    469   5     0.00000     0.00000     0.00000  0.0
    481    467    468    482   5     0.00000     0.00000     0.00000  0.0

[ dihedrals ]
; Improper dihedrals
; h   i   j   k   funct
      6      8      7      9   5     0.00000    87.86400     0.00000  0.0
     10     12     11     26   5     0.00000    87.86400     0.00000  0.0
     31     33     32     34   5     0.00000    87.86400     0.00000  0.0
     35     37     36     50   5     0.00000    87.86400     0.00000  0.0
     55     57     56     58   5     0.00000    87.86400     0.00000  0.0
     59     61     60     74   5     0.00000    87.86400     0.00000  0.0
     79     81     80     82   5     0.00000    87.86400     0.00000  0.0
     83     85     84     98   5     0.00000    87.86400     0.00000  0.0
    103    105    104    106   5     0.00000    87.86400     0.00000  0.0
    107    109    108    122   5     0.00000    87.86400     0.00000  0.0
    127    129    128    130   5     0.00000    87.86400     0.00000  0.0
    131    133    132    146   5     0.00000    87.86400     0.00000  0.0
    151    153    152    154   5     0.00000    87.86400     0.00000  0.0
    155    157    156    170   5     0.00000    87.86400     0.00000  0.0
    175    177    176    178   5     0.00000    87.86400     0.00000  0.0
    179    181    180    194   5     0.00000    87.86400     0.00000  0.0
    199    201    200    202   5     0.00000    87.86400     0.00000  0.0
    203    205    204    218   5     0.00000    87.86400     0.00000  0.0
    223    225    224    226   5     0.00000    87.86400     0.00000  0.0
    227    229    228    242   5     0.00000    87.86400     0.00000  0.0
    247    249    248    250   5     0.00000    87.86400     0.00000  0.0
    251    253    252    266   5     0.00000    87.86400     0.00000  0.0
    271    273    272    274   5     0.00000    87.86400     0.00000  0.0
    275    277    276    290   5     0.00000    87.86400     0.00000  0.0
    295    297    296    298   5     0.00000    87.86400     0.00000  0.0
    299    301    300    314   5     0.00000    87.86400     0.00000  0.0
    319    321    320    322   5     0.00000    87.86400     0.00000  0.0
    323    325    324    338   5     0.00000    87.86400     0.00000  0.0
    343    345    344    346   5     0.00000    87.86400     0.00000  0.0
    347    349    348    362   5     0.00000    87.86400     0.00000  0.0
    367    369    368    370   5     0.00000    87.86400     0.00000  0.0
    371    373    372    386   5     0.00000    87.86400     0.00000  0.0
    391    393    392    394   5     0.00000    87.86400     0.00000  0.0
    395    397    396    410   5     0.00000    87.86400     0.00000  0.0
    415    417    416    418   5     0.00000    87.86400     0.00000  0.0
    419    421    420    434   5     0.00000    87.86400     0.00000  0.0
    439    441    440    442   5     0.00000    87.86400     0.00000  0.0
    443    445    444    458   5     0.00000    87.86400     0.00000  0.0
    463    465    464    466   5     0.00000    87.86400     0.00000  0.0
    467    469    468    482   5     0.00000    87.86400     0.00000  0.0
