Control file title. For DL_FIELD 4.10
49646
    1MOL     O1    1   2.282   3.934   2.896 -0.6179  0.4704 -0.4686
    1MOL     C2    2   2.216   3.964   2.770  0.7768  0.2426  0.0954
    1MOL     C3    3   2.068   3.946   2.795  1.1423  0.0098  0.3995
    1MOL     C4    4   2.036   3.792   2.821 -0.0075  0.0683 -0.8262
    1MOL     C5    5   2.043   3.706   2.693 -0.1458  0.4864  0.2973
    1MOL     O6    6   1.928   3.743   2.614 -0.4736 -0.3711 -0.1859
    1MOL     C7    7   1.917   3.701   2.490 -0.0889  0.2652  0.7314
    1MOL     O8    8   1.992   3.627   2.426 -0.7704  0.4424  0.1463
    1MOL     C9    9   1.787   3.756   2.432 -0.2387  0.3225  0.4651
    1MOL    C10   10   1.751   3.687   2.293 -0.1315  0.2390 -0.7638
    1MOL    C11   11   1.629   3.603   2.289  0.8871  0.1750  0.8487
    1MOL    O12   12   1.561   3.572   2.385 -0.2903 -0.3852  0.1108
    1MOL    H13   13   2.241   4.067   2.746 -2.7347  0.9985 -0.5141
    1MOL    H14   14   2.254   3.901   2.689  1.6282  1.0027 -0.1073
    1MOL    H15   15   2.008   3.966   2.706  1.1818 -0.0055  0.3694
    1MOL    H16   16   2.025   4.010   2.872 -1.4382 -1.1218 -0.0438
    1MOL    H17   17   1.939   3.780   2.871  0.3202  1.1119  0.0670
    1MOL    H18   18   2.102   3.740   2.891 -0.2569 -0.7464 -1.1915
    1MOL    H19   19   2.137   3.715   2.639 -0.0108 -0.7754  0.3140
    1MOL    H20   20   2.035   3.600   2.719  0.6751  0.0296 -1.2352
    1MOL    H21   21   1.783   3.865   2.426 -1.5671  0.2632  0.0218
    1MOL    H22   22   1.710   3.736   2.507 -1.3219 -0.1582 -0.7435
    1MOL    H23   23   1.725   3.773   2.230 -0.4742  1.6793  1.3036
    1MOL    H24   24   1.833   3.629   2.252  0.4429  1.0017 -0.7218
    1MOL    H25   25   2.295   4.011   2.948  0.2818  0.5267 -0.7545
    1MOL    O26   26   1.599   3.566   2.162  0.1492  0.1894  0.1359
    1MOL    C27   27   1.476   3.502   2.135 -0.4078  0.1978  0.1495
    1MOL    C28   28   1.487   3.416   2.011  0.3634  0.1843  0.6185
    1MOL    C29   29   1.609   3.326   1.999  0.1927 -0.8991 -0.1785
    1MOL    C30   30   1.593   3.204   2.076  0.1475 -0.1739  0.1675
    1MOL    O31   31   1.472   3.134   2.051 -0.3645  0.0763 -0.4642
    1MOL    C32   32   1.436   3.038   2.137  0.4278  0.4075 -0.3205
    1MOL    O33   33   1.506   2.986   2.222  0.1330  0.2193  0.0931
    1MOL    C34   34   1.285   3.000   2.139 -0.8854  0.1661  0.1521
    1MOL    C35   35   1.250   2.933   2.006  0.0252  0.0482  0.0075
    1MOL    C36   36   1.109   2.874   2.006  0.4130  0.1354 -0.3647
    1MOL    O37   37   1.032   2.857   2.104 -0.2045  0.5163  0.1063
    1MOL    H38   38   1.447   3.447   2.224  0.9373  0.2281  0.6116
    1MOL    H39   39   1.398   3.578   2.134  0.8874  1.5508 -0.4577
    1MOL    H40   40   1.514   3.495   1.941  2.7212 -3.3314 -2.6975
    1MOL    H41   41   1.392   3.366   1.991  1.0046 -1.0070  0.5064
    1MOL    H42   42   1.701   3.380   2.022 -1.1425  0.7928  1.2190
    1MOL    H43   43   1.613   3.296   1.894  0.3840  0.8946 -0.6956
    1MOL    H44   44   1.675   3.133   2.066  0.9542  0.5985  1.1374
    1MOL    H45   45   1.590   3.241   2.178 -1.7725 -0.0997  0.0936
    1MOL    H46   46   1.231   3.089   2.171 -1.1761  0.5856 -1.4625
    1MOL    H47   47   1.275   2.917   2.209 -0.4399 -1.3456 -1.5202
    1MOL    H48   48   1.257   3.002   1.922 -2.1859 -0.9839 -1.1024
    1MOL    H49   49   1.316   2.849   1.987  2.4813  1.7844  0.6640
    1MOL    O50   50   1.074   2.838   1.873 -0.0550 -0.4590 -0.3231
    1MOL    C51   51   0.951   2.774   1.862 -0.2305 -0.6525  0.0571
    1MOL    C52   52   0.927   2.749   1.718 -0.2125  0.3905  0.0275
    1MOL    C53   53   0.966   2.865   1.620  0.0898  0.0902 -0.4781
    1MOL    C54   54   0.940   2.815   1.477  0.0420 -0.1955 -0.3212
    1MOL    O55   55   0.805   2.822   1.429  0.8742  0.2660 -0.2668
    1MOL    C56   56   0.779   2.786   1.303  0.0759 -0.2388  0.4457
    1MOL    O57   57   0.862   2.749   1.216  0.2139  0.5488 -0.1143
    1MOL    C58   58   0.636   2.804   1.272  0.1216  0.8973  0.3966
    1MOL    C59   59   0.545   2.681   1.319  0.0648 -0.0026 -0.3012
    1MOL    C60   60   0.504   2.605   1.194 -0.0319  0.8997 -0.4425
    1MOL    O61   61   0.473   2.659   1.091  0.4254  0.3229  0.3446
    1MOL    H62   62   0.952   2.680   1.917 -0.2411 -2.5706 -3.0690
    1MOL    H63   63   0.878   2.837   1.914  0.7113  0.0354  0.5561
    1MOL    H64   64   0.822   2.727   1.703  0.5296 -3.1804 -0.2260
    1MOL    H65   65   0.977   2.654   1.703  0.5990  0.5078  1.8083
    1MOL    H66   66   1.071   2.891   1.626  0.2205  0.3433 -3.3154
    1MOL    H67   67   0.910   2.957   1.638  1.2672  0.6492  0.3858
    1MOL    H68   68   1.000   2.875   1.409  2.9290 -0.4365  1.9001
    1MOL    H69   69   0.960   2.708   1.480 -0.5778 -0.2806  1.9706
    1MOL    H70   70   0.632   2.812   1.164 -2.7776  0.4370  0.4322
    1MOL    H71   71   0.594   2.892   1.320 -3.1822 -1.0130  1.1966
    1MOL    H72   72   0.596   2.624   1.396 -1.9033  1.8345  2.4651
    1MOL    H73   73   0.453   2.717   1.364  1.3198  0.4185  1.9852
    1MOL    O74   74   0.514   2.472   1.214  0.4272 -0.0609  0.0585
    1MOL    C75   75   0.486   2.387   1.109  0.2144 -0.0862  0.6774
    1MOL    C76   76   0.452   2.248   1.158 -0.4185 -0.5903  0.6694
    1MOL    C77   77   0.580   2.182   1.221  0.1957 -0.2605 -0.0209
    1MOL    C78   78   0.565   2.025   1.234  0.5572 -0.1899 -0.2245
    1MOL    O79   79   0.683   1.979   1.308 -0.4670 -0.3158 -0.1328
    1MOL    C80   80   0.673   1.918   1.427  0.4393 -0.0616  0.9225
    1MOL    O81   81   0.571   1.877   1.486  0.1462 -0.0802  0.8065
    1MOL    C82   82   0.804   1.869   1.483  0.1844 -0.4143 -1.3963
    1MOL    C83   83   0.896   1.976   1.552  0.0003  0.0282 -0.8428
    1MOL    C84   84   0.873   1.963   1.708  0.0285  0.3975  0.8999
    1MOL    O85   85   0.811   2.043   1.776  0.5568 -0.4575  0.2757
    1MOL    H86   86   0.394   2.420   1.061 -0.0475 -1.6009  0.0798
    1MOL    H87   87   0.563   2.383   1.032 -2.4609  0.0285 -2.1263
    1MOL    H88   88   0.419   2.192   1.070 -0.6074  2.0587 -1.0253
    1MOL    H89   89   0.367   2.238   1.225 -2.5997  1.2427 -1.7448
    1MOL    H90   90   0.608   2.233   1.313 -0.3929 -1.4922  0.8438
    1MOL    H91   91   0.667   2.198   1.157  0.1788  0.6628  0.1859
    1MOL    H92   92   0.468   2.010   1.280  1.3524  0.8519  1.8844
    1MOL    H93   93   0.552   1.987   1.133 -1.5422  0.5521 -0.2465
    1MOL    H94   94   0.856   1.823   1.398 -0.2966 -0.7620 -1.5049
    1MOL    H95   95   0.783   1.785   1.549 -0.3318  1.1812  0.5126
    1MOL    H96   96   1.000   1.959   1.526 -0.3335 -3.7802  0.1297
    1MOL    H97   97   0.858   2.077   1.536  1.0253  0.7162  0.9581
    1MOL    O98   98   0.946   1.861   1.759 -0.0828  0.0371  0.3296
    1MOL    C99   99   0.951   1.826   1.899  0.3466 -0.2060 -0.5084
    1MOL   C100  100   1.095   1.860   1.952  0.8845  0.0939  0.6900
    1MOL   C101  101   1.110   2.003   2.005 -0.0464  0.0023 -0.4158
    1MOL   C102  102   1.249   2.018   2.075 -0.3379 -0.5267 -0.4180
    1MOL   O103  103   1.267   2.149   2.138 -0.8078  0.8468 -0.1698
    1MOL   C104  104   1.388   2.165   2.207  0.4983 -0.3712  0.3194
    1MOL   O105  105   1.470   2.075   2.231  0.6881 -0.7160  0.4679
    1MOL   C106  106   1.414   2.310   2.242 -0.5297  0.5137  0.5499
    1MOL   C107  107   1.300   2.379   2.324 -0.2582  0.3863  0.1750
    1MOL   C108  108   1.206   2.475   2.253 -0.4318 -0.2319 -0.0421
    1MOL   O109  109   1.256   2.548   2.161  0.2982 -0.1973  0.2030
    1MOL   H110  110   0.876   1.889   1.948 -0.1340 -1.3999  0.3207
    1MOL   H111  111   0.918   1.724   1.919 -0.1869  0.5956  2.9505
    1MOL   H112  112   1.156   1.833   1.866  0.8040 -0.6774  0.8779
    1MOL   H113  113   1.117   1.801   2.040  0.6878 -2.3766 -0.8672
    1MOL   H114  114   1.026   2.032   2.068 -0.1199  1.0713 -0.9929
    1MOL   H115  115   1.114   2.065   1.915 -1.7215 -0.7408 -1.0128
    1MOL   H116  116   1.260   1.942   2.152  1.9283  0.7270  0.5543
    1MOL   H117  117   1.323   2.008   1.996 -1.1170 -0.2288 -1.1945
    1MOL   H118  118   1.429   2.357   2.145  4.1026  1.8940  1.8216
    1MOL   H119  119   1.516   2.310   2.281 -0.3873  0.8514  0.1861
    1MOL   H120  120   1.243   2.307   2.384 -1.5931  0.6158 -0.7920
    1MOL   H121  121   1.350   2.443   2.396  1.9720 -1.1505  0.0265
    1MOL   O122  122   1.089   2.493   2.319  1.0035 -0.6840  0.2303
    1MOL   C123  123   1.017   2.617   2.288  0.0307  0.1583  0.1995
    1MOL   C124  124   0.881   2.600   2.354 -0.1158 -0.1587  0.2451
    1MOL   C125  125   0.788   2.721   2.328  0.4337  0.8152  0.4676
    1MOL   C126  126   0.653   2.695   2.399  0.6032  0.8936  0.1334
    1MOL   O127  127   0.558   2.795   2.386  0.0068 -0.1594  0.5136
    1MOL   C128  128   0.437   2.782   2.426  0.0793  0.2056  0.6965
    1MOL   O129  129   0.379   2.677   2.470 -0.2713  0.6691  0.0260
    1MOL   C130  130   0.364   2.911   2.412  0.4943  0.0644 -0.1654
    1MOL   C131  131   0.211   2.892   2.416  0.0588 -0.6369  0.1567
    1MOL   C132  132   0.136   3.022   2.423 -0.2756 -0.0126 -0.4547
    1MOL   O133  133   0.082   3.061   2.533  0.8248  0.1041 -0.0050
    1MOL   H134  134   1.078   2.694   2.335 -1.1350 -0.1651  2.3175
    1MOL   H135  135   1.015   2.638   2.181 -0.5248 -0.8851 -0.0044
    1MOL   H136  136   0.889   2.591   2.462 -0.5757 -1.1078  0.2026
    1MOL   H137  137   0.830   2.506   2.333 -1.4527  0.7564 -0.6773
    1MOL   H138  138   0.768   2.732   2.221 -0.7919  1.8522  0.7985
    1MOL   H139  139   0.834   2.813   2.362  4.0664 -0.7646  0.1090
    1MOL   H140  140   0.603   2.606   2.360  0.7485 -0.0599  2.0860
    1MOL   H141  141   0.657   2.674   2.505  0.1753 -2.1546 -0.4242
    1MOL   H142  142   0.388   2.965   2.321 -1.8926 -0.9310 -1.4224
    1MOL   H143  143   0.396   2.973   2.496  0.7343 -0.5344  0.1943
    1MOL   H144  144   0.172   2.824   2.340 -1.9675  0.6392  0.0106
    1MOL   H145  145   0.195   2.839   2.510  1.4375 -0.4229  0.5226
    1MOL   O146  146   0.144   3.086   2.305 -0.1537  0.0081 -0.2948
    1MOL   C147  147   0.066   3.201   2.283  0.0668  0.1210 -0.0885
    1MOL   C148  148   7.798   3.166   2.228  0.2180 -0.2796 -0.2549
    1MOL   C149  149   7.795   3.070   2.111 -0.0612 -0.0634  0.1133
    1MOL   C150  150   7.658   3.066   2.036  0.2617 -0.5156 -0.3279
    1MOL   O151  151   7.672   2.974   1.932 -0.8060  0.0218  0.2344
    1MOL   C152  152   7.688   3.020   1.806 -1.1794  0.3060  0.3330
    1MOL   O153  153   7.665   3.133   1.760  0.3476 -0.1886 -0.4485
    1MOL   C154  154   7.738   2.909   1.708 -0.2695  1.1058 -0.0554
    1MOL   C155  155   0.012   2.925   1.698  0.4426 -0.2991  0.3439
    1MOL   C156  156   0.085   2.805   1.763 -0.0410 -0.1292 -0.3968
    1MOL   O157  157   0.126   2.707   1.698  0.1096 -0.1260 -0.2774
    1MOL   H158  158   0.068   3.265   2.371  2.2160  0.8136 -0.6082
    1MOL   H159  159   0.113   3.264   2.206 -0.2341 -0.7294 -0.9787
    1MOL   H160  160   7.743   3.257   2.206  2.2048  1.5693  2.0859
    1MOL   H161  161   7.744   3.114   2.307  1.7925  0.2978  1.2455
    1MOL   H162  162   7.844   2.979   2.144 -0.3303  0.1292  1.0681
    1MOL   H163  163   7.862   3.109   2.035 -2.3553  0.8215 -1.5017
    1MOL   H164  164   7.570   3.036   2.092  0.3621 -0.4724 -0.1455
    1MOL   H165  165   7.639   3.169   2.004  1.6003 -0.0195  0.4246
    1MOL   H166  166   7.701   2.923   1.606  1.2437 -0.9285 -0.9166
    1MOL   H167  167   7.711   2.811   1.748  1.6583  0.9118  0.8293
    1MOL   H168  168   0.045   2.934   1.595 -0.6353 -2.7164 -0.2515
    1MOL   H169  169   0.047   3.012   1.754  1.7075 -0.9694  0.6149
    1MOL   O170  170   0.098   2.816   1.902 -0.2380  0.7502  0.2824
    1MOL   C171  171   0.129   2.706   1.985  0.2338  0.0641  0.6186
    1MOL   C172  172   0.006   2.656   2.057  0.0672  0.5080  0.0279
    1MOL   C173  173   7.777   2.592   1.977  0.5625  0.0831 -0.3574
    1MOL   C174  174   7.663   2.561   2.067  0.4375 -0.9203 -0.3946
    1MOL   O175  175   7.689   2.446   2.144 -0.2798 -0.5001  0.1301
    1MOL   C176  176   7.590   2.367   2.181 -0.8791  0.8218 -0.0930
    1MOL   O177  177   7.475   2.373   2.135 -0.4301 -0.0729  0.2091
    1MOL   C178  178   7.637   2.270   2.293  0.7073  0.3649 -0.3080
    1MOL   C179  179   7.526   2.192   2.361  0.1297  0.1658  0.4357
    1MOL   C180  180   7.507   2.053   2.307  0.1715  0.2190 -1.0828
    1MOL   O181  181   7.416   2.029   2.228 -0.3693 -0.2742 -0.2188
    1MOL   H182  182   0.167   2.626   1.922 -0.1663  1.3858 -1.3518
    1MOL   H183  183   0.204   2.733   2.060 -0.9429 -1.2130  2.2899
    1MOL   H184  184   7.844   2.740   2.116 -1.1248 -1.0685  1.5551
    1MOL   H185  185   0.026   2.581   2.133 -1.2351  2.5332  2.4508
    1MOL   H186  186   7.816   2.507   1.921 -1.6133  0.1247 -2.0158
    1MOL   H187  187   7.748   2.663   1.899  4.0759  2.0191 -0.0071
    1MOL   H188  188   7.639   2.645   2.133  1.3489  0.9850 -2.4460
    1MOL   H189  189   7.579   2.545   1.999  0.3747  1.1823 -0.8322
    1MOL   H190  190   7.691   2.323   2.371 -0.1178 -0.4279  0.7991
    1MOL   H191  191   7.702   2.194   2.249 -0.5883 -0.6534 -0.4763
    1MOL   H192  192   7.541   2.178   2.468 -0.0264 -2.5480  0.1383
    1MOL   H193  193   7.441   2.257   2.339  0.8123  1.1284  0.6044
    1MOL   O194  194   7.592   1.964   2.361 -0.1767 -0.1119 -0.2419
    1MOL   C195  195   7.579   1.830   2.313  0.0886  1.1294 -0.1607
    1MOL   C196  196   7.501   1.745   2.410 -0.2513 -0.2573 -0.0345
    1MOL   C197  197   7.511   1.595   2.383 -0.6336 -0.1179  0.2792
    1MOL   C198  198   7.630   1.523   2.455 -0.1429  0.1095  0.5418
    1MOL   O199  199   7.651   1.574   2.587 -0.1036  0.7974 -0.2856
    1MOL   C200  200   7.745   1.517   2.660  0.9416 -0.0651 -0.1527
    1MOL   O201  201   7.794   1.404   2.638  0.8464  0.0950 -0.1702
    1MOL   C202  202   7.783   1.600   2.784  0.0297  0.8878  0.4906
    1MOL   C203  203   7.673   1.595   2.898 -0.4704  0.7219  0.4888
    1MOL   C204  204   7.721   1.534   3.027 -0.2287 -0.1527 -0.0164
    1MOL   O205  205   7.669   1.433   3.070  0.0483  0.1434  0.5735
    1MOL   H206  206   7.543   1.814   2.212  1.2732  2.1165 -0.7577
    1MOL   H207  207   7.680   1.790   2.318  0.4044  2.0500  1.0971
    1MOL   H208  208   7.399   1.782   2.396 -0.2650  1.0178  3.1860
    1MOL   H209  209   7.533   1.761   2.512 -3.5368  1.0243  0.8767
    1MOL   H210  210   7.523   1.586   2.275 -0.6389 -0.9882  0.3444
    1MOL   H211  211   7.419   1.548   2.418  0.2734 -3.4878 -1.6456
    1MOL   H212  212   7.607   1.417   2.456 -2.0101  0.4034 -2.8601
    1MOL   H213  213   7.717   1.538   2.390 -1.1062 -0.6777 -0.9584
    1MOL   H214  214   7.808   1.697   2.742  1.9295  0.8423  1.5103
    1MOL   H215  215   0.007   1.561   2.810 -0.3979  0.0666  0.9202
    1MOL   H216  216   7.650   1.697   2.931  1.0721  0.8143  1.3254
    1MOL   H217  217   7.585   1.547   2.854  0.0470 -1.4817  1.8539
    1MOL   O218  218   7.812   1.607   3.086 -0.4085  0.4855  0.1453
    1MOL   C219  219   7.868   1.574   3.211 -0.1584 -0.3202 -0.6418
    1MOL   C220  220   0.102   1.674   3.257 -0.3707  0.0135  0.7039
    1MOL   C221  221   0.232   1.654   3.186 -0.2738  0.2194 -0.6334
    1MOL   C222  222   0.328   1.767   3.230 -0.2514  0.1337 -0.3518
    1MOL   O223  223   0.357   1.739   3.360 -0.4316 -0.4554  0.4086
    1MOL   C224  224   0.454   1.808   3.428 -0.5998 -0.0734  0.2814
    1MOL   O225  225   0.511   1.914   3.391 -0.0141 -0.1251  0.1075
    1MOL   C226  226   0.496   1.732   3.552  0.8180  0.0930  1.1526
    1MOL   C227  227   0.551   1.818   3.669 -0.7376  0.0062 -0.2715
    1MOL   C228  228   0.487   1.780   3.800  0.3511 -0.2115 -0.1162
    1MOL   O229  229   0.410   1.859   3.854  0.3915  0.0964 -0.9820
    1MOL   H230  230   7.791   1.562   3.287 -1.2221 -0.5362 -1.7453
    1MOL   H231  231   0.043   1.477   3.206  0.8083  0.0071  1.9778
    1MOL   H232  232   0.118   1.661   3.364  1.2842 -2.0864  0.2344
    1MOL   H233  233   0.086   1.780   3.236  1.0778 -0.2210 -1.7933
    1MOL   H234  234   0.222   1.675   3.079 -2.2692  0.0273 -0.5014
    1MOL   H235  235   0.280   1.559   3.206  1.9453  1.9185  2.5646
    1MOL   H236  236   0.414   1.765   3.163  0.3322 -2.5798  0.4351
    1MOL   H237  237   0.289   1.868   3.215 -2.2122 -0.9206 -2.8801
    1MOL   H238  238   0.560   1.649   3.520 -1.9110 -0.7679 -2.3623
    1MOL   H239  239   0.403   1.693   3.593 -1.1887  1.4352 -1.9265
    1MOL   H240  240   0.657   1.797   3.679 -0.6649  1.1303  1.7914
    1MOL   H241  241   0.537   1.924   3.649  0.4098  0.0199 -1.0556
    1MOL   O242  242   0.516   1.662   3.846  0.2577  0.5959 -0.0510
    1MOL   C243  243   0.471   1.620   3.973  0.1596 -0.1790 -0.7912
    1MOL   C244  244   0.337   1.546   3.965 -0.2782  0.1223 -0.0927
    1MOL   C245  245   0.290   1.470   4.097 -0.6003 -0.3040  0.3347
    1MOL   C246  246   0.149   1.404   4.075  0.3843  0.4401 -0.2079
    1MOL   O247  247   0.040   1.497   4.108  0.1480 -0.1242 -0.4880
    1MOL   C248  248   7.778   1.473   4.080  0.4112 -0.1617 -0.5871
    1MOL   O249  249   7.725   1.366   4.063  0.3818  0.7111 -0.0438
    1MOL   C250  250   7.696   1.605   4.101 -0.0063  0.3096  0.4889
    1MOL   C251  251   7.542   1.583   4.099 -0.2643  0.2819  0.2803
    1MOL   C252  252   7.476   1.649   3.976 -0.1488  0.5329 -0.0344
    1MOL   O253  253   7.474   1.593   3.866  0.1573 -0.8628  0.7973
    1MOL   H254  254   0.550   1.558   4.015 -0.9742  0.2371  2.0536
    1MOL   H255  255   0.472   1.709   4.036  0.5241  0.0030 -1.0463
    1MOL   H256  256   0.335   1.470   3.888 -1.0920  0.5459 -0.5080
    1MOL   H257  257   0.262   1.621   3.936 -1.5408 -1.4425 -0.9430
    1MOL   H258  258   0.280   1.540   4.181 -1.3409 -0.8389  0.7019
    1MOL   H259  259   0.362   1.391   4.118 -1.1659 -0.5496  1.4289
    1MOL   H260  260   0.140   1.374   3.971  1.1781  2.3291 -0.8415
    1MOL   H261  261   0.155   1.321   4.144 -0.3255  0.8424  0.3487
    1MOL   H262  262   7.721   1.684   4.030 -0.1361 -1.3649 -1.4490
    1MOL   H263  263   7.723   1.633   4.203 -0.2682 -2.1891  1.2729
    1MOL   H264  264   7.511   1.479   4.101  1.1960 -0.1977 -1.1972
    1MOL   H265  265   7.502   1.640   4.183 -1.3915 -0.6028  0.3513
    1MOL   O266  266   7.439   1.772   3.995 -0.4425  0.9865  0.1056
    1MOL   C267  267   7.338   1.834   3.923 -0.5605  0.0599 -0.0170
    1MOL   C268  268   7.381   1.964   3.853 -0.3780  0.4180  0.2565
    1MOL   C269  269   7.499   1.946   3.756  0.1212 -0.0293 -0.3311
    1MOL   C270  270   7.558   2.068   3.684  0.2000  0.3212 -0.1416
    1MOL   O271  271   7.470   2.132   3.596  0.3631  0.2072 -0.2490
    1MOL   C272  272   7.512   2.228   3.512 -0.4787  0.2403 -0.0963
    1MOL   O273  273   7.624   2.277   3.512 -0.4338  0.4034 -0.2662
    1MOL   C274  274   7.402   2.266   3.417  0.5626  0.0438  0.1302
    1MOL   C275  275   7.461   2.266   3.274 -0.1212  0.1924  0.1265
    1MOL   C276  276   7.384   2.171   3.182 -0.3711 -0.1716  0.5495
    1MOL   O277  277   7.281   2.110   3.209 -0.3837 -0.1496 -0.5679
    1MOL   H278  278   7.281   1.769   3.858  0.7557 -1.1346  0.0068
    1MOL   H279  279   7.263   1.857   3.999 -1.3292  0.3338 -0.8509
    1MOL   H280  280   7.410   2.036   3.930  2.4866  0.0831 -0.4591
    1MOL   H281  281   7.299   2.013   3.800 -0.2865  1.4319  1.0202
    1MOL   H282  282   7.465   1.866   3.690  1.8754 -1.3878  0.3898
    1MOL   H283  283   7.575   1.907   3.824  0.2755 -1.0149 -1.0638
    1MOL   H284  284   7.596   2.142   3.754 -2.9820 -0.6067  2.6826
    1MOL   H285  285   7.638   2.036   3.617 -0.3759 -1.4929  0.0200
    1MOL   H286  286   7.367   2.367   3.439  0.4654  0.5857 -2.3934
    1MOL   H287  287   7.314   2.204   3.432  1.6912 -1.6149  0.0284
    1MOL   H288  288   7.451   2.363   3.226  0.1757  0.4940  0.6713
    1MOL   H289  289   7.569   2.254   3.272 -0.3519 -2.0792 -2.4956
    1MOL   O290  290   7.450   2.166   3.068  0.4007  0.1266  0.1890
    1MOL   C291  291   7.403   2.094   2.958  0.1997  0.1869  0.8153
    1MOL   C292  292   7.507   1.989   2.922  0.5658 -0.4784  0.0145
    1MOL   C293  293   7.481   1.922   2.787 -0.7497  0.5215  0.0442
    1MOL   C294  294   7.363   1.823   2.796  0.4158 -0.2613  0.4291
    1MOL   O295  295   7.241   1.884   2.821  0.5879  0.3347  0.7661
    1MOL   C296  296   7.128   1.809   2.838 -0.2653 -0.3903  0.0419
    1MOL   O297  297   7.124   1.690   2.823 -0.0233  0.1316  0.5237
    1MOL   C298  298   7.016   1.888   2.881 -0.0160 -0.6800  0.1673
    1MOL   C299  299   7.038   1.958   3.017 -0.4098 -0.0206 -0.4410
    1MOL   C300  300   6.909   1.952   3.105  0.3337  0.2206  0.0353
    1MOL   O301  301   6.901   1.874   3.202 -0.0983 -0.1909 -1.0426
    1MOL   H302  302   7.316   2.035   2.986  0.9079 -1.0361  0.5035
    1MOL   H303  303   7.379   2.164   2.878  0.5986  0.2060  0.7115
    1MOL   H304  304   7.510   1.916   3.003 -1.9948 -0.8672 -0.2186
    1MOL   H305  305   7.605   2.038   2.917  1.3865 -2.0239  0.5012
    1MOL   H306  306   7.575   1.870   2.770 -1.1885 -1.5519  3.5039
    1MOL   H307  307   7.465   1.986   2.700 -0.7497  0.2505 -0.1560
    1MOL   H308  308   7.358   1.776   2.698  0.3107 -1.4309  0.9801
    1MOL   H309  309   7.384   1.755   2.879 -0.0201 -0.2761  0.5259
    1MOL   H310  310   6.923   1.831   2.880 -1.2185  1.2724 -0.5647
    1MOL   H311  311   7.003   1.964   2.804  0.6419 -3.2546 -2.6025
    1MOL   H312  312   7.122   1.908   3.065 -0.2938  1.1694  0.6234
    1MOL   H313  313   7.084   2.056   3.004 -0.3668  0.2252  1.3911
    1MOL   O314  314   6.816   2.034   3.063 -0.2415  0.5355 -0.4952
    1MOL   C315  315   6.684   2.024   3.114  0.4125 -0.0708  0.7081
    1MOL   C316  316   6.630   2.156   3.064  0.4663  0.7119 -0.2411
    1MOL   C317  317   6.476   2.195   3.092  0.5930  0.1517 -0.0961
    1MOL   C318  318   6.375   2.123   3.009 -0.1933 -0.2738 -0.0796
    1MOL   O319  319   6.387   2.158   2.868  0.2023  0.1773  0.5145
    1MOL   C320  320   6.314   2.257   2.817 -0.3578  0.6010 -0.4628
    1MOL   O321  321   6.245   2.335   2.880 -0.5329  0.8931 -0.2403
    1MOL   C322  322   6.299   2.265   2.661  0.1529 -0.9127 -0.0976
    1MOL   C323  323   6.434   2.265   2.586  0.1317  0.1105 -1.1895
    1MOL   C324  324   6.518   2.383   2.593  0.0023 -0.3869  0.6021
    1MOL   O325  325   6.541   2.448   2.488  0.2577 -0.9895 -0.6795
    1MOL   H326  326   6.623   1.941   3.080  1.1216  0.8559 -3.0437
    1MOL   H327  327   6.681   2.010   3.222  0.3268  3.0377  1.1606
    1MOL   H328  328   6.651   2.161   2.958  1.4297 -1.8863 -0.2188
    1MOL   H329  329   6.691   2.233   3.113  0.5991  0.8565 -0.6378
    1MOL   H330  330   6.465   2.303   3.086  0.6411  0.2835  1.8319
    1MOL   H331  331   6.459   2.168   3.196  3.6784 -3.0819 -0.3240
    1MOL   H332  332   6.395   2.016   3.013 -0.9626 -0.5087 -2.0683
    1MOL   H333  333   6.277   2.146   3.052  0.3129  2.4944 -0.3072
    1MOL   H334  334   6.249   2.357   2.628 -2.9152 -2.8450 -1.0380
    1MOL   H335  335   6.239   2.181   2.628 -1.7574 -0.3832  1.9030
    1MOL   H336  336   6.504   2.191   2.623  1.1530  0.4253 -2.4656
    1MOL   H337  337   6.418   2.235   2.483 -0.9494 -1.3468 -0.6204
    1MOL   O338  338   6.563   2.416   2.723 -0.0678 -0.4531  0.1467
    1MOL   C339  339   6.654   2.527   2.737  0.1102  0.1244 -0.0554
    1MOL   C340  340   6.676   2.551   2.885  0.2985 -0.0009 -0.4718
    1MOL   C341  341   6.550   2.587   2.974 -0.5794 -0.6190 -0.2702
    1MOL   C342  342   6.575   2.639   3.124 -0.0084 -0.5284  0.2725
    1MOL   O343  343   6.585   2.537   3.223 -0.4815 -0.7445  1.2705
    1MOL   C344  344   6.567   2.572   3.348 -0.2764 -0.3233  0.2600
    1MOL   O345  345   6.514   2.674   3.389 -0.2728 -0.4879 -0.0135
    1MOL   C346  346   6.631   2.475   3.448 -0.3135  0.1446 -0.3622
    1MOL   C347  347   6.789   2.478   3.441 -0.1840 -0.0117 -0.6980
    1MOL   C348  348   6.855   2.362   3.365 -0.4285  0.4345  0.5177
    1MOL   O349  349   6.810   2.248   3.361 -0.7362 -0.3585 -0.7580
    1MOL   H350  350   6.746   2.487   2.692 -0.6591 -1.6453 -0.0851
    1MOL   H351  351   6.620   2.620   2.691  0.9054  1.0236  1.1332
    1MOL   H352  352   6.755   2.625   2.893  0.7895 -0.6225  0.5205
    1MOL   H353  353   6.725   2.459   2.916 -2.0792 -1.4103 -0.7733
    1MOL   H354  354   6.474   2.509   2.966 -1.8589  0.7006 -1.4838
    1MOL   H355  355   6.493   2.673   2.937 -0.7198  0.5061  2.4383
    1MOL   H356  356   6.663   2.703   3.123 -0.4160  0.0404  0.1501
    1MOL   H357  357   6.490   2.706   3.135  0.2724  0.0137 -0.8110
    1MOL   H358  358   6.601   2.379   3.406 -1.9153  2.0988 -3.9531
    1MOL   H359  359   6.603   2.488   3.553  0.9693 -2.3903  0.3338
    1MOL   H360  360   6.817   2.575   3.401 -1.0119 -0.1569 -1.6451
    1MOL   H361  361   6.826   2.469   3.543 -2.1169  1.4608  0.1679
    1MOL   O362  362   6.962   2.414   3.290 -0.6419  1.0183  0.5379
    1MOL   C363  363   7.052   2.330   3.228 -0.3325  0.1276  1.2012
    1MOL   C364  364   7.107   2.370   3.090  0.1986  0.0727  0.3272
    1MOL   C365  365   7.002   2.411   2.988  0.1745  0.5219 -0.0532
    1MOL   C366  366   7.060   2.447   2.852  0.0545  0.5557  0.3017
    1MOL   O367  367   7.143   2.336   2.804 -0.2617  0.5502 -0.1305
    1MOL   C368  368   7.161   2.307   2.672  0.3165  0.3455  0.3802
    1MOL   O369  369   7.114   2.378   2.588  0.2313 -0.2911  0.5568
    1MOL   C370  370   7.221   2.172   2.630 -0.0574 -0.2688 -0.9973
    1MOL   C371  371   7.202   2.128   2.483  0.1090 -0.1762 -0.6309
    1MOL   C372  372   7.113   2.007   2.481  0.1284 -0.6291  0.0651
    1MOL   O373  373   7.036   1.983   2.571  0.7402  0.2934 -0.0720
    1MOL   H374  374   7.130   2.310   3.302  0.4097  0.1575  0.4396
    1MOL   H375  375   6.996   2.239   3.208 -3.9057  2.3162  0.7152
    1MOL   H376  376   7.166   2.284   3.058 -0.1844 -0.3348  0.7029
    1MOL   H377  377   7.185   2.445   3.092 -0.6803  1.0013  0.3020
    1MOL   H378  378   6.958   2.504   3.025 -0.4899  0.2769 -0.2205
    1MOL   H379  379   6.921   2.338   2.994  0.6051 -0.0457 -1.0067
    1MOL   H380  380   6.979   2.476   2.785  0.5667 -0.7264 -0.8833
    1MOL   H381  381   7.121   2.536   2.868 -1.1734  1.1129  2.1018
    1MOL   H382  382   7.188   2.104   2.708 -0.4162  1.4845  0.4366
    1MOL   H383  383   7.328   2.194   2.632  0.0569 -0.8090 -1.1201
    1MOL   H384  384   7.162   2.212   2.426 -2.0837 -0.7240  0.0683
    1MOL   H385  385   7.300   2.092   2.451 -0.2212 -1.0613 -0.6628
    1MOL   O386  386   7.143   1.924   2.377  0.4286  0.1774  0.4792
    1MOL   C387  387   7.088   1.793   2.367  0.1922  0.0798 -0.0711
    1MOL   C388  388   7.148   1.712   2.248  0.6076 -0.3530 -0.0835
    1MOL   C389  389   7.154   1.793   2.110 -0.9120  0.6191  0.1465
    1MOL   C390  390   7.194   1.699   1.994 -0.3602  0.6694  0.1845
    1MOL   O391  391   7.325   1.643   2.018  0.3005  0.0291 -0.1113
    1MOL   C392  392   7.418   1.628   1.921  0.2281 -0.3439  0.2988
    1MOL   O393  393   7.408   1.663   1.808 -0.4438  0.4670  0.3371
    1MOL   C394  394   7.538   1.551   1.970  0.0867  0.2816 -0.3012
    1MOL   C395  395   7.675   1.585   1.905  0.2256 -0.5278  0.0086
    1MOL   C396  396   7.757   1.679   1.993 -0.9971  0.2254 -0.2483
    1MOL   O397  397   7.718   1.785   2.029 -0.1973 -0.1941  0.5234
    1MOL   H398  398   7.093   1.742   2.464  1.3408  0.5718  0.1391
    1MOL   H399  399   6.983   1.816   2.349  0.2200  1.7417  1.6453
    1MOL   H400  400   7.086   1.625   2.224 -2.5752  2.1317 -1.1995
    1MOL   H401  401   7.246   1.676   2.278 -0.5311 -1.6576  2.2537
    1MOL   H402  402   7.220   1.879   2.121  0.4909 -0.4329  0.0239
    1MOL   H403  403   7.054   1.835   2.096 -1.2889 -0.6947 -1.2198
    1MOL   H404  404   7.128   1.612   1.999 -0.0736  0.3769 -0.9131
    1MOL   H405  405   7.198   1.732   1.891  1.0374  0.0794  0.0360
    1MOL   H406  406   7.515   1.445   1.967  0.7875  0.0543  1.7508
    1MOL   H407  407   7.554   1.567   2.076  0.2826 -0.2352 -0.2527
    1MOL   H408  408   7.731   1.491   1.905  0.7114 -0.2720 -2.6191
    1MOL   H409  409   7.662   1.612   1.800  0.8927 -2.0394 -0.4691
    1MOL   O410  410   7.870   1.623   2.040 -0.3595 -0.0927 -0.1383
    1MOL   C411  411   0.076   1.694   2.137  0.3985  0.4907 -0.1083
    1MOL   C412  412   0.207   1.628   2.166  0.7486 -0.2015 -0.3947
    1MOL   C413  413   0.292   1.708   2.267  0.8582 -0.0355  0.2744
    1MOL   C414  414   0.227   1.725   2.407 -0.2021  0.2418 -0.3248
    1MOL   O415  415   0.139   1.828   2.423  0.5119  0.4178 -0.0176
    1MOL   C416  416   0.185   1.958   2.435 -0.2824 -0.6153 -0.4779
    1MOL   O417  417   0.299   1.997   2.421  0.0055 -0.1885 -0.8885
    1MOL   C418  418   0.069   2.049   2.479  0.4532 -0.4159 -0.5617
    1MOL   C419  419   0.010   2.004   2.604  0.1115 -0.2291  0.4440
    1MOL   C420  420   7.853   2.113   2.701 -1.0041 -0.2406 -0.3339
    1MOL   O421  421   7.771   2.198   2.672 -0.2405 -0.2833 -0.3188
    1MOL   H422  422   0.101   1.792   2.095 -0.1753  0.0394 -1.5343
    1MOL   H423  423   0.021   1.699   2.231 -0.5552  0.5715 -0.6639
    1MOL   H424  424   0.263   1.623   2.073  0.7107  1.4320 -0.5307
    1MOL   H425  425   0.186   1.533   2.216  0.1837 -0.2782 -0.7768
    1MOL   H426  426   0.310   1.802   2.215  1.9361 -0.3921 -0.0160
    1MOL   H427  427   0.383   1.649   2.275 -0.6401 -2.5771 -0.9820
    1MOL   H428  428   0.173   1.637   2.440  0.1117 -1.1133 -3.2219
    1MOL   H429  429   0.311   1.743   2.474  1.1162  0.8314 -2.0962
    1MOL   H430  430   0.012   2.041   2.386  2.3806 -1.8110 -1.6414
    1MOL   H431  431   0.104   2.151   2.491  0.9228 -0.3396 -2.3215
    1MOL   H432  432   7.778   1.983   2.591 -0.2700  1.5880  0.5805
    1MOL   H433  433   0.061   1.920   2.652 -0.2761  0.8733  2.9012
    1MOL   O434  434   0.054   2.105   2.815  0.0359 -0.1176 -0.3716
    1MOL   C435  435   0.039   2.208   2.911 -0.5429  0.3857 -0.4487
    1MOL   C436  436   0.132   2.189   3.027 -0.5280 -0.5042  0.8182
    1MOL   C437  437   0.076   2.081   3.126 -0.3717  0.3244  0.5689
    1MOL   C438  438   7.810   2.122   3.188  0.1869  1.0563  0.0980
    1MOL   O439  439   7.767   2.034   3.293 -0.0769 -0.2207  0.4913
    1MOL   C440  440   7.687   1.930   3.269 -0.6507  0.1037 -0.0855
    1MOL   O441  441   7.684   1.863   3.167 -0.3011  0.4920  0.6709
    1MOL   C442  442   7.609   1.898   3.389 -0.5198 -0.1710 -0.5056
    1MOL   C443  443   7.559   1.747   3.389 -0.0218 -0.5167  0.6456
    1MOL   C444  444   7.414   1.747   3.345 -0.4259 -0.2114 -0.0373
    1MOL   O445  445   7.384   1.763   3.225 -0.2974 -0.2811 -0.2625
    1MOL   H446  446   0.051   2.305   2.863 -0.0273  0.7643  0.4508
    1MOL   H447  447   7.812   2.213   2.948 -0.6335 -1.0401 -0.4742
    1MOL   H448  448   0.141   2.282   3.084 -2.4624  0.5404 -0.5263
    1MOL   H449  449   0.234   2.157   3.005 -1.3769 -0.1059 -4.3218
    1MOL   H450  450   0.145   2.054   3.206  0.6611 -2.6641 -1.2539
    1MOL   H451  451   0.067   1.993   3.062  1.0913  1.0262 -0.6272
    1MOL   H452  452   7.814   2.226   3.221 -0.7241  0.8920  0.7358
    1MOL   H453  453   7.742   2.103   3.105  0.4650  2.0805 -0.3792
    1MOL   H454  454   7.526   1.966   3.410  1.0841  1.4868  0.7111
    1MOL   H455  455   7.675   1.910   3.476 -0.6515 -0.3029 -0.3870
    1MOL   H456  456   7.619   1.677   3.331 -0.6952 -0.7393  0.2115
    1MOL   H457  457   7.566   1.718   3.494  1.6223  0.0346  0.6956
    1MOL   O458  458   7.325   1.727   3.440 -0.2930 -0.6818  0.0844
    1MOL   C459  459   7.183   1.727   3.412  0.3047  1.2665  0.3993
    1MOL   C460  460   7.106   1.822   3.503 -0.1859  0.6467  0.0210
    1MOL   C461  461   7.138   1.961   3.475  0.2101 -0.6755 -0.5312
    1MOL   C462  462   7.046   2.055   3.551  0.6259 -0.8568 -0.7512
    1MOL   O463  463   7.108   2.184   3.558 -0.2521 -0.1799  0.2736
    1MOL   C464  464   7.053   2.274   3.645  0.1791 -0.0390 -0.0008
    1MOL   O465  465   6.963   2.251   3.723  0.0272  0.5282  0.3382
    1MOL   C466  466   7.122   2.408   3.656 -0.2580  0.3822  0.3086
    1MOL   C467  467   7.262   2.394   3.719  0.0243  0.8115  1.2126
    1MOL   C468  468   7.270   2.413   3.872 -0.8352 -0.4120 -0.2558
    1MOL   O469  469   7.246   2.526   3.912 -0.2546  0.2349  0.4578
    1MOL   H470  470   7.158   1.755   3.310 -0.6615  0.7221  0.4789
    1MOL   H471  471   7.146   1.626   3.433  2.1102  0.5368  0.2040
    1MOL   H472  472   7.113   1.790   3.607 -0.5302  2.0080  0.4617
    1MOL   H473  473   7.000   1.808   3.483 -0.2353  0.8288  0.1655
    1MOL   H474  474   7.139   1.983   3.368  1.2400 -0.4534 -0.4851
    1MOL   H475  475   7.239   1.977   3.512 -0.3751  1.4808  0.2237
    1MOL   H476  476   6.951   2.077   3.500 -0.1038 -2.6092 -0.1884
    1MOL   H477  477   7.017   2.020   3.650 -0.7772 -0.8805 -1.1468
    1MOL   H478  478   7.055   2.465   3.720 -0.8377 -1.0717  1.0383
    1MOL   H479  479   7.101   2.460   3.563 -1.3765 -0.6937 -0.0561
    1MOL   H480  480   7.302   2.297   3.690 -0.3921  0.8117  0.6303
    1MOL   H481  481   7.328   2.469   3.674 -1.7047  0.9314 -1.2164
    1MOL   H482  482   7.285   2.320   3.926  1.8038  0.3219  0.3279
    2MOL     O1  483   4.471   3.974   7.841 -0.0307 -0.0364 -0.5708
    2MOL     C2  484   4.513   3.977   7.704  0.8046  0.5696 -0.2088
    2MOL     C3  485   4.394   3.984   7.608 -0.2181  0.0709 -0.2972
    2MOL     C4  486   4.304   4.098   7.638  0.8605  0.3899  0.2206
    2MOL     C5  487   4.204   4.121   7.527 -0.5350  0.5291  0.1581
    2MOL     O6  488   4.108   4.221   7.557 -0.9762 -0.0866  0.2815
    2MOL     C7  489   4.035   4.275   7.455 -0.1381  0.0854 -1.0944
    2MOL     O8  490   4.055   4.248   7.333 -0.4168 -0.7930  0.3029
    2MOL     C9  491   3.913   4.355   7.507 -0.0745  0.2452  0.3220
    2MOL    C10  492   3.809   4.281   7.584 -0.2423  0.3555 -0.1632
    2MOL    C11  493   3.726   4.370   7.682 -0.1322  0.0416  1.0166
    2MOL    O12  494   3.782   4.459   7.742 -0.2836 -0.2964 -0.3581
    2MOL    H13  495   4.561   4.074   7.692 -0.3482  1.1664 -0.0209
    2MOL    H14  496   4.586   3.898   7.687 -0.6930 -1.1027  0.8463
    2MOL    H15  497   4.324   3.900   7.606  0.5097 -0.5396 -0.1759
    2MOL    H16  498   4.427   3.991   7.504  2.7908  0.2528  0.6383
    2MOL    H17  499   4.366   4.187   7.647  0.0157  0.9954  0.1211
    2MOL    H18  500   4.241   4.070   7.723  0.3996  0.2245 -0.1780
    2MOL    H19  501   4.253   4.145   7.432 -1.7886 -0.4170 -0.7563
    2MOL    H20  502   4.145   4.031   7.509  2.5133 -1.2346 -1.4027
    2MOL    H21  503   3.872   4.411   7.423  2.2123  0.4160 -0.7016
    2MOL    H22  504   3.945   4.435   7.574  2.9375 -0.8493  0.2576
    2MOL    H23  505   3.727   4.244   7.522 -0.8220  3.2826 -1.2223
    2MOL    H24  506   3.836   4.207   7.659  1.8331  0.7087 -0.5468
    2MOL    H25  507   4.405   3.908   7.857 -0.4410  0.3287 -0.7440
    2MOL    O26  508   3.592   4.337   7.684  0.0980 -0.5030  0.0065
    2MOL    C27  509   3.503   4.397   7.770  0.0447  0.5352 -0.0939
    2MOL    C28  510   3.387   4.450   7.685  0.2772 -0.0579 -0.5332
    2MOL    C29  511   3.294   4.534   7.780 -0.1631  0.3304  0.1114
    2MOL    C30  512   3.185   4.618   7.714  0.2534 -0.3381  0.0350
    2MOL    O31  513   3.250   4.697   7.614 -0.5056 -1.0427 -0.2161
    2MOL    C32  514   3.188   4.815   7.577  0.2163  0.7288 -0.7215
    2MOL    O33  515   3.078   4.853   7.613 -0.4375  0.0899  0.0229
    2MOL    C34  516   3.278   4.881   7.472 -0.3042  0.2418 -0.0730
    2MOL    C35  517   3.203   4.975   7.375  0.2903  0.0753  0.3925
    2MOL    C36  518   3.231   4.968   7.228 -0.2929  0.7358  0.0709
    2MOL    O37  519   3.284   4.868   7.171 -0.4155 -0.9259  0.4626
    2MOL    H38  520   3.481   4.320   7.844  1.8683 -0.5240 -0.6252
    2MOL    H39  521   3.552   4.476   7.827 -1.1078  0.7651  0.5917
    2MOL    H40  522   3.323   4.372   7.643 -2.2149  2.4144 -1.4524
    2MOL    H41  523   3.423   4.501   7.595  0.0412 -0.9877 -1.1609
    2MOL    H42  524   3.348   4.606   7.840 -0.5797  0.0253  0.8586
    2MOL    H43  525   3.240   4.464   7.844 -0.7540 -0.8902 -1.6666
    2MOL    H44  526   3.113   4.556   7.660 -1.7951  0.7137  1.5119
    2MOL    H45  527   3.129   4.680   7.784  0.2355  0.6195 -0.8310
    2MOL    H46  528   3.326   4.800   7.417  3.3099  2.9671 -1.1406
    2MOL    H47  529   3.350   4.943   7.526  1.4187 -1.4164 -0.4028
    2MOL    H48  530   3.096   4.952   7.372  0.0231  1.4435 -2.8242
    2MOL    H49  531   3.210   5.081   7.398 -0.6488  0.5537 -1.4361
    2MOL    O50  532   3.191   5.083   7.177  0.4084  0.3623 -0.8143
    2MOL    C51  533   3.188   5.096   7.037 -0.1564  0.2967  0.3231
    2MOL    C52  534   3.128   5.226   6.992  0.1738 -0.2346 -0.1159
    2MOL    C53  535   3.020   5.213   6.892  0.5367  0.0379  0.4317
    2MOL    C54  536   2.984   5.346   6.824  0.3130 -0.4170  0.8690
    2MOL    O55  537   2.877   5.325   6.732  0.1874  0.0224  0.4137
    2MOL    C56  538   2.902   5.309   6.598  0.6072 -0.3431 -0.2074
    2MOL    O57  539   3.011   5.305   6.542  0.0043 -0.2579  0.0545
    2MOL    C58  540   2.769   5.300   6.520  0.7632 -0.8849 -0.1738
    2MOL    C59  541   2.724   5.152   6.507  0.8181 -0.2476  0.4695
    2MOL    C60  542   2.578   5.141   6.538 -0.2942 -1.0376 -0.0098
    2MOL    O61  543   2.498   5.238   6.536 -0.3142 -0.0585 -0.1890
    2MOL    H62  544   3.291   5.103   7.002 -0.6008  0.4621 -1.0138
    2MOL    H63  545   3.151   5.006   6.988 -0.5736  0.5021  0.2553
    2MOL    H64  546   3.212   5.288   6.960 -0.7467  0.0017 -2.1871
    2MOL    H65  547   3.073   5.265   7.077 -0.2347 -2.2556  0.5669
    2MOL    H66  548   2.931   5.161   6.927  0.0769 -0.8733 -1.9650
    2MOL    H67  549   3.051   5.147   6.810  0.6807  2.4998 -1.5452
    2MOL    H68  550   2.969   5.419   6.903  0.1350  0.0536  0.4057
    2MOL    H69  551   3.076   5.387   6.782 -1.0245  1.3346 -0.3751
    2MOL    H70  552   2.775   5.353   6.425  1.7735  0.0138  0.3852
    2MOL    H71  553   2.697   5.355   6.580  1.5040  1.1708 -1.1465
    2MOL    H72  554   2.748   5.112   6.408  2.2702  1.1227  0.2481
    2MOL    H73  555   2.774   5.092   6.582  0.0426 -0.6894  0.6417
    2MOL    O74  556   2.550   5.020   6.579  0.2612 -0.2338 -0.8538
    2MOL    C75  557   2.417   4.995   6.613 -0.5483  0.3098  0.5720
    2MOL    C76  558   2.430   4.987   6.768  0.4845  0.3337  0.6778
    2MOL    C77  559   2.294   4.968   6.840  0.3262  0.1953  0.5035
    2MOL    C78  560   2.305   4.933   6.986 -0.5402  0.1990 -0.0124
    2MOL    O79  561   2.354   4.801   7.001 -0.5354  0.6702  0.0904
    2MOL    C80  562   2.486   4.779   7.040  0.4295 -0.7977  0.1616
    2MOL    O81  563   2.573   4.871   7.045  0.6370 -0.1002  0.0263
    2MOL    C82  564   2.516   4.630   7.044 -0.2431  0.2229  0.0638
    2MOL    C83  565   2.452   4.540   6.931 -0.9769  0.2335 -1.1431
    2MOL    C84  566   2.457   4.604   6.795  0.1815  0.1548  0.6150
    2MOL    O85  567   2.357   4.650   6.741 -0.5688  0.7024  0.5121
    2MOL    H86  568   2.349   5.076   6.587 -0.2724 -0.1183 -1.6244
    2MOL    H87  569   2.377   4.902   6.572 -0.4398  0.7862 -0.6638
    2MOL    H88  570   2.474   5.079   6.808 -2.1581  2.4406 -1.1043
    2MOL    H89  571   2.499   4.903   6.779 -1.4444 -1.1655  1.4756
    2MOL    H90  572   2.233   4.893   6.790 -0.2498  0.9026  0.1376
    2MOL    H91  573   2.237   5.060   6.843 -0.0314 -0.0561  1.6102
    2MOL    H92  574   2.365   5.005   7.042 -0.7304 -1.0456  1.8143
    2MOL    H93  575   2.207   4.941   7.033 -1.0046 -1.0113 -0.7638
    2MOL    H94  576   2.471   4.607   7.141 -1.2290  0.5018 -0.3186
    2MOL    H95  577   2.621   4.603   7.051 -0.0974  0.2588 -1.6894
    2MOL    H96  578   2.518   4.454   6.929 -1.5150 -0.2963  2.1339
    2MOL    H97  579   2.356   4.497   6.958  0.4431 -2.4512 -0.1891
    2MOL    O98  580   2.582   4.611   6.744 -0.0364  0.0568 -0.0255
    2MOL    C99  581   2.594   4.672   6.612 -1.0340 -0.7560 -0.2966
    2MOL   C100  582   2.736   4.724   6.582 -0.5941  0.0905  0.3120
    2MOL   C101  583   2.803   4.781   6.713  0.4478 -0.4816 -0.1769
    2MOL   C102  584   2.943   4.840   6.684  0.2387 -0.2154  0.7131
    2MOL   O103  585   3.025   4.734   6.634  0.2227  0.4779  0.4525
    2MOL   C104  586   3.155   4.763   6.626  0.2411 -0.1863 -0.0283
    2MOL   O105  587   3.201   4.872   6.653 -0.0356 -0.2461  0.1338
    2MOL   C106  588   3.245   4.650   6.590 -0.1636 -0.1396  0.4874
    2MOL   C107  589   3.395   4.666   6.618  0.1392  0.2306  0.5115
    2MOL   C108  590   3.480   4.694   6.488  0.4594  0.2004 -0.2115
    2MOL   O109  591   3.432   4.707   6.377 -0.7186 -0.0602  0.1307
    2MOL   H110  592   2.557   4.611   6.530 -0.4275  1.2258 -2.0908
    2MOL   H111  593   2.528   4.759   6.610  0.3304  0.2583 -1.9645
    2MOL   H112  594   2.730   4.803   6.507  0.4161 -2.2899 -2.3453
    2MOL   H113  595   2.804   4.650   6.540 -0.4293 -0.0983  0.8974
    2MOL   H114  596   2.806   4.711   6.797 -0.1969 -0.9096 -0.5082
    2MOL   H115  597   2.734   4.858   6.749 -0.1166 -0.3143 -1.5990
    2MOL   H116  598   2.935   4.910   6.602  0.2743  1.0846  1.8019
    2MOL   H117  599   2.982   4.891   6.773 -1.3358  2.2616  0.0291
    2MOL   H118  600   3.223   4.635   6.484  0.2249  1.3964  0.1793
    2MOL   H119  601   3.194   4.564   6.634  1.0290 -0.9480  0.3199
    2MOL   H120  602   3.415   4.740   6.696  0.5329  1.0241 -0.3411
    2MOL   H121  603   3.443   4.578   6.663 -0.4512 -1.4706 -2.0975
    2MOL   O122  604   3.612   4.709   6.515 -0.1795  0.1750 -0.3260
    2MOL   C123  605   3.700   4.734   6.411 -0.2443  0.2244  0.2152
    2MOL   C124  606   3.845   4.713   6.448  0.2376  0.7511 -0.2621
    2MOL   C125  607   3.883   4.788   6.573  0.1749  0.2588 -0.2142
    2MOL   C126  608   3.857   4.938   6.566 -0.9002 -0.0512  0.1963
    2MOL   O127  609   3.938   5.000   6.461  0.1883 -0.0011  0.1086
    2MOL   C128  610   3.927   5.133   6.446 -0.1605  1.1445  0.0318
    2MOL   O129  611   3.860   5.207   6.515  0.0493  0.1425 -0.4382
    2MOL   C130  612   4.003   5.178   6.324 -0.7293  0.2566  0.6485
    2MOL   C131  613   3.946   5.122   6.191 -0.3885  0.5923 -0.0599
    2MOL   C132  614   3.863   5.212   6.103  0.8248 -0.1258 -0.3160
    2MOL   O133  615   3.877   5.334   6.100 -0.0833  0.2821  0.3416
    2MOL   H134  616   3.675   4.682   6.318  0.7551  0.1476 -0.0136
    2MOL   H135  617   3.688   4.842   6.396  0.2427  0.2834  0.2637
    2MOL   H136  618   3.899   4.750   6.361 -1.7343  0.6229 -1.5641
    2MOL   H137  619   3.853   4.604   6.447 -0.4947  0.6138  3.4694
    2MOL   H138  620   3.990   4.779   6.590  0.1802  0.8439  0.1164
    2MOL   H139  621   3.848   4.737   6.663  1.0958 -0.1641 -0.0962
    2MOL   H140  622   3.752   4.962   6.553 -0.6735  1.4242  0.9957
    2MOL   H141  623   3.904   4.974   6.658 -2.3856  0.4277  0.7739
    2MOL   H142  624   4.103   5.140   6.347 -1.1691 -0.7212  0.9621
    2MOL   H143  625   4.001   5.287   6.330  1.7581  0.2296  2.8891
    2MOL   H144  626   4.034   5.103   6.131  0.6868  0.3087  1.5597
    2MOL   H145  627   3.893   5.027   6.203  1.2046 -0.2119  0.7375
    2MOL   O146  628   3.765   5.147   6.026 -0.2065  0.0612 -0.4112
    2MOL   C147  629   3.677   5.215   5.946  0.1369  0.1228  0.3378
    2MOL   C148  630   3.655   5.166   5.800 -0.3419  0.3020 -0.3516
    2MOL   C149  631   3.760   5.166   5.696 -0.2702  0.3896 -0.3495
    2MOL   C150  632   3.879   5.070   5.714 -0.1198 -0.4901  0.4582
    2MOL   O151  633   3.967   5.085   5.594  0.0009  0.6039  0.5521
    2MOL   C152  634   4.063   4.990   5.575  0.2619 -0.3058  0.2976
    2MOL   O153  635   4.070   4.892   5.640 -0.0567  0.4556 -0.0393
    2MOL   C154  636   4.151   5.006   5.452  0.1052  0.4129 -0.4997
    2MOL   C155  637   4.202   5.144   5.439 -0.2500  0.2544  0.2551
    2MOL   C156  638   4.354   5.153   5.450  0.0434  0.5088  0.0481
    2MOL   O157  639   4.415   5.189   5.551  0.8018  0.1309 -0.5029
    2MOL   H158  640   3.578   5.205   5.992  0.4819 -2.5155  0.5779
    2MOL   H159  641   3.706   5.320   5.951  0.7551 -0.0055 -0.4644
    2MOL   H160  642   3.561   5.211   5.770 -2.0882 -0.4250  3.6808
    2MOL   H161  643   3.622   5.062   5.807 -0.4293  0.2038 -1.9306
    2MOL   H162  644   3.799   5.268   5.685 -0.1928  0.2394 -1.5873
    2MOL   H163  645   3.710   5.144   5.602 -1.1488 -0.1688  0.2415
    2MOL   H164  646   3.929   5.096   5.807 -1.0852 -0.3810  0.9567
    2MOL   H165  647   3.834   4.970   5.714 -1.2911  0.0097  2.6141
    2MOL   H166  648   4.091   4.980   5.365 -0.1630  2.6984 -1.0165
    2MOL   H167  649   4.234   4.936   5.463  0.1122  0.0505 -2.5886
    2MOL   H168  650   4.174   5.177   5.339 -0.3076 -0.0622  0.1696
    2MOL   H169  651   4.158   5.208   5.515 -2.1830  0.6772 -1.1782
    2MOL   O170  652   4.407   5.105   5.331  0.0159 -0.8773  0.0448
    2MOL   C171  653   4.548   5.103   5.305  0.0267 -0.2862 -0.5240
    2MOL   C172  654   4.573   5.032   5.175 -0.4044  0.1237  0.3215
    2MOL   C173  655   4.711   4.981   5.153 -0.1373  0.6162 -0.3468
    2MOL   C174  656   4.737   4.922   5.018  0.3240  0.5316 -0.2740
    2MOL   O175  657   4.655   4.802   5.004  0.0476  0.2013 -0.7613
    2MOL   C176  658   4.701   4.687   4.950 -0.4769 -0.2577 -0.2247
    2MOL   O177  659   4.819   4.656   4.918 -0.6268 -0.4886  0.0123
    2MOL   C178  660   4.591   4.589   4.932  0.0823 -0.0086 -0.4487
    2MOL   C179  661   4.641   4.451   4.882  0.4015 -0.9706 -0.1687
    2MOL   C180  662   4.670   4.446   4.730  0.0046 -0.5085  0.1213
    2MOL   O181  663   4.625   4.529   4.650 -0.5375  0.0418 -0.1509
    2MOL   H182  664   4.574   5.209   5.306  2.8446 -0.9202 -1.1000
    2MOL   H183  665   4.605   5.059   5.387  1.8369  2.3844 -0.2677
    2MOL   H184  666   4.548   5.107   5.100 -0.7508  0.9940  1.3025
    2MOL   H185  667   4.498   4.955   5.157  1.2364 -1.2721 -0.7581
    2MOL   H186  668   4.733   4.899   5.221  1.6517 -0.2669 -1.9558
    2MOL   H187  669   4.777   5.067   5.163 -2.8417  2.7062  0.0450
    2MOL   H188  670   4.700   4.985   4.937  0.8128  0.3321 -0.6523
    2MOL   H189  671   4.842   4.905   4.997  0.2298  1.8979 -1.9129
    2MOL   H190  672   4.521   4.634   4.862  0.1701 -0.3948 -0.7800
    2MOL   H191  673   4.533   4.580   5.024  1.9168  1.1434  0.8780
    2MOL   H192  674   4.724   4.398   4.928 -0.1739  1.0726  3.3389
    2MOL   H193  675   4.551   4.389   4.886 -1.8827  2.2513  0.4361
    2MOL   O194  676   4.754   4.342   4.691 -0.0179 -0.4054  1.1193
    2MOL   C195  677   4.812   4.333   4.564  0.1975 -0.2543  0.8988
    2MOL   C196  678   4.928   4.230   4.555 -0.4601  0.5562  0.7815
    2MOL   C197  679   4.956   4.205   4.404 -0.3188  0.6302  0.0715
    2MOL   C198  680   5.036   4.075   4.396  0.7163  0.2793  0.6089
    2MOL   O199  681   5.057   4.063   4.259  0.0293 -0.5366 -0.2428
    2MOL   C200  682   5.179   4.084   4.215  0.1460  0.3040 -0.0449
    2MOL   O201  683   5.278   4.127   4.277  0.4892 -0.3923  0.3510
    2MOL   C202  684   5.199   4.033   4.073  0.3002 -0.1338 -0.2418
    2MOL   C203  685   5.277   4.134   3.982 -0.4996  1.1712  0.4502
    2MOL   C204  686   5.218   4.115   3.845  0.4323 -0.6780  0.1411
    2MOL   O205  687   5.253   4.019   3.776 -0.1734 -0.0705  0.1068
    2MOL   H206  688   4.736   4.298   4.495  0.9506 -1.5096  0.6908
    2MOL   H207  689   4.862   4.425   4.534 -0.8244 -0.4131 -1.4298
    2MOL   H208  690   4.892   4.136   4.597 -1.0871  0.3070 -0.2852
    2MOL   H209  691   5.018   4.268   4.603 -0.5158 -0.6994  1.9172
    2MOL   H210  692   5.000   4.294   4.358  0.4068 -0.0611 -0.6030
    2MOL   H211  693   4.866   4.191   4.344  1.1362  0.4447 -2.1728
    2MOL   H212  694   5.130   4.076   4.450 -0.1615  0.3241  2.1454
    2MOL   H213  695   4.976   3.988   4.423 -2.3863  1.5525 -1.9372
    2MOL   H214  696   5.097   4.020   4.037  1.4107 -0.5271 -3.4455
    2MOL   H215  697   5.239   3.932   4.073  1.1221  0.1568 -2.6633
    2MOL   H216  698   5.252   4.230   4.028  0.9836  0.9871  1.6912
    2MOL   H217  699   5.385   4.127   3.973 -0.4697  1.7458  0.3546
    2MOL   O218  700   5.127   4.203   3.811 -0.0068 -0.0890  0.4639
    2MOL   C219  701   5.065   4.183   3.685 -0.8417  0.2636  0.3125
    2MOL   C220  702   4.928   4.252   3.674 -0.0040  1.0732 -0.0395
    2MOL   C221  703   4.855   4.205   3.545  0.4252 -0.9013  0.5782
    2MOL   C222  704   4.916   4.266   3.418  0.2227 -0.5615  0.0514
    2MOL   O223  705   4.853   4.215   3.305 -0.6241  0.0108  0.2282
    2MOL   C224  706   4.890   4.270   3.191  0.1509 -0.9828 -0.0374
    2MOL   O225  707   4.978   4.353   3.177  0.2420  0.2327 -0.5543
    2MOL   C226  708   4.802   4.232   3.076  0.2375 -0.3037 -0.8419
    2MOL   C227  709   4.697   4.340   3.044  0.3180  0.0364  0.8014
    2MOL   C228  710   4.573   4.328   3.126  0.5624 -0.6800 -0.3542
    2MOL   O229  711   4.468   4.284   3.086 -0.0557  0.0691 -0.0692
    2MOL   H230  712   5.135   4.210   3.606 -0.1661 -1.0062  0.4616
    2MOL   H231  713   5.059   4.075   3.668  0.7717  0.3230 -0.7078
    2MOL   H232  714   4.959   4.356   3.658  0.9373  0.5983 -1.4325
    2MOL   H233  715   4.853   4.236   3.752  0.6948  1.5318  0.7279
    2MOL   H234  716   4.747   4.220   3.539  0.5301 -0.0845  0.6099
    2MOL   H235  717   4.861   4.097   3.534 -1.0251 -0.8061 -1.6196
    2MOL   H236  718   4.908   4.375   3.422 -1.1926 -0.6377 -0.5440
    2MOL   H237  719   5.023   4.247   3.410  0.0698 -1.2890 -0.2443
    2MOL   H238  720   4.744   4.140   3.087 -1.1794  0.5350 -1.1898
    2MOL   H239  721   4.864   4.218   2.987 -0.1111 -0.8071 -1.0093
    2MOL   H240  722   4.734   4.442   3.050  0.0551  0.2378 -0.9513
    2MOL   H241  723   4.674   4.319   2.940  0.7416  0.8453  0.5416
    2MOL   O242  724   4.587   4.376   3.251  0.4064  0.5560  0.1368
    2MOL   C243  725   4.481   4.399   3.337  0.4592  0.3264 -0.3825
    2MOL   C244  726   4.456   4.275   3.422 -0.2408  0.1642 -0.4289
    2MOL   C245  727   4.406   4.303   3.561 -0.1618  0.0222 -0.2427
    2MOL   C246  728   4.378   4.180   3.657  0.8398 -0.0876 -0.7378
    2MOL   O247  729   4.383   4.230   3.795  0.0648  0.4598 -0.2032
    2MOL   C248  730   4.498   4.227   3.865  0.6619 -0.5032 -0.1939
    2MOL   O249  731   4.613   4.197   3.820 -0.4779 -0.1855 -0.0922
    2MOL   C250  732   4.477   4.280   4.002 -0.3203  0.1901 -0.1761
    2MOL   C251  733   4.594   4.249   4.101  0.5915 -0.2730  0.2088
    2MOL   C252  734   4.667   4.380   4.145 -0.0607  0.6769  0.3522
    2MOL   O253  735   4.617   4.463   4.216  0.5341  0.2596 -0.0415
    2MOL   H254  736   4.509   4.487   3.396 -0.6337  1.5674 -1.6679
    2MOL   H255  737   4.394   4.431   3.280 -0.2173 -0.7457  0.0339
    2MOL   H256  738   4.548   4.219   3.440 -0.2204  0.2044 -0.4056
    2MOL   H257  739   4.388   4.215   3.363 -0.0492 -0.6300  0.1500
    2MOL   H258  740   4.317   4.365   3.550  1.0838  2.5872  3.1948
    2MOL   H259  741   4.481   4.364   3.612  0.2217 -1.7357  1.3638
    2MOL   H260  742   4.284   4.138   3.621  0.0912  1.9415 -1.2242
    2MOL   H261  743   4.445   4.096   3.638 -0.3641 -1.7046  1.8944
    2MOL   H262  744   4.378   4.247   4.036 -0.7947  2.3624  0.6113
    2MOL   H263  745   4.474   4.388   3.995  0.8102  0.2403 -0.0128
    2MOL   H264  746   4.571   4.190   4.190 -0.8612  0.0409  0.0542
    2MOL   H265  747   4.662   4.179   4.053  0.6935 -1.1510  1.6027
    2MOL   O266  748   4.788   4.380   4.089  0.1627 -0.1396  0.3617
    2MOL   C267  749   4.871   4.494   4.101 -0.5836 -0.7756 -0.2969
    2MOL   C268  750   4.996   4.479   4.016 -0.1793  0.2373 -0.7963
    2MOL   C269  751   5.107   4.582   4.019 -0.4605 -0.8037 -0.7244
    2MOL   C270  752   5.223   4.562   3.925 -0.1830 -0.3489 -0.1326
    2MOL   O271  753   5.198   4.555   3.788 -0.2845  0.2431  0.2766
    2MOL   C272  754   5.273   4.508   3.702 -0.0207 -0.9818  0.2936
    2MOL   O273  755   5.381   4.461   3.730 -0.1414  0.2176  0.0565
    2MOL   C274  756   5.216   4.507   3.559  0.4436 -0.0957 -0.0714
    2MOL   C275  757   5.322   4.492   3.446  0.1964  0.1663 -0.9726
    2MOL   C276  758   5.420   4.614   3.435 -0.4281 -0.6060 -0.2555
    2MOL   O277  759   5.403   4.722   3.497  0.2442  0.2482  0.2630
    2MOL   H278  760   4.821   4.587   4.071 -0.5350 -1.0183 -1.1420
    2MOL   H279  761   4.911   4.507   4.202 -0.9500 -0.4521 -0.1922
    2MOL   H280  762   4.964   4.462   3.913 -0.6547 -2.8373 -0.1781
    2MOL   H281  763   5.051   4.388   4.040  0.4689  0.9393  0.4716
    2MOL   H282  764   5.143   4.591   4.121 -0.1652  1.1687 -0.9714
    2MOL   H283  765   5.054   4.677   4.007  0.5057 -0.3588 -1.5702
    2MOL   H284  766   5.300   4.639   3.925 -2.0534  1.5792  1.7958
    2MOL   H285  767   5.260   4.463   3.950 -0.8059 -0.6052 -0.2262
    2MOL   H286  768   5.168   4.601   3.531 -2.3973 -1.6651 -0.6801
    2MOL   H287  769   5.136   4.433   3.556 -0.5739  0.8901  1.5655
    2MOL   H288  770   5.378   4.403   3.475 -2.8671 -1.1863  1.0978
    2MOL   H289  771   5.269   4.467   3.354 -1.9477 -0.4256  0.3786
    2MOL   O290  772   5.513   4.587   3.345 -0.0453  0.1415 -0.2270
    2MOL   C291  773   5.631   4.672   3.351 -0.3560  0.0563  0.0638
    2MOL   C292  774   5.758   4.587   3.331 -0.0370 -0.4962  0.6359
    2MOL   C293  775   5.893   4.659   3.314  0.0443 -0.1466  0.7379
    2MOL   C294  776   6.000   4.544   3.317  0.1998 -0.1027  0.0744
    2MOL   O295  777   5.984   4.463   3.202 -0.0529  0.0752 -0.8049
    2MOL   C296  778   6.049   4.490   3.088  0.1012  0.3081  0.0119
    2MOL   O297  779   6.125   4.586   3.084  0.9102 -0.5084 -0.2411
    2MOL   C298  780   6.006   4.410   2.965  0.3373 -0.4803 -0.4856
    2MOL   C299  781   5.853   4.417   2.938 -0.3511 -0.2852 -0.4923
    2MOL   C300  782   5.825   4.435   2.791  0.1647 -0.0501  0.5136
    2MOL   O301  783   5.910   4.457   2.709 -0.1293 -0.9137  0.1135
    2MOL   H302  784   5.630   4.755   3.280 -2.3908  1.7867  2.0366
    2MOL   H303  785   5.639   4.709   3.453 -2.0305  0.2458  0.1291
    2MOL   H304  786   5.734   4.507   3.261 -0.5107  0.1074  0.1032
    2MOL   H305  787   5.767   4.528   3.423  0.0816  0.7335  1.4214
    2MOL   H306  788   5.910   4.726   3.399  1.6724  2.2914 -1.4504
    2MOL   H307  789   5.883   4.714   3.220 -0.7848 -3.5809 -1.2731
    2MOL   H308  790   6.099   4.591   3.314  0.2763 -0.3867 -4.0657
    2MOL   H309  791   6.011   4.478   3.403  0.6324  1.2223  1.0614
    2MOL   H310  792   6.034   4.307   2.988 -0.2657 -0.4217  0.5326
    2MOL   H311  793   6.078   4.433   2.887  2.1804 -0.1288  1.2841
    2MOL   H312  794   5.792   4.332   2.966 -1.2762  0.8414  1.0056
    2MOL   H313  795   5.809   4.499   2.995  1.0919 -0.3769  0.7869
    2MOL   O314  796   5.698   4.439   2.764 -0.4442  0.3110 -0.3595
    2MOL   C315  797   5.638   4.473   2.634  0.2021 -0.2067 -0.5186
    2MOL   C316  798   5.681   4.611   2.578 -0.0780 -0.1226 -0.7135
    2MOL   C317  799   5.610   4.657   2.451 -0.5612 -0.0720  1.0752
    2MOL   C318  800   5.676   4.783   2.395  0.7250  0.2161 -0.1346
    2MOL   O319  801   5.797   4.756   2.316 -0.0116 -0.8189  0.0560
    2MOL   C320  802   5.885   4.852   2.299  0.2621  0.2448 -1.1131
    2MOL   O321  803   5.876   4.969   2.337  0.2598  0.0531 -0.0777
    2MOL   C322  804   5.998   4.814   2.208  0.0741 -0.0938  0.2321
    2MOL   C323  805   6.124   4.909   2.209  0.7845  0.4920  0.3925
    2MOL   C324  806   6.257   4.830   2.216  0.4713 -0.3639 -0.9136
    2MOL   O325  807   6.354   4.879   2.268  0.0858  0.0425  0.3076
    2MOL   H326  808   5.650   4.386   2.570 -1.9585 -0.8726 -0.0729
    2MOL   H327  809   5.531   4.479   2.654  0.5131  0.9619  0.9082
    2MOL   H328  810   5.790   4.610   2.575 -0.0412  0.5259  0.2904
    2MOL   H329  811   5.667   4.683   2.658 -0.2354 -2.7222  1.6721
    2MOL   H330  812   5.508   4.683   2.478 -0.8910 -2.0225  1.8076
    2MOL   H331  813   5.614   4.577   2.377 -0.9803  1.6880 -0.8947
    2MOL   H332  814   5.604   4.821   2.323 -1.5243 -1.1779  1.3350
    2MOL   H333  815   5.694   4.863   2.467 -0.4188 -1.0013  1.5378
    2MOL   H334  816   5.956   4.795   2.109 -3.9620  0.9853  1.6358
    2MOL   H335  817   6.040   4.717   2.234  0.2544  0.5558  2.4797
    2MOL   H336  818   6.134   4.961   2.114  1.6211  0.2864  0.3676
    2MOL   H337  819   6.125   4.965   2.302 -0.2886  0.3886  0.4710
    2MOL   O338  820   6.257   4.706   2.159 -0.2432 -0.7073 -0.0899
    2MOL   C339  821   6.375   4.625   2.151  0.3033 -0.2781 -0.1607
    2MOL   C340  822   6.353   4.492   2.087  0.2871  0.0456 -0.5864
    2MOL   C341  823   6.266   4.502   1.961  0.0333 -0.1758 -0.1507
    2MOL   C342  824   6.213   4.377   1.894  0.8673 -0.0864  1.0624
    2MOL   O343  825   6.318   4.293   1.839 -0.5407 -0.4078 -0.5892
    2MOL   C344  826   6.348   4.184   1.914  0.0885  0.0952  0.0878
    2MOL   O345  827   6.307   4.165   2.027  0.2848 -0.4609 -0.3779
    2MOL   C346  828   6.420   4.078   1.833  0.0636 -0.2511  0.1211
    2MOL   C347  829   6.324   3.991   1.748 -0.1711 -0.0353 -0.2751
    2MOL   C348  830   6.362   3.962   1.606 -0.1059 -0.4174 -0.2027
    2MOL   O349  831   6.457   4.023   1.555 -0.3337  0.2092 -0.1756
    2MOL   H350  832   6.447   4.683   2.093  0.9118 -0.9643 -0.1029
    2MOL   H351  833   6.408   4.608   2.254  0.3544  1.2764  0.0898
    2MOL   H352  834   6.299   4.429   2.158 -1.3572  0.7646 -1.1915
    2MOL   H353  835   6.446   4.436   2.070  0.1758 -0.1463 -0.5607
    2MOL   H354  836   6.314   4.569   1.890  0.0557 -0.1283 -0.0915
    2MOL   H355  837   6.173   4.556   1.980 -0.5412 -0.3401 -2.3382
    2MOL   H356  838   6.149   4.321   1.961 -0.0484 -1.2662 -0.7628
    2MOL   H357  839   6.155   4.423   1.814 -0.8062 -0.8785  1.8026
    2MOL   H358  840   6.482   4.022   1.903 -1.4564 -1.2419  0.7026
    2MOL   H359  841   6.485   4.131   1.763 -0.0503  0.0135  0.2131
    2MOL   H360  842   6.328   3.903   1.811  0.5776 -0.1166 -0.4350
    2MOL   H361  843   6.220   4.025   1.757 -0.7909 -2.1667  0.9407
    2MOL   O362  844   6.297   3.857   1.564  0.3463  0.2406  0.9927
    2MOL   C363  845   6.308   3.816   1.427  0.4799 -0.4723 -0.2555
    2MOL   C364  846   6.413   3.708   1.404  0.2351 -0.0821  0.1272
    2MOL   C365  847   6.560   3.767   1.415  0.4683  0.7849  0.5339
    2MOL   C366  848   6.662   3.654   1.380  0.0499 -0.7138  0.2731
    2MOL   O367  849   6.637   3.625   1.245 -0.2074  0.1092 -0.2756
    2MOL   C368  850   6.709   3.528   1.181  0.4418  0.6098  0.2894
    2MOL   O369  851   6.787   3.453   1.241 -0.0553 -0.3348  0.1707
    2MOL   C370  852   6.683   3.526   1.022 -0.7461 -0.1962  0.2884
    2MOL   C371  853   6.734   3.397   0.958 -0.1687  0.2669 -0.5064
    2MOL   C372  854   6.663   3.273   0.997  0.3781  0.1905  0.0645
    2MOL   O373  855   6.542   3.276   1.015  0.2665  0.1688 -0.3598
    2MOL   H374  856   6.207   3.788   1.396 -0.0119 -1.8164  2.3656
    2MOL   H375  857   6.317   3.904   1.364 -0.7787  1.1833  1.7859
    2MOL   H376  858   6.401   3.649   1.313 -2.1360  1.7406 -0.8029
    2MOL   H377  859   6.409   3.635   1.485  0.3596  0.6437  0.8013
    2MOL   H378  860   6.588   3.790   1.518 -2.4951  1.4015  1.2505
    2MOL   H379  861   6.585   3.846   1.344  2.7673 -0.6391 -0.3016
    2MOL   H380  862   6.766   3.687   1.390 -0.0699  1.7790 -4.8914
    2MOL   H381  863   6.632   3.564   1.433 -0.8426 -2.1082 -2.4966
    2MOL   H382  864   6.726   3.606   0.963 -1.3679 -0.1919 -0.1649
    2MOL   H383  865   6.577   3.536   0.995 -0.2911 -0.6477 -1.7296
    2MOL   H384  866   6.724   3.409   0.850 -1.7766  0.3446 -0.3588
    2MOL   H385  867   6.839   3.385   0.983 -0.2427  1.2101  0.2887
    2MOL   O386  868   6.748   3.173   1.026 -0.1718 -0.4240 -0.0686
    2MOL   C387  869   6.709   3.053   1.096 -0.8759 -0.3886  0.0852
    2MOL   C388  870   6.790   3.053   1.229  0.5946  0.0940 -0.7191
    2MOL   C389  871   6.943   3.037   1.209 -0.5315 -0.3389  0.3624
    2MOL   C390  872   7.030   3.068   1.333  0.1295 -0.4127 -0.3921
    2MOL   O391  873   7.023   3.206   1.359 -0.1561  0.3690 -0.1426
    2MOL   C392  874   7.025   3.248   1.483 -0.0507 -0.7761 -0.4316
    2MOL   O393  875   7.005   3.182   1.588 -0.2727  0.5435 -0.4396
    2MOL   C394  876   7.035   3.393   1.502  0.3001  0.8094 -0.3053
    2MOL   C395  877   6.913   3.447   1.576 -0.3877 -0.3851  0.2994
    2MOL   C396  878   6.929   3.446   1.731 -0.3800  0.6960  0.5414
    2MOL   O397  879   6.844   3.386   1.798  0.3464  0.3666 -0.1090
    2MOL   H398  880   6.604   3.042   1.125 -0.6384  0.0845  1.1152
    2MOL   H399  881   6.734   2.967   1.033 -1.7187  1.9170 -3.5411
    2MOL   H400  882   6.761   2.972   1.295 -0.5069 -0.8637 -2.3470
    2MOL   H401  883   6.772   3.153   1.270 -3.7647 -1.0309  0.3161
    2MOL   H402  884   6.965   3.110   1.130 -0.2770 -0.7285  0.0727
    2MOL   H403  885   6.960   2.936   1.173  1.1763 -0.7856  2.2828
    2MOL   H404  886   6.999   3.010   1.421 -0.6494  0.5249 -0.0481
    2MOL   H405  887   7.130   3.040   1.299  0.6137 -0.5330  1.0617
    2MOL   H406  888   7.067   3.434   1.406 -0.7779  0.1538 -0.9571
    2MOL   H407  889   7.126   3.406   1.561 -0.1303 -1.7594  1.0151
    2MOL   H408  890   6.916   3.554   1.555  2.3647 -0.3080  0.8615
    2MOL   H409  891   6.814   3.410   1.550 -0.2967  0.0081 -0.6384
    2MOL   O410  892   7.032   3.514   1.774 -0.0867  0.3377 -0.2166
    2MOL   C411  893   7.069   3.522   1.911  0.2504 -0.2096  0.8247
    2MOL   C412  894   7.028   3.652   1.983 -0.2985 -0.9918  0.2446
    2MOL   C413  895   7.106   3.784   1.933  0.1321 -0.4135 -0.1901
    2MOL   C414  896   7.079   3.827   1.791 -0.2299  0.3630 -0.4319
    2MOL   O415  897   6.969   3.911   1.789 -0.2629  0.6963  0.3586
    2MOL   C416  898   6.853   3.864   1.746  0.4391 -0.3181 -0.4864
    2MOL   O417  899   6.829   3.744   1.719  0.4231  0.0661 -0.6835
    2MOL   C418  900   6.748   3.970   1.737  0.5261  0.3770  0.1559
    2MOL   C419  901   6.776   4.069   1.630 -0.1566 -0.3901  0.1675
    2MOL   C420  902   6.732   4.209   1.662 -0.0194  0.1125 -0.5263
    2MOL   O421  903   6.694   4.277   1.573  0.3282  0.0567  0.0839
    2MOL   H422  904   7.037   3.432   1.963  0.7528 -1.6427 -1.2834
    2MOL   H423  905   7.177   3.522   1.902  0.1383  2.9038 -1.4248
    2MOL   H424  906   7.039   3.640   2.091  0.9520  0.8255  0.3447
    2MOL   H425  907   6.925   3.682   1.961  0.6985  1.4766 -1.3207
    2MOL   H426  908   7.211   3.760   1.952 -0.6722 -4.7385 -0.7289
    2MOL   H427  909   7.067   3.852   2.009 -0.2841 -1.7716  0.8337
    2MOL   H428  910   7.173   3.876   1.767  0.4259 -0.8779 -0.3975
    2MOL   H429  911   7.083   3.739   1.728 -2.4999 -0.0659 -0.0429
    2MOL   H430  912   6.759   4.011   1.837 -0.8101 -1.8358  1.2663
    2MOL   H431  913   6.650   3.922   1.728 -0.0847  1.0909  2.4765
    2MOL   H432  914   6.877   4.087   1.593 -1.1491 -1.1876 -3.1148
    2MOL   H433  915   6.734   4.026   1.539  2.5074 -0.2601 -1.1762
    2MOL   O434  916   6.748   4.243   1.787  0.0619  0.4105 -0.2682
    2MOL   C435  917   6.734   4.375   1.829  0.5929  0.1884  0.6028
    2MOL   C436  918   6.680   4.369   1.970  0.7308  0.1093 -0.4186
    2MOL   C437  919   6.782   4.335   2.077 -0.0427  0.2824  0.2017
    2MOL   C438  920   6.737   4.380   2.220  0.0842  0.5603  0.2910
    2MOL   O439  921   6.826   4.328   2.318 -0.1689 -0.3427 -0.0083
    2MOL   C440  922   6.949   4.378   2.338 -0.7007  0.2853  0.2114
    2MOL   O441  923   6.996   4.484   2.297 -0.6971 -0.1903  0.1847
    2MOL   C442  924   7.034   4.288   2.433 -0.2857  0.4501  0.1439
    2MOL   C443  925   7.153   4.226   2.358  0.9014  0.1250  0.4423
    2MOL   C444  926   7.116   4.096   2.280  0.5255  0.5407  0.3086
    2MOL   O445  927   7.157   4.073   2.163  0.9269 -0.0750 -0.1406
    2MOL   H446  928   6.840   4.402   1.833  0.6600 -0.2449  1.8657
    2MOL   H447  929   6.661   4.435   1.775  0.1063  0.2039  1.2741
    2MOL   H448  930   6.596   4.301   1.986  0.3240  0.0137 -2.8505
    2MOL   H449  931   6.633   4.465   1.992  0.8520 -0.0034  0.3501
    2MOL   H450  932   6.884   4.368   2.054  0.2569 -1.8984 -1.7428
    2MOL   H451  933   6.788   4.227   2.070 -1.8237  0.2822 -1.9905
    2MOL   H452  934   6.718   4.487   2.230  0.1116  0.7591 -1.6279
    2MOL   H453  935   6.637   4.338   2.231  0.8400 -0.5945  3.2901
    2MOL   H454  936   6.965   4.212   2.467  1.2681 -1.2420 -0.3923
    2MOL   H455  937   7.073   4.339   2.521 -1.8854 -0.1225  1.1908
    2MOL   H456  938   7.201   4.297   2.291  0.1891 -0.2643 -0.4833
    2MOL   H457  939   7.228   4.197   2.431  0.6199 -0.9293  0.3319
    2MOL   O458  940   7.041   4.012   2.354  0.5952  0.2285  0.1652
    2MOL   C459  941   7.016   3.875   2.305  0.0712  0.6464 -0.3919
    2MOL   C460  942   6.873   3.867   2.235 -0.1939 -0.2431 -0.7296
    2MOL   C461  943   6.751   3.898   2.335 -0.6762 -0.3320 -0.0732
    2MOL   C462  944   6.615   3.922   2.268  0.8185 -0.5147  0.1554
    2MOL   O463  945   6.578   3.807   2.196  0.2684 -0.0296 -0.3946
    2MOL   C464  946   6.457   3.789   2.143  0.0643 -0.0713 -0.3899
    2MOL   O465  947   6.369   3.870   2.136 -0.2314  0.1559  0.4266
    2MOL   C466  948   6.436   3.646   2.102  0.3719  0.1886 -0.1970
    2MOL   C467  949   6.556   3.585   2.032  0.1500  0.0500  0.3790
    2MOL   C468  950   6.576   3.634   1.886  0.0479 -0.2300 -0.3050
    2MOL   O469  951   6.532   3.746   1.853  0.2912  0.4677 -0.7735
    2MOL   H470  952   7.098   3.851   2.238  0.3219 -1.5031  0.6390
    2MOL   H471  953   7.025   3.799   2.382  2.2882 -0.1075 -1.3633
    2MOL   H472  954   6.855   3.776   2.178 -1.8623  0.8968 -2.0650
    2MOL   H473  955   6.879   3.948   2.163  1.5145 -0.6557 -1.0805
    2MOL   H474  956   6.776   3.983   2.399 -1.1364 -0.3069  0.0782
    2MOL   H475  957   6.737   3.814   2.403 -1.3292  0.7889  1.2022
    2MOL   H476  958   6.542   3.957   2.340  0.0368 -1.0296 -0.3788
    2MOL   H477  959   6.618   4.001   2.192  0.4712 -0.9589 -0.3246
    2MOL   H478  960   6.353   3.637   2.032 -0.1867  1.9515  0.2019
    2MOL   H479  961   6.399   3.580   2.181  1.1526 -0.0521 -0.0265
    2MOL   H480  962   6.643   3.591   2.098 -0.5744  1.5976  1.2247
    2MOL   H481  963   6.543   3.477   2.030  1.6318 -0.1351 -0.2175
    2MOL   H482  964   6.638   3.575   1.819  2.8365  0.9461  1.1324
    3MOL     O1  965   4.684   0.486   2.013 -0.1447  0.5047  0.0579
    3MOL     C2  966   4.771   0.386   2.070 -0.8122  0.4258  0.2764
    3MOL     C3  967   4.729   0.254   2.012 -0.4437  0.2194  0.3860
    3MOL     C4  968   4.756   0.246   1.864 -0.1662  1.2701  0.2889
    3MOL     C5  969   4.627   0.256   1.787 -0.1682 -0.0329  0.2749
    3MOL     O6  970   4.652   0.216   1.651  0.0714  0.0859  0.0393
    3MOL     C7  971   4.595   0.108   1.593 -0.5019 -0.0087  0.1859
    3MOL     O8  972   4.523   0.029   1.650 -0.3621  0.0304 -0.2988
    3MOL     C9  973   4.654   0.096   1.450 -0.0066  0.6339 -0.3185
    3MOL    C10  974   4.652   0.224   1.370 -0.5726  0.2873  0.1767
    3MOL    C11  975   4.568   0.203   1.247 -0.2227  0.4109  0.3996
    3MOL    O12  976   4.621   0.175   1.140 -0.0279 -0.3687 -0.4789
    3MOL    H13  977   4.877   0.404   2.051 -1.3156 -1.0190 -4.3855
    3MOL    H14  978   4.759   0.374   2.178  2.2135 -0.2658  0.5741
    3MOL    H15  979   4.621   0.242   2.028 -0.6333  2.3513  0.8740
    3MOL    H16  980   4.787   0.176   2.061 -1.7385 -0.8154  0.3118
    3MOL    H17  981   4.822   0.160   1.856 -1.8764  0.0095 -0.5916
    3MOL    H18  982   4.818   0.331   1.837 -2.3588  2.3695 -1.4496
    3MOL    H19  983   4.544   0.198   1.828 -0.5645  1.1154  1.1033
    3MOL    H20  984   4.591   0.357   1.768  0.0658  0.1364  0.7299
    3MOL    H21  985   4.608   0.013   1.395  0.3833  0.6002 -0.5978
    3MOL    H22  986   4.760   0.070   1.457 -0.4543 -1.0552  0.6065
    3MOL    H23  987   4.609   0.305   1.429 -1.7111  0.3191 -0.6920
    3MOL    H24  988   4.753   0.249   1.339  0.7715 -1.7082  2.7552
    3MOL    H25  989   4.597   0.453   1.996 -0.0534 -1.4690  3.1937
    3MOL    O26  990   4.438   0.199   1.280  0.3187  0.1965  0.0284
    3MOL    C27  991   4.348   0.166   1.178 -0.1040  0.0554 -0.3287
    3MOL    C28  992   4.204   0.189   1.239 -0.5969 -0.1109 -0.8762
    3MOL    C29  993   4.186   0.168   1.391 -0.0326 -0.2007  0.0781
    3MOL    C30  994   4.218   0.034   1.450 -0.2618 -0.2855 -0.4323
    3MOL    O31  995   4.103   7.832   1.416  0.5413 -0.1546 -0.3743
    3MOL    C32  996   4.010   7.823   1.511 -0.3539  0.7969  0.4444
    3MOL    O33  997   4.002   7.872   1.623  0.2599 -0.4493 -0.1644
    3MOL    C34  998   3.893   7.743   1.455 -0.8031 -0.1233 -0.2270
    3MOL    C35  999   3.815   7.810   1.346 -0.3684 -0.2542  0.6489
    3MOL    C36 1000   3.673   7.750   1.345  0.4304  0.2449 -1.0276
    3MOL    O37 1001   3.657   7.629   1.340 -0.1486 -0.2504 -0.3450
    3MOL    H38 1002   4.345   0.229   1.089 -1.5534  2.4751  1.3386
    3MOL    H39 1003   4.365   0.062   1.151 -0.5887 -0.1616  0.1727
    3MOL    H40 1004   4.131   0.123   1.191 -2.0193  2.0973 -1.8135
    3MOL    H41 1005   4.167   0.290   1.224  1.5850  0.7151 -0.9377
    3MOL    H42 1006   4.081   0.191   1.409  0.7077  1.1380  2.9794
    3MOL    H43 1007   4.234   0.250   1.445 -0.8293 -0.3732  1.0678
    3MOL    H44 1008   4.302   7.862   1.398 -1.8760 -1.7227 -1.8110
    3MOL    H45 1009   4.234   0.025   1.557  0.1181 -1.1365 -0.5558
    3MOL    H46 1010   3.829   7.735   1.543  0.6194  1.7264  1.0125
    3MOL    H47 1011   3.917   7.643   1.419 -0.5366 -0.0707 -0.2011
    3MOL    H48 1012   3.792   0.040   1.363 -0.9397 -0.0079 -1.5283
    3MOL    H49 1013   3.861   7.801   1.248  0.4842  0.1462  1.0091
    3MOL    O50 1014   3.572   7.843   1.350  0.5786  1.0209 -0.1383
    3MOL    C51 1015   3.437   7.801   1.343 -0.5130  0.1850 -0.2422
    3MOL    C52 1016   3.341   0.047   1.356  0.0987 -0.1032 -0.2200
    3MOL    C53 1017   3.362   0.154   1.473 -0.1569 -0.5308 -0.8570
    3MOL    C54 1018   3.277   0.113   1.600  0.8072 -0.4562 -0.2456
    3MOL    O55 1019   3.320   7.869   1.658  0.5465  0.0983  0.4350
    3MOL    C56 1020   3.366   7.868   1.784  0.0360  0.3015 -0.3102
    3MOL    O57 1021   3.348   0.077   1.876 -0.0609 -0.4957 -0.1121
    3MOL    C58 1022   3.423   7.727   1.823  0.2750 -0.4031 -0.5520
    3MOL    C59 1023   3.519   7.686   1.711  0.9215  0.0567 -0.4749
    3MOL    C60 1024   3.551   7.536   1.712 -0.8061  0.3276 -0.6959
    3MOL    O61 1025   3.557   7.467   1.817 -0.0305  0.5988  0.8193
    3MOL    H62 1026   3.413   7.759   1.245  0.4770 -2.4129  0.5828
    3MOL    H63 1027   3.415   7.717   1.410 -0.8485 -0.2244 -0.8585
    3MOL    H64 1028   3.240   0.013   1.374 -0.0899 -0.6245 -2.0960
    3MOL    H65 1029   3.359   0.087   1.256 -0.8350  2.5635  0.6423
    3MOL    H66 1030   3.315   0.243   1.430 -1.2880 -0.8555 -0.3093
    3MOL    H67 1031   3.469   0.172   1.479 -0.1892 -0.7403  0.2992
    3MOL    H68 1032   3.266   0.196   1.669 -3.3339  0.3932 -1.7672
    3MOL    H69 1033   3.176   0.079   1.580  1.1957 -2.4268  0.9850
    3MOL    H70 1034   3.334   7.664   1.829  0.3559 -0.6057 -1.4146
    3MOL    H71 1035   3.480   7.730   1.916 -0.3094 -3.3277 -0.0564
    3MOL    H72 1036   3.468   7.700   1.616 -0.2108  0.8125  0.2279
    3MOL    H73 1037   3.612   7.743   1.703 -0.6828  2.9112  0.4950
    3MOL    O74 1038   3.582   7.496   1.591 -0.4149  0.4240  0.1783
    3MOL    C75 1039   3.610   7.352   1.578 -0.3080 -0.3841  0.2349
    3MOL    C76 1040   3.735   7.321   1.508  0.6953  0.1344  0.1324
    3MOL    C77 1041   3.869   7.359   1.580 -0.2284 -0.0679 -0.1176
    3MOL    C78 1042   3.869   7.313   1.727 -0.8927  0.3020 -0.6297
    3MOL    O79 1043   3.837   7.173   1.734 -0.2836  0.3079 -0.4785
    3MOL    C80 1044   3.774   7.118   1.831  0.2484  0.9636  0.3925
    3MOL    O81 1045   3.753   7.173   1.939 -0.0622 -0.4221 -0.5791
    3MOL    C82 1046   3.743   6.975   1.809  0.0463 -0.0654 -0.5350
    3MOL    C83 1047   3.665   6.945   1.679 -0.1855  0.7430  0.2597
    3MOL    C84 1048   3.770   6.900   1.578 -0.8851  0.8588 -0.3546
    3MOL    O85 1049   3.799   6.977   1.491 -0.4137  0.1911  0.0925
    3MOL    H86 1050   3.609   7.303   1.676 -0.9086  2.0128  1.4529
    3MOL    H87 1051   3.525   7.314   1.521 -0.3538  1.0342 -0.6535
    3MOL    H88 1052   3.733   7.377   1.415  0.2442  2.0065  1.2349
    3MOL    H89 1053   3.721   7.215   1.485 -0.6650  0.3711 -0.1596
    3MOL    H90 1054   3.882   7.466   1.597 -0.0078 -0.3391  1.5915
    3MOL    H91 1055   3.959   7.321   1.533 -0.9618 -0.5163 -1.1524
    3MOL    H92 1056   3.961   7.331   1.782 -0.6311  1.0023 -1.2957
    3MOL    H93 1057   3.787   7.366   1.776  0.8139  0.2539  2.3985
    3MOL    H94 1058   3.703   6.936   1.903  1.3465  0.3386  0.1989
    3MOL    H95 1059   3.844   6.934   1.802  0.0572 -0.1974  0.2530
    3MOL    H96 1060   3.598   6.862   1.697 -0.4675  0.4164 -2.1581
    3MOL    H97 1061   3.596   7.023   1.647  0.3358  0.8292 -0.6528
    3MOL    O98 1062   3.811   6.776   1.599 -0.9524  0.0545 -0.2682
    3MOL    C99 1063   3.885   6.716   1.495 -0.0436 -0.3212 -0.2982
    3MOL   C100 1064   3.954   6.595   1.548 -0.3561 -0.2550 -0.1753
    3MOL   C101 1065   3.857   6.491   1.608 -0.1947  0.5703  0.3766
    3MOL   C102 1066   3.733   6.458   1.525 -0.2871  0.2220  0.5835
    3MOL   O103 1067   3.785   6.432   1.395 -0.1898  0.6982  0.5900
    3MOL   C104 1068   3.774   6.305   1.347 -0.2559 -0.4824 -0.1309
    3MOL   O105 1069   3.737   6.208   1.415  1.1856  0.7430  0.1607
    3MOL   C106 1070   3.799   6.299   1.203  0.0157 -0.7216  0.1667
    3MOL   C107 1071   3.849   6.428   1.135  0.0083 -0.1736 -0.1628
    3MOL   C108 1072   3.873   6.412   0.985  0.4179  0.1405 -0.4047
    3MOL   O109 1073   3.804   6.476   0.907  0.1197 -0.3837 -0.1099
    3MOL   H110 1074   3.816   6.694   1.413  0.5082  0.2970 -0.9250
    3MOL   H111 1075   3.960   6.778   1.447 -0.8931  2.0219  1.2979
    3MOL   H112 1076   4.032   6.623   1.619  1.8102 -0.2012 -2.5240
    3MOL   H113 1077   4.022   6.550   1.476 -0.8972 -0.7537 -0.3738
    3MOL   H114 1078   3.817   6.530   1.702 -0.3485  1.1515  0.0732
    3MOL   H115 1079   3.918   6.405   1.632 -0.3837  0.3328 -0.0002
    3MOL   H116 1080   3.691   6.370   1.574 -1.6164  0.5308  0.0205
    3MOL   H117 1081   3.665   6.543   1.522  0.1098  0.5073 -0.4128
    3MOL   H118 1082   3.702   6.271   1.163 -0.2615  0.1774  0.2110
    3MOL   H119 1083   3.870   6.217   1.190 -0.8710 -1.6617  1.1081
    3MOL   H120 1084   3.787   6.516   1.152 -0.7072 -0.7037  0.0140
    3MOL   H121 1085   3.942   6.453   1.186 -0.9918 -0.9800  2.1305
    3MOL   O122 1086   3.956   6.311   0.951  0.4611 -0.3078  0.2268
    3MOL   C123 1087   3.969   6.261   0.816 -0.3397 -0.6006 -0.4626
    3MOL   C124 1088   3.841   6.177   0.777  0.2940 -0.6755 -0.3689
    3MOL   C125 1089   3.842   6.100   0.642  0.0563  0.0489 -0.6028
    3MOL   C126 1090   3.715   6.017   0.614 -0.0449  0.3434  0.4901
    3MOL   O127 1091   3.703   5.923   0.713  0.1404  0.6066 -0.1634
    3MOL   C128 1092   3.610   5.835   0.710  0.0669  0.6643 -0.3900
    3MOL   O129 1093   3.537   5.814   0.616  0.4146  0.6124  0.3047
    3MOL   C130 1094   3.612   5.743   0.832 -0.1982  0.3262 -0.2059
    3MOL   C131 1095   3.512   5.631   0.826  0.6945 -0.2095 -0.0924
    3MOL   C132 1096   3.549   5.515   0.909  0.1270  0.0378 -0.2227
    3MOL   O133 1097   3.659   5.471   0.890 -0.4641  0.1516  0.3199
    3MOL   H134 1098   3.982   6.343   0.745 -3.5168 -0.0509 -0.5193
    3MOL   H135 1099   4.053   6.191   0.813  0.4073  0.2690  0.2238
    3MOL   H136 1100   3.764   6.254   0.776  1.5160  0.5706 -2.9108
    3MOL   H137 1101   3.829   6.102   0.855  0.1401 -1.5060 -1.1866
    3MOL   H138 1102   3.929   6.036   0.651  0.1262  0.1248 -0.7401
    3MOL   H139 1103   3.856   6.165   0.556 -0.0991 -1.2095 -1.5873
    3MOL   H140 1104   3.624   6.076   0.626 -0.5032 -0.3672  0.5163
    3MOL   H141 1105   3.712   5.973   0.515  1.0487  0.9611  0.1740
    3MOL   H142 1106   3.592   5.811   0.915  1.6169  0.5071  0.1000
    3MOL   H143 1107   3.718   5.719   0.828 -0.1678  0.0160  2.0180
    3MOL   H144 1108   3.409   5.657   0.851  0.3716  0.3962 -1.9917
    3MOL   H145 1109   3.525   5.605   0.721  1.5732 -2.2218  0.4915
    3MOL   O146 1110   3.458   5.464   0.992 -0.4751  0.2131 -0.5855
    3MOL   C147 1111   3.488   5.351   1.072 -0.4727 -0.3648 -0.3910
    3MOL   C148 1112   3.488   5.216   1.002  0.5731  0.1045  0.1113
    3MOL   C149 1113   3.529   5.103   1.088  0.0017 -0.4670 -0.6204
    3MOL   C150 1114   3.538   4.961   1.030  0.2072  0.5366  0.2602
    3MOL   O151 1115   3.575   4.868   1.126 -0.4452  0.4467  1.1809
    3MOL   C152 1116   3.584   4.734   1.093 -0.5758  0.2029  0.1681
    3MOL   O153 1117   3.535   4.682   0.990 -0.3540  0.1800  0.1020
    3MOL   C154 1118   3.652   4.650   1.200  0.2240  0.2823  0.4052
    3MOL   C155 1119   3.786   4.589   1.149 -0.0627  0.2250  0.4451
    3MOL   C156 1120   3.898   4.675   1.214  0.0513  0.2099  0.1345
    3MOL   O157 1121   3.986   4.732   1.144  0.0652  0.4941  0.3136
    3MOL   H158 1122   3.586   5.356   1.118 -0.1124  0.3440 -1.2173
    3MOL   H159 1123   3.424   5.360   1.159 -0.8978 -0.2729 -0.7122
    3MOL   H160 1124   3.557   5.220   0.918 -0.8368  0.9246 -1.0482
    3MOL   H161 1125   3.385   5.195   0.972  1.0015 -1.6744 -0.1235
    3MOL   H162 1126   3.456   5.102   1.169  1.5699  1.9862  0.9067
    3MOL   H163 1127   3.625   5.134   1.130 -1.1091  2.3749 -0.0824
    3MOL   H164 1128   3.445   4.930   0.984  0.7022 -0.9739  0.2573
    3MOL   H165 1129   3.602   4.970   0.942 -2.7219 -2.1971 -2.2844
    3MOL   H166 1130   3.581   4.571   1.228  0.3126 -0.0734 -0.3438
    3MOL   H167 1131   3.673   4.715   1.284  1.1622 -0.6330  0.8880
    3MOL   H168 1132   3.809   4.489   1.187 -0.0889 -0.0798 -0.3451
    3MOL   H169 1133   3.788   4.593   1.041  0.2353  0.6139  0.4661
    3MOL   O170 1134   3.895   4.678   1.346  0.1340  0.0837 -0.1965
    3MOL   C171 1135   4.015   4.716   1.407 -0.6160  0.6490 -0.2248
    3MOL   C172 1136   4.031   4.864   1.396  0.0499 -0.3160 -0.6465
    3MOL   C173 1137   4.119   4.923   1.506  0.2614 -0.9787  0.1149
    3MOL   C174 1138   4.117   5.076   1.509 -0.3591 -0.4964  0.7102
    3MOL   O175 1139   4.214   5.119   1.600 -0.1984 -0.5541 -0.5668
    3MOL   C176 1140   4.242   5.249   1.604  0.0678 -0.5814 -0.5732
    3MOL   O177 1141   4.190   5.338   1.545 -0.3482  0.5963  0.1156
    3MOL   C178 1142   4.362   5.275   1.686 -0.2310 -1.4806  0.1635
    3MOL   C179 1143   4.335   5.278   1.839 -0.1697 -0.3057 -0.3357
    3MOL   C180 1144   4.316   5.423   1.892 -0.2907 -0.1252 -0.1871
    3MOL   O181 1145   4.206   5.474   1.887  0.4112  0.4260  0.6644
    3MOL   H182 1146   4.013   4.681   1.510 -3.1687 -1.0376 -0.8070
    3MOL   H183 1147   4.102   4.670   1.361  0.9734  2.4012  0.9530
    3MOL   H184 1148   3.935   4.916   1.403  1.2108  1.7381  0.5943
    3MOL   H185 1149   4.071   4.899   1.300  1.5090  0.1266  0.1118
    3MOL   H186 1150   4.219   4.881   1.499  0.4243 -0.4779 -0.5943
    3MOL   H187 1151   4.082   4.890   1.604 -0.6923 -0.3904 -0.0418
    3MOL   H188 1152   4.151   5.112   1.412 -1.1459  0.6189  0.8390
    3MOL   H189 1153   4.020   5.122   1.530  0.4232  0.8875  1.4024
    3MOL   H190 1154   4.409   5.368   1.655  0.8980 -1.6872  1.1989
    3MOL   H191 1155   4.434   5.203   1.648  1.7772  1.0389 -0.9217
    3MOL   H192 1156   4.243   5.223   1.858  0.3449 -0.1063  3.0755
    3MOL   H193 1157   4.409   5.225   1.900 -0.5277  0.7190  0.9961
    3MOL   O194 1158   4.423   5.483   1.935  0.5082 -0.1160  0.1167
    3MOL   C195 1159   4.419   5.620   1.981 -0.1022 -0.8409  0.7525
    3MOL   C196 1160   4.572   5.651   2.000  0.0675 -0.0589  0.3616
    3MOL   C197 1161   4.592   5.763   2.097  0.2497 -0.6815 -0.6798
    3MOL   C198 1162   4.736   5.821   2.089  0.8751  0.6779 -0.0804
    3MOL   O199 1163   4.837   5.717   2.095  0.4995 -0.4448 -0.0265
    3MOL   C200 1164   4.949   5.738   2.160 -0.1876  0.0276 -0.3847
    3MOL   O201 1165   4.984   5.844   2.215 -0.5289 -0.1752 -0.4617
    3MOL   C202 1166   5.037   5.616   2.163  0.5974  0.9293  0.0174
    3MOL   C203 1167   4.973   5.508   2.251  0.1609  0.0338  0.6352
    3MOL   C204 1168   4.949   5.379   2.186  0.1299 -0.1344  0.0728
    3MOL   O205 1169   4.873   5.356   2.087  0.2273 -0.3535 -0.1897
    3MOL   H206 1170   4.382   5.680   1.897 -1.6867 -1.9132  0.6674
    3MOL   H207 1171   4.351   5.628   2.066 -1.3948  0.1545 -0.3481
    3MOL   H208 1172   4.616   5.681   1.904  0.8796 -0.5487  0.5789
    3MOL   H209 1173   4.630   5.562   2.022  1.1145  1.0475  2.1693
    3MOL   H210 1174   4.578   5.741   2.203  1.2737  2.2462  0.1248
    3MOL   H211 1175   4.518   5.841   2.076  0.5171 -1.1240 -3.4559
    3MOL   H212 1176   4.756   5.877   1.997  2.4913 -1.6337 -1.2162
    3MOL   H213 1177   4.754   5.888   2.172  0.9261  1.1500 -0.4716
    3MOL   H214 1178   5.135   5.657   2.184  0.4102  2.4286 -1.9087
    3MOL   H215 1179   5.031   5.604   2.055 -1.9792 -1.4473  0.3456
    3MOL   H216 1180   5.026   5.515   2.346  0.3259 -0.6367  0.5956
    3MOL   H217 1181   4.873   5.546   2.273 -0.2982 -0.9831  0.3293
    3MOL   O218 1182   5.031   5.285   2.234 -0.4255 -0.8952  0.3754
    3MOL   C219 1183   5.024   5.156   2.178  0.4016 -0.8248  0.2491
    3MOL   C220 1184   4.935   5.079   2.264 -0.0995  0.5084  0.0421
    3MOL   C221 1185   4.923   4.933   2.220 -0.3022 -0.1241  0.9414
    3MOL   C222 1186   4.853   4.840   2.332  0.5131  0.0450  0.0073
    3MOL   O223 1187   4.863   4.711   2.276  0.1428 -0.1201 -0.3975
    3MOL   C224 1188   4.754   4.657   2.218 -0.2674  0.1049  0.3870
    3MOL   O225 1189   4.638   4.703   2.214 -0.4862  0.7282  0.1585
    3MOL   C226 1190   4.784   4.518   2.167 -0.1236  0.1280 -0.0887
    3MOL   C227 1191   4.699   4.476   2.042 -0.1163 -0.1501  0.6547
    3MOL   C228 1192   4.565   4.405   2.071 -0.1082  1.0813 -1.3836
    3MOL   O229 1193   4.458   4.461   2.088  0.3503  0.8872  0.0877
    3MOL   H230 1194   4.986   5.163   2.076 -1.8590 -0.9240  1.0547
    3MOL   H231 1195   5.123   5.112   2.162 -0.1185 -2.2028  0.7400
    3MOL   H232 1196   4.837   5.124   2.278  0.1865  0.5430  2.1949
    3MOL   H233 1197   4.969   5.091   2.367 -3.0738  0.7223  1.0248
    3MOL   H234 1198   5.025   4.893   2.212  0.8662  2.8224  0.4339
    3MOL   H235 1199   4.885   4.927   2.118  3.0185  1.6410 -0.5098
    3MOL   H236 1200   4.911   4.846   2.424  3.7135  0.9786 -2.0034
    3MOL   H237 1201   4.754   4.877   2.356  0.4767 -0.3371  0.4479
    3MOL   H238 1202   4.756   4.446   2.244  1.7069  0.2850  0.7468
    3MOL   H239 1203   4.888   4.491   2.151 -0.2284 -1.0812  1.1261
    3MOL   H240 1204   4.671   4.567   1.989 -0.8632 -0.0496  1.2220
    3MOL   H241 1205   4.772   4.426   1.978 -0.2622  1.2061 -0.6004
    3MOL   O242 1206   4.591   4.274   2.075  0.2505  0.9270  0.2526
    3MOL   C243 1207   4.493   4.174   2.087 -0.5404  0.4391  0.3695
    3MOL   C244 1208   4.400   4.159   1.958  0.7371 -0.0142  0.5096
    3MOL   C245 1209   4.285   4.061   1.984  0.0554 -0.4410  0.6750
    3MOL   C246 1210   4.180   4.090   2.096 -0.1675 -0.3260 -0.5299
    3MOL   O247 1211   4.231   4.090   2.228  0.1059 -0.5706  0.1099
    3MOL   C248 1212   4.154   4.118   2.332 -0.3012  0.3040  0.6611
    3MOL   O249 1213   4.029   4.138   2.329 -0.2579 -0.2656 -0.0007
    3MOL   C250 1214   4.233   4.131   2.459 -0.3731  0.5624  0.4737
    3MOL   C251 1215   4.141   4.146   2.576  0.9435  0.4234 -0.0967
    3MOL   C252 1216   4.204   4.103   2.713 -0.7302 -0.1818  0.5599
    3MOL   O253 1217   4.310   4.032   2.719 -0.3272 -0.4431 -0.1938
    3MOL   H254 1218   4.545   4.081   2.108 -0.2534  0.8746  1.6287
    3MOL   H255 1219   4.447   4.197   2.183 -0.4783 -0.5555  0.6382
    3MOL   H256 1220   4.457   4.148   1.866 -0.3586 -2.4778  0.1007
    3MOL   H257 1221   4.360   4.256   1.927  0.4818 -0.4179 -0.4387
    3MOL   H258 1222   4.337   3.968   2.006  0.4249 -1.2900 -3.4258
    3MOL   H259 1223   4.229   4.044   1.892  0.6343  0.1649  0.2059
    3MOL   H260 1224   4.119   4.180   2.081 -4.2455 -2.9067 -0.0457
    3MOL   H261 1225   4.114   4.004   2.097  0.3200 -0.7149  2.5004
    3MOL   H262 1226   4.307   4.211   2.466 -0.2275  0.4148  0.6130
    3MOL   H263 1227   4.293   4.042   2.472 -1.0081 -0.1326 -1.1907
    3MOL   H264 1228   4.113   4.251   2.583 -1.5609 -0.1850 -0.4938
    3MOL   H265 1229   4.055   4.081   2.562  0.1574  1.6197 -0.9292
    3MOL   O266 1230   4.147   4.157   2.816  0.3216 -0.4117  0.2129
    3MOL   C267 1231   4.172   4.107   2.947  0.2956 -0.3452  0.0011
    3MOL   C268 1232   4.104   4.183   3.059 -0.4335 -0.0810 -0.1003
    3MOL   C269 1233   4.160   4.138   3.194  0.2487 -0.1688  0.1893
    3MOL   C270 1234   4.093   4.187   3.313  0.1031 -0.1288 -0.2689
    3MOL   O271 1235   4.105   4.327   3.306 -0.1412 -0.0888 -0.3350
    3MOL   C272 1236   4.002   4.414   3.316 -0.0020 -0.7430 -0.1356
    3MOL   O273 1237   3.879   4.388   3.315  0.1497 -0.0622  0.2328
    3MOL   C274 1238   4.049   4.556   3.329 -0.0317  0.2069 -0.0039
    3MOL   C275 1239   4.157   4.593   3.223  0.3144  0.1642 -0.1473
    3MOL   C276 1240   4.253   4.690   3.282  0.4339 -0.3570 -0.3074
    3MOL   O277 1241   4.248   4.747   3.393  0.0520  0.1143  0.2414
    3MOL   H278 1242   4.134   4.005   2.944 -1.7690  0.4276 -1.3701
    3MOL   H279 1243   4.280   4.115   2.956  0.4200  1.3801 -2.4079
    3MOL   H280 1244   3.996   4.169   3.056 -0.6316  1.5271 -0.7263
    3MOL   H281 1245   4.125   4.290   3.050 -2.3393  0.2800 -0.5889
    3MOL   H282 1246   4.268   4.146   3.198  0.3979 -1.7711 -0.4327
    3MOL   H283 1247   4.142   4.031   3.194 -2.0534  0.1853  0.8459
    3MOL   H284 1248   3.986   4.167   3.309 -0.3884  2.3133 -0.0648
    3MOL   H285 1249   4.143   4.141   3.398 -2.1320 -1.0955  0.5802
    3MOL   H286 1250   4.092   4.568   3.429 -0.5757 -1.3459  0.4388
    3MOL   H287 1251   3.967   4.625   3.309 -0.0709  1.3852  3.7394
    3MOL   H288 1252   4.216   4.509   3.188 -0.9700 -1.0802  0.6054
    3MOL   H289 1253   4.100   4.635   3.140 -0.0583 -1.5308 -0.7700
    3MOL   O290 1254   4.343   4.707   3.196 -0.6008  0.3368 -0.1049
    3MOL   C291 1255   4.456   4.776   3.242 -0.3096  0.2613 -0.4838
    3MOL   C292 1256   4.571   4.782   3.137 -0.0631 -1.0394 -0.9231
    3MOL   C293 1257   4.708   4.725   3.182 -0.1739 -0.3504 -0.2368
    3MOL   C294 1258   4.815   4.759   3.079  0.5934 -0.2647 -0.5921
    3MOL   O295 1259   4.941   4.720   3.126  0.1840  0.2547 -0.2223
    3MOL   C296 1260   5.047   4.730   3.048  0.5603  0.0788  0.3760
    3MOL   O297 1261   5.044   4.774   2.935 -0.0213  0.4246  0.1017
    3MOL   C298 1262   5.179   4.697   3.113  0.0745 -0.8935 -0.1735
    3MOL   C299 1263   5.304   4.724   3.025 -0.0169 -0.3418 -0.7274
    3MOL   C300 1264   5.375   4.602   2.965 -0.0809 -0.7095 -0.3785
    3MOL   O301 1265   5.426   4.601   2.853  0.4216  0.4821  0.6418
    3MOL   H302 1266   4.444   4.874   3.287 -0.3267 -0.0052  0.0926
    3MOL   H303 1267   4.490   4.713   3.324 -1.3064  0.6261  0.2096
    3MOL   H304 1268   4.577   4.873   3.076  1.4704 -1.4195 -1.3570
    3MOL   H305 1269   4.546   4.717   3.053  0.8524 -0.6786 -1.4881
    3MOL   H306 1270   4.691   4.618   3.194 -2.0182  0.0365  0.8326
    3MOL   H307 1271   4.730   4.758   3.284 -0.1124  1.0861 -0.7052
    3MOL   H308 1272   4.792   4.704   2.989  0.8386  1.2560 -1.6040
    3MOL   H309 1273   4.818   4.865   3.054 -3.4371  0.0094 -0.2622
    3MOL   H310 1274   5.184   4.590   3.133 -0.6903 -1.4871 -2.9149
    3MOL   H311 1275   5.185   4.748   3.209  2.5024 -2.0501  0.3254
    3MOL   H312 1276   5.287   4.798   2.948 -2.2076 -1.9350 -1.8362
    3MOL   H313 1277   5.385   4.768   3.083  1.6917 -0.4810 -2.9226
    3MOL   O314 1278   5.386   4.493   3.055 -0.6232 -0.0595  0.5143
    3MOL   C315 1279   5.477   4.392   3.014 -0.4471  0.1326  0.4694
    3MOL   C316 1280   5.472   4.279   3.117  0.4334 -0.0610  0.4290
    3MOL   C317 1281   5.332   4.207   3.121 -0.1464  0.1300  0.1059
    3MOL   C318 1282   5.292   4.142   3.247 -0.1442 -0.0927 -0.0501
    3MOL   O319 1283   5.394   4.048   3.296 -0.1406  0.2835 -0.1171
    3MOL   C320 1284   5.374   3.999   3.419  0.7072 -0.3031  0.1192
    3MOL   O321 1285   5.263   4.011   3.484  0.7433  0.5984 -0.1650
    3MOL   C322 1286   5.491   3.929   3.475  0.1812  0.4936  0.1012
    3MOL   C323 1287   5.468   3.852   3.610 -0.9918  0.7370  0.1741
    3MOL   C324 1288   5.559   3.732   3.613 -0.1547 -0.9102 -0.2546
    3MOL   O325 1289   5.623   3.706   3.712  0.5342  0.2252 -0.6050
    3MOL   H326 1290   5.461   4.361   2.910 -4.1697 -1.3718  1.3838
    3MOL   H327 1291   5.572   4.444   3.018 -1.0505  1.1477  1.7770
    3MOL   H328 1292   5.501   4.317   3.215  2.2223  2.2176 -0.9273
    3MOL   H329 1293   5.557   4.212   3.102 -0.8283 -1.9304  1.4275
    3MOL   H330 1294   5.335   4.128   3.046 -0.3520  1.4194 -1.2729
    3MOL   H331 1295   5.257   4.277   3.084 -0.7668 -0.5708  0.0241
    3MOL   H332 1296   5.268   4.215   3.324  0.6435  0.7453 -0.5948
    3MOL   H333 1297   5.212   4.071   3.227  0.0440 -0.2722 -0.1707
    3MOL   H334 1298   5.564   4.005   3.502  0.6397  0.1610 -0.2063
    3MOL   H335 1299   5.532   3.879   3.388 -0.8943  0.4538 -0.3927
    3MOL   H336 1300   5.462   3.909   3.703  0.8338 -1.4394  1.6714
    3MOL   H337 1301   5.371   3.802   3.614 -0.8339  0.2168 -1.9432
    3MOL   O338 1302   5.559   3.657   3.501 -0.3086  0.3588  0.1962
    3MOL   C339 1303   5.642   3.535   3.499 -0.3352 -0.1490  0.3771
    3MOL   C340 1304   5.779   3.551   3.418 -0.4574 -0.6445  0.6151
    3MOL   C341 1305   5.769   3.626   3.290  0.1320  0.3216 -0.0582
    3MOL   C342 1306   5.909   3.664   3.226 -0.2328  1.2352 -0.5286
    3MOL   O343 1307   5.987   3.750   3.296  0.4302 -0.4568  0.1044
    3MOL   C344 1308   6.116   3.716   3.323  0.0299 -0.2735  0.5258
    3MOL   O345 1309   6.174   3.610   3.304  0.1158 -0.2258 -0.2994
    3MOL   C346 1310   6.192   3.834   3.394 -0.4626  0.0556  0.1008
    3MOL   C347 1311   6.305   3.901   3.308  0.2181 -0.1278  0.1250
    3MOL   C348 1312   6.299   4.054   3.302 -0.1404  0.1555 -0.8482
    3MOL   O349 1313   6.234   4.123   3.376  0.0855  0.4686 -0.0519
    3MOL   H350 1314   5.644   3.493   3.599 -2.4533 -0.7040  0.2179
    3MOL   H351 1315   5.584   3.464   3.439  0.1233 -0.7059  0.5964
    3MOL   H352 1316   5.817   3.451   3.397 -1.7338 -0.8402 -0.8221
    3MOL   H353 1317   5.854   3.596   3.484  0.2935  0.6787 -1.1070
    3MOL   H354 1318   5.730   3.724   3.314 -0.2588  0.1157  0.1573
    3MOL   H355 1319   5.698   3.569   3.229  0.8194 -0.1851 -0.4006
    3MOL   H356 1320   5.963   3.570   3.217 -1.0386  0.5153  1.8458
    3MOL   H357 1321   5.888   3.704   3.126 -1.0774 -0.0830 -0.8928
    3MOL   H358 1322   6.232   3.799   3.488  0.4602  1.0971  0.1061
    3MOL   H359 1323   6.111   3.907   3.403 -1.9100 -1.5938  0.6774
    3MOL   H360 1324   6.404   3.854   3.303  0.3052  0.1665 -1.4098
    3MOL   H361 1325   6.280   3.884   3.203 -1.0198 -4.2948  1.0199
    3MOL   O362 1326   6.399   4.105   3.225 -0.1625  0.2238 -0.1339
    3MOL   C363 1327   6.408   4.247   3.199  0.0504 -0.4506 -0.3970
    3MOL   C364 1328   6.498   4.279   3.084 -0.4110 -0.0577  0.0476
    3MOL   C365 1329   6.655   4.274   3.112 -0.1201 -0.6756  0.2235
    3MOL   C366 1330   6.733   4.309   2.986  1.0016 -0.2533 -0.1646
    3MOL   O367 1331   6.748   4.200   2.896  0.2707 -0.1266  0.1119
    3MOL   C368 1332   6.830   4.224   2.789  0.4475 -0.0034 -0.0025
    3MOL   O369 1333   6.872   4.338   2.751 -0.1641  0.1988 -0.3462
    3MOL   C370 1334   6.876   4.088   2.728  0.4266 -0.1938 -0.3862
    3MOL   C371 1335   7.026   4.068   2.720  0.0227  0.2458 -0.0775
    3MOL   C372 1336   7.073   3.975   2.842 -0.8054  0.4896  0.2971
    3MOL   O373 1337   7.073   3.849   2.836 -0.6118 -0.3223 -0.1889
    3MOL   H374 1338   6.310   4.293   3.185  0.2215 -0.6273 -2.3719
    3MOL   H375 1339   6.446   4.292   3.290  1.8273 -1.9860 -0.3398
    3MOL   H376 1340   6.474   4.382   3.058  2.9131  0.9353  0.6835
    3MOL   H377 1341   6.476   4.219   2.995 -0.5793  0.3752 -0.2011
    3MOL   H378 1342   6.687   4.174   3.140  1.0062 -1.1914 -2.6963
    3MOL   H379 1343   6.681   4.337   3.197  2.2487 -1.5823  0.2169
    3MOL   H380 1344   6.691   4.398   2.940  2.7776  0.0852 -1.1857
    3MOL   H381 1345   6.830   4.336   3.029  1.6538 -3.9515  0.8797
    3MOL   H382 1346   6.842   4.082   2.624 -0.2841 -0.0932 -0.1602
    3MOL   H383 1347   6.841   4.011   2.796 -0.7077  2.5321  2.2490
    3MOL   H384 1348   7.056   4.008   2.634  0.9807 -0.3274  0.6414
    3MOL   H385 1349   7.077   4.164   2.719  2.1643 -0.8519  0.7976
    3MOL   O386 1350   7.102   4.053   2.948  0.2643 -0.2530  0.3067
    3MOL   C387 1351   7.140   3.988   3.071  0.2121 -1.4907  0.0437
    3MOL   C388 1352   7.076   4.083   3.179  0.3162  0.0863  0.0177
    3MOL   C389 1353   7.096   4.040   3.318 -0.2292 -0.2504  0.6786
    3MOL   C390 1354   7.073   4.149   3.426 -0.5195 -0.2651 -0.1248
    3MOL   O391 1355   6.948   4.204   3.438 -0.1465  0.0936 -0.0473
    3MOL   C392 1356   6.932   4.330   3.398  0.0101  0.3157  0.3982
    3MOL   O393 1357   7.005   4.381   3.311  0.1521  0.1302  0.1495
    3MOL   C394 1358   6.817   4.397   3.467 -0.3609  0.2597  0.1238
    3MOL   C395 1359   6.826   4.553   3.477  0.2586 -0.4848  0.3930
    3MOL   C396 1360   6.793   4.610   3.617 -0.2120  0.5414  0.2727
    3MOL   O397 1361   6.745   4.723   3.634  0.1920  0.3000 -0.1353
    3MOL   H398 1362   7.098   3.887   3.068 -1.5496 -0.7687 -0.8164
    3MOL   H399 1363   7.248   3.983   3.078  0.4069  0.5912 -1.1515
    3MOL   H400 1364   6.967   4.083   3.165  0.2932 -2.2006  0.1311
    3MOL   H401 1365   7.126   4.180   3.174  1.0869 -0.3428 -0.6925
    3MOL   H402 1366   7.199   4.008   3.331 -0.5982 -2.0833 -0.7830
    3MOL   H403 1367   7.029   3.954   3.324  0.5343 -1.1155 -2.5641
    3MOL   H404 1368   7.098   4.108   3.524  1.0924  0.9386 -0.0167
    3MOL   H405 1369   7.141   4.233   3.415 -0.6476 -0.1151  0.2024
    3MOL   H406 1370   6.807   4.355   3.567 -0.8151  2.1508  0.9007
    3MOL   H407 1371   6.722   4.387   3.415  0.1971  1.2002 -1.0861
    3MOL   H408 1372   6.929   4.581   3.457  0.0025 -0.2133 -0.5635
    3MOL   H409 1373   6.761   4.603   3.405  0.9817  0.3187  0.2894
    3MOL   O410 1374   6.827   4.530   3.715 -0.3256 -0.4001 -1.3623
    3MOL   C411 1375   6.816   4.569   3.852 -0.1371  0.6481  0.6355
    3MOL   C412 1376   6.687   4.504   3.916 -0.5129 -0.7199 -0.3548
    3MOL   C413 1377   6.684   4.355   3.941  0.2354  0.5370 -0.8081
    3MOL   C414 1378   6.665   4.273   3.815 -0.7420  0.2971  0.4536
    3MOL   O415 1379   6.544   4.313   3.756 -0.0263 -0.3011 -0.0651
    3MOL   C416 1380   6.513   4.281   3.631  0.1926  0.5972  0.1521
    3MOL   O417 1381   6.588   4.216   3.559  0.0021 -0.4257 -0.0305
    3MOL   C418 1382   6.380   4.335   3.580  0.4770 -0.2953 -0.2410
    3MOL   C419 1383   6.371   4.489   3.604  0.4797  0.4415 -0.4961
    3MOL   C420 1384   6.412   4.572   3.484 -1.4228  0.0015 -0.3204
    3MOL   O421 1385   6.433   4.528   3.370 -0.9490  0.0140  0.2344
    3MOL   H422 1386   6.906   4.539   3.906 -0.1011 -1.1174 -0.3689
    3MOL   H423 1387   6.803   4.677   3.861  0.0293  0.9622 -2.4610
    3MOL   H424 1388   6.603   4.530   3.852 -0.7426 -0.9667 -0.1504
    3MOL   H425 1389   6.671   4.564   4.005 -0.1062 -0.3878 -0.4993
    3MOL   H426 1390   6.603   4.327   4.008  3.0711  0.9897  3.0061
    3MOL   H427 1391   6.780   4.326   3.985 -0.2943 -0.7272 -0.4734
    3MOL   H428 1392   6.750   4.286   3.749  0.6429 -2.0342  1.7071
    3MOL   H429 1393   6.661   4.170   3.850  0.7126 -0.2926 -1.0755
    3MOL   H430 1394   6.306   4.288   3.646  0.3089 -0.6207 -0.6603
    3MOL   H431 1395   6.356   4.311   3.477 -0.6834  0.1049 -0.0736
    3MOL   H432 1396   6.268   4.508   3.633  0.7889 -0.3061  1.1879
    3MOL   H433 1397   6.428   4.518   3.692  0.9973  0.0008 -0.6790
    3MOL   O434 1398   6.420   4.693   3.517 -0.8415 -0.6979  0.0310
    3MOL   C435 1399   6.467   4.790   3.421 -0.6070  0.3544 -1.1658
    3MOL   C436 1400   6.363   4.886   3.368  0.5442  0.2403  0.5855
    3MOL   C437 1401   6.290   4.832   3.242  0.2342 -0.2626 -0.3976
    3MOL   C438 1402   6.178   4.925   3.194  0.3142  0.6043  0.2865
    3MOL   O439 1403   6.076   4.952   3.284 -0.5415 -0.3420 -0.4254
    3MOL   C440 1404   6.073   5.067   3.349  0.0550 -0.4803  0.5213
    3MOL   O441 1405   6.147   5.164   3.326  0.6550  0.2375  0.4895
    3MOL   C442 1406   5.969   5.070   3.459  0.1625 -0.1383 -0.0401
    3MOL   C443 1407   6.039   5.057   3.597  0.6220 -0.7680  0.1246
    3MOL   C444 1408   6.055   4.916   3.638  0.4186  0.4211 -0.2400
    3MOL   O445 1409   5.958   4.838   3.630  0.1057  0.4572 -0.1817
    3MOL   H446 1410   6.544   4.849   3.468 -0.4741 -1.5314  1.0666
    3MOL   H447 1411   6.523   4.747   3.338 -1.4250 -0.5852 -1.2414
    3MOL   H448 1412   6.412   4.974   3.326 -0.5052 -0.5256 -2.3613
    3MOL   H449 1413   6.297   4.919   3.449  0.9397  1.4805  0.4060
    3MOL   H450 1414   6.251   4.734   3.270  1.9583 -1.1199 -0.9352
    3MOL   H451 1415   6.366   4.821   3.164  0.3131 -0.2285 -0.3268
    3MOL   H452 1416   6.219   5.020   3.160  2.1112  0.7020  2.6140
    3MOL   H453 1417   6.132   4.873   3.110 -1.6654 -0.9564  2.2705
    3MOL   H454 1418   5.893   4.993   3.445  0.5815 -0.5547 -0.0535
    3MOL   H455 1419   5.915   5.164   3.451 -0.1123 -0.2931 -0.0137
    3MOL   H456 1420   6.131   5.114   3.585 -0.4238  0.5368 -2.1108
    3MOL   H457 1421   5.988   5.113   3.675  0.2026 -0.6431 -0.2373
    3MOL   O458 1422   6.168   4.892   3.699 -0.2498 -0.5990  0.0403
    3MOL   C459 1423   6.189   4.780   3.782  0.2300  0.4749 -0.3905
    3MOL   C460 1424   6.310   4.785   3.879 -0.2764  0.2605 -0.4356
    3MOL   C461 1425   6.456   4.800   3.826 -0.5878 -0.3010 -0.0066
    3MOL   C462 1426   6.491   4.930   3.756  0.3771 -0.2372  0.0462
    3MOL   O463 1427   6.524   5.027   3.859 -0.1339 -0.4017  0.3371
    3MOL   C464 1428   6.439   5.139   3.870  0.1437  0.3214 -0.2457
    3MOL   O465 1429   6.344   5.164   3.796  1.4019 -0.0237 -0.2209
    3MOL   C466 1430   6.478   5.236   3.986  0.5564 -0.4838  0.4244
    3MOL   C467 1431   6.617   5.283   3.958 -0.2548  0.2198  0.2843
    3MOL   C468 1432   6.632   5.435   3.996 -0.7216 -0.1451  0.5775
    3MOL   O469 1433   6.533   5.517   4.005 -0.6559  0.1940 -0.4759
    3MOL   H470 1434   6.105   4.767   3.850  1.0282  0.2402  0.5608
    3MOL   H471 1435   6.191   4.693   3.716 -0.3781  0.4111 -0.3200
    3MOL   H472 1436   6.311   4.697   3.943  1.6684 -0.9253 -2.0094
    3MOL   H473 1437   6.297   4.874   3.940  3.2014  1.3414 -1.1721
    3MOL   H474 1438   6.472   4.713   3.763 -0.6517  0.4075 -1.0113
    3MOL   H475 1439   6.524   4.781   3.909 -3.0466 -1.9372  1.7163
    3MOL   H476 1440   6.577   4.921   3.690  0.5134 -1.3990  0.3629
    3MOL   H477 1441   6.407   4.961   3.693  0.5149  1.9692  0.9098
    3MOL   H478 1442   6.466   5.185   4.081 -2.5928 -0.7807 -0.0666
    3MOL   H479 1443   6.410   5.321   3.980  0.7443 -0.2826  1.0985
    3MOL   H480 1444   6.688   5.211   3.999 -1.0817 -0.2187  0.9558
    3MOL   H481 1445   6.626   5.287   3.849 -0.6047  1.9724  0.3136
    3MOL   H482 1446   6.727   5.480   4.025 -1.5022  2.5355 -0.8569
    4MOL     O1 1447   2.393   7.042   6.034  0.0529  0.1160  0.4281
    4MOL     C2 1448   2.513   6.964   6.040  0.3155  0.1681 -0.5594
    4MOL     C3 1449   2.633   7.066   6.018 -0.8833 -0.2052  0.6101
    4MOL     C4 1450   2.625   7.145   5.892  0.3207 -0.1328 -0.1053
    4MOL     C5 1451   2.747   7.238   5.872  0.3126 -0.5880 -0.4739
    4MOL     O6 1452   2.851   7.146   5.826 -0.2939 -0.2073  0.6790
    4MOL     C7 1453   2.982   7.175   5.844 -0.4595  0.0863  0.0205
    4MOL     O8 1454   3.026   7.283   5.876  0.6321 -0.2226  0.5130
    4MOL     C9 1455   3.067   7.054   5.833  0.1503  0.2341  0.8502
    4MOL    C10 1456   3.161   7.033   5.949 -0.3844 -0.0784  0.3209
    4MOL    C11 1457   3.307   7.080   5.934  0.3059 -0.4478  0.4382
    4MOL    O12 1458   3.379   7.076   6.028 -0.7794 -0.4143 -0.4257
    4MOL    H13 1459   2.520   6.896   6.125 -0.7713  0.4448 -0.2437
    4MOL    H14 1460   2.499   6.899   5.953 -0.1084 -0.8261  0.2352
    4MOL    H15 1461   2.732   7.022   6.025 -0.7503  0.1625  1.0100
    4MOL    H16 1462   2.630   7.132   6.105  3.0291  0.8383  0.0340
    4MOL    H17 1463   2.529   7.198   5.895  0.6106  0.3409  2.3968
    4MOL    H18 1464   2.611   7.083   5.804  0.4572 -2.6289  1.5717
    4MOL    H19 1465   2.728   7.311   5.794  2.8380 -0.0064 -0.6018
    4MOL    H20 1466   2.760   7.301   5.960  1.5870  0.3503 -1.3241
    4MOL    H21 1467   3.129   7.064   5.744  0.6890  0.8545  1.2912
    4MOL    H22 1468   3.003   6.969   5.809  0.6594  0.4663 -1.4247
    4MOL    H23 1469   3.131   7.101   6.029 -1.4915 -0.5620  0.3262
    4MOL    H24 1470   3.146   6.933   5.988  1.3818  0.0615  1.4112
    4MOL    H25 1471   2.355   7.059   5.949  0.2727  0.4873  0.4046
    4MOL    O26 1472   3.342   7.109   5.813  0.2239  0.3948 -0.0316
    4MOL    C27 1473   3.479   7.121   5.782  0.4655 -0.0595 -0.3549
    4MOL    C28 1474   3.490   7.114   5.624  0.0478  0.9144 -0.1580
    4MOL    C29 1475   3.605   7.029   5.579  0.0622 -0.2186 -0.5917
    4MOL    C30 1476   3.722   7.118   5.532 -0.9666  0.1187 -0.1352
    4MOL    O31 1477   3.681   7.193   5.417  0.5169 -0.5065  0.4467
    4MOL    C32 1478   3.776   7.255   5.351  0.5598 -0.1041  0.2662
    4MOL    O33 1479   3.890   7.278   5.400 -0.4094  0.4055  0.0109
    4MOL    C34 1480   3.739   7.317   5.215 -0.6110  0.4838 -0.3743
    4MOL    C35 1481   3.731   7.466   5.225 -0.3177 -1.4500  0.0585
    4MOL    C36 1482   3.690   7.529   5.088  0.9490  0.5350  0.3335
    4MOL    O37 1483   3.618   7.467   5.013  0.0356  0.0623 -0.3334
    4MOL    H38 1484   3.514   7.215   5.825 -2.1059  0.8365 -0.0976
    4MOL    H39 1485   3.529   7.043   5.840  4.2047  0.8478 -2.2144
    4MOL    H40 1486   3.493   7.212   5.577  1.4373  1.1003  0.3048
    4MOL    H41 1487   3.397   7.064   5.597  0.7087 -0.8826  0.7910
    4MOL    H42 1488   3.577   6.966   5.495 -1.8937 -0.3405  0.1246
    4MOL    H43 1489   3.638   6.967   5.663 -2.4265  0.1509  0.7009
    4MOL    H44 1490   3.739   7.193   5.608 -0.3651 -0.5274  0.3807
    4MOL    H45 1491   3.807   7.052   5.510 -0.1045  1.2657 -0.2737
    4MOL    H46 1492   3.652   7.272   5.167 -2.0493  1.5481  1.1584
    4MOL    H47 1493   3.818   7.299   5.143 -1.3257 -1.4720 -0.6980
    4MOL    H48 1494   3.660   7.495   5.302 -0.8608  1.9067 -1.6222
    4MOL    H49 1495   3.824   7.513   5.258 -1.9992  1.2086  1.1583
    4MOL    O50 1496   3.713   7.663   5.072 -0.4232  0.5550 -0.2353
    4MOL    C51 1497   3.684   7.735   4.955 -0.1188 -0.2570  0.3413
    4MOL    C52 1498   3.764   7.858   4.963  0.0077  0.1473  0.4326
    4MOL    C53 1499   3.731   0.087   4.852  0.0844  0.2741 -0.0080
    4MOL    C54 1500   3.772   0.043   4.716 -0.5217  0.2444  0.6472
    4MOL    O55 1501   3.901   7.860   4.718 -0.3918 -0.7213  0.2057
    4MOL    C56 1502   3.932   7.761   4.639  0.5215 -0.1408 -0.2731
    4MOL    O57 1503   3.863   7.705   4.553  0.1215 -0.4241  0.7254
    4MOL    C58 1504   4.075   7.717   4.651 -1.0349  0.1607 -0.4503
    4MOL    C59 1505   4.114   7.682   4.790  0.0801 -0.3540  0.4940
    4MOL    C60 1506   4.160   7.536   4.800 -0.4616 -0.1583 -1.4250
    4MOL    O61 1507   4.094   7.455   4.858  0.6846  0.2810 -0.2388
    4MOL    H62 1508   3.714   7.664   4.877  0.9453  0.4177  0.1244
    4MOL    H63 1509   3.578   7.759   4.945  0.1512  0.0451 -2.1406
    4MOL    H64 1510   3.870   7.837   4.982 -0.9651 -1.5778  4.4288
    4MOL    H65 1511   3.728   0.029   5.055 -3.1059  2.3674 -1.7918
    4MOL    H66 1512   3.801   0.169   4.870 -2.2642  2.4595 -0.6349
    4MOL    H67 1513   3.630   0.126   4.864 -0.1274 -0.1876 -0.2914
    4MOL    H68 1514   3.703   7.845   4.675 -0.5579  0.3434  0.5335
    4MOL    H69 1515   3.775   0.119   4.638  0.2486 -1.2344 -0.7959
    4MOL    H70 1516   4.132   7.795   4.599  0.3076 -0.1148  0.5806
    4MOL    H71 1517   4.099   7.637   4.580  0.6738  0.3149 -0.0837
    4MOL    H72 1518   4.198   7.745   4.819  2.1946 -1.9174 -2.0199
    4MOL    H73 1519   4.033   7.699   4.862  0.1687 -2.0889  1.0186
    4MOL    O74 1520   4.285   7.520   4.756 -0.2152  0.6262  0.0139
    4MOL    C75 1521   4.370   7.411   4.790 -0.0264  0.4816  0.2212
    4MOL    C76 1522   4.436   7.434   4.928  0.1625 -0.1620 -0.1970
    4MOL    C77 1523   4.545   7.549   4.918  0.0215 -0.1625 -0.1498
    4MOL    C78 1524   4.667   7.487   4.874  0.3079 -1.0270  0.1965
    4MOL    O79 1525   4.716   7.542   4.755  0.1759  0.5607  0.3750
    4MOL    C80 1526   4.837   7.502   4.713 -0.4364 -0.5022  0.6315
    4MOL    O81 1527   4.906   7.413   4.763 -0.3799 -0.0664  0.6375
    4MOL    C82 1528   4.886   7.575   4.591 -0.2305 -0.4443 -0.0262
    4MOL    C83 1529   4.805   7.546   4.471 -0.7095 -0.2740  0.1017
    4MOL    C84 1530   4.746   7.679   4.420 -0.0221  0.7707 -0.5558
    4MOL    O85 1531   4.806   7.731   4.325 -0.1100  0.3190  0.0393
    4MOL    H86 1532   4.304   7.325   4.800 -0.2929  0.6803  0.1446
    4MOL    H87 1533   4.450   7.389   4.719  1.9008  0.6814  2.2481
    4MOL    H88 1534   4.469   7.333   4.953 -4.3985 -1.4775  0.8046
    4MOL    H89 1535   4.376   7.455   5.017  0.2595 -2.9107  0.5499
    4MOL    H90 1536   4.550   7.591   5.018 -1.5966  0.2585 -0.2374
    4MOL    H91 1537   4.514   7.634   4.856 -2.9919 -0.7828  0.4596
    4MOL    H92 1538   4.742   7.492   4.953 -0.4601 -2.9752  1.0753
    4MOL    H93 1539   4.660   7.379   4.861 -0.2237 -1.0359  0.5286
    4MOL    H94 1540   4.991   7.556   4.568  0.4921  2.5377  0.5440
    4MOL    H95 1541   4.879   7.680   4.619  1.4525 -0.4483  0.4616
    4MOL    H96 1542   4.873   7.489   4.409 -1.0827 -2.4064  1.6032
    4MOL    H97 1543   4.717   7.484   4.490  1.1663 -2.4992  1.7811
    4MOL    O98 1544   4.637   7.716   4.472 -0.1778 -0.9467 -0.0838
    4MOL    C99 1545   4.569   7.833   4.423 -0.0515 -0.5094  0.4032
    4MOL   C100 1546   4.606   0.081   4.503 -0.5192 -0.0451  0.3585
    4MOL   C101 1547   4.742   0.143   4.463  0.2876  0.3194 -0.1504
    4MOL   C102 1548   4.748   0.291   4.505  0.2989 -0.3770 -0.2872
    4MOL   O103 1549   4.877   0.353   4.498  0.1102 -0.2156  0.0421
    4MOL   C104 1550   4.918   0.403   4.376  0.1421 -0.1771  0.3864
    4MOL   O105 1551   4.855   0.384   4.269 -0.3663  0.1517  0.1660
    4MOL   C106 1552   5.051   0.475   4.381 -0.5379 -0.3049 -0.1980
    4MOL   C107 1553   5.083   0.558   4.255  0.2567  0.2574  0.4444
    4MOL   C108 1554   5.064   0.707   4.281 -0.6228 -0.0039 -0.3954
    4MOL   O109 1555   4.973   0.751   4.351 -0.9848  0.2406  0.0273
    4MOL   H110 1556   4.578   7.853   4.316 -1.4189  0.4832  0.4627
    4MOL   H111 1557   4.463   7.812   4.437 -0.1376  0.3611  1.0740
    4MOL   H112 1558   4.608   0.064   4.610 -1.6531  1.4820  0.6306
    4MOL   H113 1559   4.526   0.151   4.480  0.4208  1.3115  1.1276
    4MOL   H114 1560   4.754   0.133   4.355  2.3552  0.1248  0.0738
    4MOL   H115 1561   4.818   0.078   4.506  1.6166  1.0346 -1.3468
    4MOL   H116 1562   4.670   0.357   4.468  1.2487  1.5229  0.9800
    4MOL   H117 1563   4.733   0.286   4.613 -1.4042 -0.4330 -0.5128
    4MOL   H118 1564   5.131   0.402   4.394  0.0367  0.4277  0.4122
    4MOL   H119 1565   5.059   0.541   4.467  1.4627 -0.2758 -0.3778
    4MOL   H120 1566   5.182   0.550   4.210 -0.3246  0.1468 -0.8401
    4MOL   H121 1567   5.014   0.530   4.175 -0.8990  2.4943  0.6318
    4MOL   O122 1568   5.152   0.786   4.216  0.3556 -0.2879  0.6240
    4MOL   C123 1569   5.153   0.921   4.250 -0.8070  0.2244  0.3236
    4MOL   C124 1570   5.275   0.984   4.186  0.4595  0.7171 -0.0836
    4MOL   C125 1571   5.255   0.987   4.030 -0.3508 -0.1743 -0.1019
    4MOL   C126 1572   5.385   1.020   3.954 -0.0495  0.6524  0.2792
    4MOL   O127 1573   5.455   1.137   4.004 -0.1701 -0.3430  0.3033
    4MOL   C128 1574   5.402   1.256   3.995  0.3199 -0.2545 -0.4485
    4MOL   O129 1575   5.308   1.283   3.921 -0.3788  0.2543  0.3037
    4MOL   C130 1576   5.482   1.367   4.067 -0.1426  0.4285  0.2119
    4MOL   C131 1577   5.411   1.502   4.090  0.1550 -0.1520  0.1519
    4MOL   C132 1578   5.294   1.492   4.187  0.3265  0.5539 -0.0174
    4MOL   O133 1579   5.260   1.386   4.235  0.4875 -0.0095 -0.2082
    4MOL   H134 1580   5.061   0.958   4.205  0.8223  0.7210 -2.7401
    4MOL   H135 1581   5.150   0.945   4.356  3.9726 -1.8956  1.0935
    4MOL   H136 1582   5.368   0.937   4.217 -0.1745  0.2050  1.0498
    4MOL   H137 1583   5.271   1.087   4.222  1.9205  0.2669  1.3745
    4MOL   H138 1584   5.181   1.063   4.003  0.4530  0.0690 -1.6968
    4MOL   H139 1585   5.234   0.886   3.995 -1.1585 -0.0218 -0.0688
    4MOL   H140 1586   5.442   0.929   3.937 -1.8922 -0.6177  0.7262
    4MOL   H141 1587   5.351   1.045   3.853 -0.9277 -0.1318  0.3743
    4MOL   H142 1588   5.579   1.381   4.019 -0.5597  0.0610 -0.7395
    4MOL   H143 1589   5.516   1.318   4.159 -1.3436 -1.8743 -0.5182
    4MOL   H144 1590   5.481   1.572   4.137 -0.7277  0.6530  0.2994
    4MOL   H145 1591   5.370   1.540   3.996 -2.6605  1.4315  1.9623
    4MOL   O146 1592   5.233   1.606   4.209  0.2963 -0.1735  0.5627
    4MOL   C147 1593   5.126   1.641   4.295  0.6019  1.0714  0.0878
    4MOL   C148 1594   5.064   1.764   4.234  1.0046  0.1387 -0.0854
    4MOL   C149 1595   4.940   1.804   4.313  0.6209 -0.0484 -0.4070
    4MOL   C150 1596   4.906   1.949   4.292 -0.1082 -0.5521 -0.4905
    4MOL   O151 1597   4.857   1.962   4.160 -0.0960 -0.0100 -0.2444
    4MOL   C152 1598   4.812   2.081   4.130 -0.1526 -0.5141  0.6761
    4MOL   O153 1599   4.809   2.181   4.210 -0.1945  0.5547 -0.2555
    4MOL   C154 1600   4.757   2.084   3.988  0.1916 -0.6150 -0.0520
    4MOL   C155 1601   4.867   2.088   3.884  0.0545 -0.1651  0.5274
    4MOL   C156 1602   4.814   2.117   3.744  0.3347 -0.1670 -0.7170
    4MOL   O157 1603   4.715   2.184   3.725  0.0068  0.2995  0.0824
    4MOL   H158 1604   5.061   1.555   4.314 -0.9362  2.3311  0.6433
    4MOL   H159 1605   5.175   1.668   4.388  3.0923 -0.0544 -0.8509
    4MOL   H160 1606   5.034   1.749   4.130 -0.6624 -1.6771  0.6231
    4MOL   H161 1607   5.137   1.845   4.238  0.4291  0.7735 -2.0221
    4MOL   H162 1608   4.977   1.785   4.413 -0.6851  0.3489  0.1584
    4MOL   H163 1609   4.859   1.734   4.291 -0.8192  1.6566 -0.6153
    4MOL   H164 1610   4.823   1.966   4.360  0.8301  2.0399  0.0453
    4MOL   H165 1611   4.986   2.019   4.315 -0.8460 -0.3969  1.7404
    4MOL   H166 1612   4.684   2.164   3.977  1.2940  0.0377 -3.0241
    4MOL   H167 1613   4.696   1.996   3.968  2.3415 -2.1560 -0.0669
    4MOL   H168 1614   4.931   2.175   3.902  0.1324 -0.1034 -0.0438
    4MOL   H169 1615   4.928   1.998   3.888  0.1437 -0.0616  1.6509
    4MOL   O170 1616   4.910   2.077   3.655  0.4600  0.0094  0.1532
    4MOL   C171 1617   4.924   2.139   3.524  0.4100  0.6192 -0.2256
    4MOL   C172 1618   5.075   2.164   3.506 -0.3448 -0.6448  0.0168
    4MOL   C173 1619   5.124   2.278   3.600  0.2130  0.3967  0.1842
    4MOL   C174 1620   5.065   2.417   3.572  0.0322  0.1049  0.0395
    4MOL   O175 1621   5.104   2.524   3.652 -0.2021 -0.3579 -0.1643
    4MOL   C176 1622   5.090   2.645   3.610  0.1779 -0.6727 -0.1529
    4MOL   O177 1623   5.006   2.688   3.527 -0.6073  1.0690 -0.3041
    4MOL   C178 1624   5.207   2.728   3.654  1.0344  0.1921 -0.3695
    4MOL   C179 1625   5.266   2.684   3.787 -0.2785  0.0200  0.1563
    4MOL   C180 1626   5.354   2.792   3.838  0.2192  0.3949  0.4802
    4MOL   O181 1627   5.476   2.787   3.820 -0.6861 -0.1592  0.2974
    4MOL   H182 1628   4.907   2.068   3.443  1.5721  0.4641 -0.3547
    4MOL   H183 1629   4.862   2.227   3.509 -2.3354 -1.2182  0.0965
    4MOL   H184 1630   5.103   2.189   3.403  0.8966 -3.9180 -0.4889
    4MOL   H185 1631   5.136   2.080   3.538  1.7744  0.9830  0.3585
    4MOL   H186 1632   5.232   2.289   3.591 -0.2454  3.2425 -2.9025
    4MOL   H187 1633   5.112   2.254   3.705 -0.3677  1.3220  0.3328
    4MOL   H188 1634   5.089   2.439   3.468  1.5286 -2.5043 -0.2263
    4MOL   H189 1635   4.956   2.413   3.576 -0.1276  0.0200 -3.0970
    4MOL   H190 1636   5.182   2.834   3.656 -2.0201 -0.4648  1.0843
    4MOL   H191 1637   5.274   2.719   3.569 -1.0079 -0.9027 -1.9243
    4MOL   H192 1638   5.190   2.643   3.855 -0.3377 -0.0539  0.0457
    4MOL   H193 1639   5.333   2.598   3.784  2.1637  1.8521  0.8588
    4MOL   O194 1640   5.288   2.896   3.892  0.0961 -0.2037 -0.2635
    4MOL   C195 1641   5.357   2.998   3.965 -0.1449 -0.1375 -0.4553
    4MOL   C196 1642   5.249   3.082   4.039  0.5891 -0.0091  0.2498
    4MOL   C197 1643   5.291   3.204   4.126  0.4410  0.2322  0.2831
    4MOL   C198 1644   5.310   3.333   4.037 -0.1442 -0.3811  0.2757
    4MOL   O199 1645   5.451   3.338   4.003  0.6995 -0.2806 -0.0309
    4MOL   C200 1646   5.495   3.431   3.911  0.0755  0.3929 -0.5292
    4MOL   O201 1647   5.434   3.515   3.847 -0.0718 -0.1735 -0.0478
    4MOL   C202 1648   5.648   3.422   3.901 -0.1827 -0.9187  0.2993
    4MOL   C203 1649   5.683   3.300   3.800 -0.7807  0.1891 -0.3834
    4MOL   C204 1650   5.723   3.164   3.853  0.3551  0.3056  0.2821
    4MOL   O205 1651   5.709   3.136   3.970 -0.0380  0.4518  0.0138
    4MOL   H206 1652   5.430   2.949   4.029 -2.3526 -0.7801  1.6266
    4MOL   H207 1653   5.411   3.065   3.897 -1.3498  1.7185  0.3674
    4MOL   H208 1654   5.175   3.015   4.082  3.0640 -2.4746  0.8266
    4MOL   H209 1655   5.184   3.120   3.960  1.3027  1.2123  0.2301
    4MOL   H210 1656   5.378   3.176   4.186  2.8076 -1.3332 -3.6474
    4MOL   H211 1657   5.215   3.229   4.199  0.8715  0.1501  0.7602
    4MOL   H212 1658   5.248   3.348   3.948  0.1266 -0.1269  0.1281
    4MOL   H213 1659   5.288   3.425   4.090 -2.7816 -0.0350 -1.2994
    4MOL   H214 1660   5.688   3.425   4.002  0.0408 -0.5393  0.1978
    4MOL   H215 1661   5.679   3.511   3.847 -1.0401 -0.5820  0.3620
    4MOL   H216 1662   5.594   3.278   3.741  1.3485  1.0497 -4.0690
    4MOL   H217 1663   5.753   3.328   3.721 -0.5980  0.6510 -0.0586
    4MOL   O218 1664   5.784   3.082   3.758 -0.3472 -0.4223 -0.2571
    4MOL   C219 1665   5.826   2.954   3.815  0.8003 -0.7455 -0.0738
    4MOL   C220 1666   5.952   2.907   3.746  0.0792  0.6297  0.4923
    4MOL   C221 1667   6.026   2.806   3.836 -0.4103 -0.7454 -0.2847
    4MOL   C222 1668   6.173   2.810   3.783 -0.4773  0.5203 -0.2557
    4MOL   O223 1669   6.238   2.935   3.806  0.3260 -0.2011 -0.5135
    4MOL   C224 1670   6.373   2.933   3.809 -0.0104 -0.5262  0.2587
    4MOL   O225 1671   6.452   2.841   3.781  0.1436  0.2273 -0.3100
    4MOL   C226 1672   6.434   3.072   3.836 -0.9169 -0.0134  0.4651
    4MOL   C227 1673   6.577   3.091   3.778  0.0009  0.1047 -0.0257
    4MOL   C228 1674   6.679   3.114   3.888 -0.0408  0.3277  0.8863
    4MOL   O229 1675   6.717   3.226   3.917 -0.9759 -0.2998 -0.5945
    4MOL   H230 1676   5.859   2.962   3.919 -0.2757 -1.5807  0.3423
    4MOL   H231 1677   5.752   2.881   3.784 -0.4053  0.2063  0.5236
    4MOL   H232 1678   6.023   2.986   3.722  2.9642 -2.0554 -0.0344
    4MOL   H233 1679   5.936   2.867   3.646  1.5908  0.3903  0.3378
    4MOL   H234 1680   5.973   2.710   3.834 -1.1087 -0.3594 -0.3573
    4MOL   H235 1681   6.034   2.828   3.942 -2.0232 -1.3872 -0.0082
    4MOL   H236 1682   6.226   2.722   3.821  0.1060  1.0418  0.1291
    4MOL   H237 1683   6.182   2.789   3.677 -3.0746  1.9731 -0.8062
    4MOL   H238 1684   6.434   3.064   3.945  2.5868 -3.6032  0.3228
    4MOL   H239 1685   6.358   3.144   3.805 -0.5666 -0.5849 -1.7646
    4MOL   H240 1686   6.609   3.010   3.713  0.2794 -1.1940  1.6835
    4MOL   H241 1687   6.577   3.185   3.723 -3.0158  0.0187 -0.2521
    4MOL   O242 1688   6.727   3.001   3.932 -0.4351  0.6076 -0.3664
    4MOL   C243 1689   6.817   3.006   4.045 -0.3470 -0.3084 -0.0502
    4MOL   C244 1690   6.833   2.863   4.089  0.7050  0.8276  0.5793
    4MOL   C245 1691   6.893   2.851   4.230 -0.1038  0.9858 -0.8849
    4MOL   C246 1692   6.910   2.709   4.288 -0.3479 -0.0857  0.1171
    4MOL   O247 1693   6.980   2.613   4.207  0.1924 -0.0988 -0.2699
    4MOL   C248 1694   6.989   2.491   4.254  0.0410  0.0633 -0.8047
    4MOL   O249 1695   6.926   2.451   4.352  0.0033  0.3411  0.0197
    4MOL   C250 1696   7.065   2.397   4.163  0.0633 -0.2218  0.5653
    4MOL   C251 1697   7.046   2.246   4.198 -0.4365  0.2593  0.1951
    4MOL   C252 1698   7.051   2.155   4.077 -0.4650 -0.4347  0.2588
    4MOL   O253 1699   7.148   2.147   4.002 -0.0918  0.2105  0.4039
    4MOL   H254 1700   6.906   3.064   4.023  0.0261 -1.1372 -0.7984
    4MOL   H255 1701   6.764   3.071   4.114 -1.0352 -1.0152  0.1013
    4MOL   H256 1702   6.889   2.816   4.009 -1.2510 -1.3366  0.4073
    4MOL   H257 1703   6.738   2.809   4.091  0.3106  1.2530 -3.1203
    4MOL   H258 1704   6.828   2.899   4.302 -1.4016 -1.4598 -0.3740
    4MOL   H259 1705   6.987   2.902   4.251  0.9674 -0.4714 -1.9573
    4MOL   H260 1706   6.951   2.717   4.388 -0.1453 -0.5880  0.0747
    4MOL   H261 1707   6.813   2.661   4.299  0.2347 -2.1575 -3.1562
    4MOL   H262 1708   7.170   2.419   4.182 -0.2576 -0.5259  2.9140
    4MOL   H263 1709   7.028   2.422   4.064  0.8612  0.2400  0.3837
    4MOL   H264 1710   7.123   2.222   4.271 -3.6716 -1.5585  3.1563
    4MOL   H265 1711   6.960   2.237   4.265 -0.6139 -2.4363 -0.3258
    4MOL   O266 1712   6.935   2.092   4.061 -0.0349 -0.1912  0.7711
    4MOL   C267 1713   6.918   2.001   3.951  0.6539  0.5957 -0.2656
    4MOL   C268 1714   6.958   1.854   3.994 -0.0870  0.5837  0.3751
    4MOL   C269 1715   6.865   1.802   4.102  0.3238 -0.1340 -0.4351
    4MOL   C270 1716   6.876   1.656   4.135 -0.3063  0.1993  0.7359
    4MOL   O271 1717   6.957   1.642   4.256  0.6705  0.7817  0.5613
    4MOL   C272 1718   7.085   1.609   4.237 -0.4488  0.3180 -0.6156
    4MOL   O273 1719   7.142   1.607   4.129  0.1531  0.8581 -0.1484
    4MOL   C274 1720   7.159   1.604   4.369  0.2485  0.3950 -0.7549
    4MOL   C275 1721   7.250   1.727   4.385 -0.1396 -0.7295  0.5074
    4MOL   C276 1722   7.172   1.857   4.431 -0.3455  0.4762 -0.2772
    4MOL   O277 1723   7.115   1.934   4.349  0.2247 -0.4546  0.3912
    4MOL   H278 1724   6.817   2.014   3.914  0.9650  1.0978 -0.9590
    4MOL   H279 1725   6.975   2.023   3.861 -0.8052 -0.7311 -1.5222
    4MOL   H280 1726   7.062   1.836   4.020  0.3133  0.8053 -1.0379
    4MOL   H281 1727   6.951   1.791   3.905  0.7161  1.1251 -0.0695
    4MOL   H282 1728   6.768   1.830   4.062  0.3917 -2.5601 -2.4759
    4MOL   H283 1729   6.887   1.857   4.193 -1.8975  0.5113 -0.2692
    4MOL   H284 1730   6.777   1.613   4.150  0.2892 -0.7987  1.9536
    4MOL   H285 1731   6.919   1.605   4.049 -0.0047 -0.9977  1.5720
    4MOL   H286 1732   7.215   1.510   4.375 -0.5738  0.0031  1.4597
    4MOL   H287 1733   7.094   1.596   4.456  0.4843 -1.1768 -0.7061
    4MOL   H288 1734   7.324   1.718   4.464 -1.7229 -3.4938  1.7780
    4MOL   H289 1735   7.302   1.736   4.290  0.5247  0.2059  0.9544
    4MOL   O290 1736   7.181   1.873   4.569 -0.9026 -0.3935  0.5609
    4MOL   C291 1737   7.093   1.963   4.635  0.2952  0.7427 -0.0100
    4MOL   C292 1738   7.149   2.104   4.662 -0.2200 -0.0479  0.2743
    4MOL   C293 1739   7.177   2.198   4.541  0.0715  0.3085  0.3256
    4MOL   C294 1740   7.206   2.345   4.571  0.5261 -0.3273  0.8316
    4MOL   O295 1741   7.244   2.423   4.453 -0.1624 -0.2178  0.4595
    4MOL   C296 1742   7.315   2.536   4.468 -0.0068 -0.7450  0.2039
    4MOL   O297 1743   7.372   2.573   4.567  0.2309  0.1452 -0.1517
    4MOL   C298 1744   7.330   2.617   4.332 -0.7304  0.4702  0.0383
    4MOL   C299 1745   7.421   2.540   4.236 -0.1883  0.7901 -0.2075
    4MOL   C300 1746   7.522   2.631   4.177 -0.1051 -0.0946  0.0604
    4MOL   O301 1747   7.528   2.665   4.058  0.5517 -0.2321  0.6216
    4MOL   H302 1748   7.006   1.962   4.569  0.2698 -3.3532 -0.0352
    4MOL   H303 1749   7.056   1.920   4.728 -0.3320  0.5192 -0.3585
    4MOL   H304 1750   7.236   2.088   4.725  1.0940 -1.1721 -1.7901
    4MOL   H305 1751   7.081   2.156   4.730  1.6564  0.6370  1.6373
    4MOL   H306 1752   7.087   2.200   4.479  0.3539 -2.8881 -0.2596
    4MOL   H307 1753   7.256   2.153   4.480 -0.1597  0.3265  0.0133
    4MOL   H308 1754   7.124   2.399   4.618 -1.8106 -2.9857 -0.0802
    4MOL   H309 1755   7.291   2.359   4.638  1.1997 -1.8167  0.3065
    4MOL   H310 1756   7.374   2.716   4.345 -1.9566  1.0041  0.1929
    4MOL   H311 1757   7.233   2.628   4.283 -0.7631 -0.1795 -0.0449
    4MOL   H312 1758   7.470   2.453   4.280  1.2472  1.4954 -0.3886
    4MOL   H313 1759   7.360   2.503   4.153  0.7098 -1.1203 -0.0375
    4MOL   O314 1760   7.607   2.674   4.267  0.1434  0.0088 -0.4110
    4MOL   C315 1761   7.701   2.772   4.245  0.1873 -0.7588  0.1028
    4MOL   C316 1762   7.642   2.907   4.277  0.1125  0.8375 -0.1237
    4MOL   C317 1763   7.628   2.925   4.433  0.0043 -0.4252 -0.0022
    4MOL   C318 1764   7.598   3.066   4.486  0.0211 -0.2307 -0.0151
    4MOL   O319 1765   7.719   3.145   4.486  0.3632 -0.0318  0.5473
    4MOL   C320 1766   7.705   3.279   4.474 -0.6886 -0.5072 -0.9222
    4MOL   O321 1767   7.599   3.336   4.441 -0.5741  0.2007  0.2502
    4MOL   C322 1768   7.834   3.346   4.517  0.0278  0.2102  0.3952
    4MOL   C323 1769   0.081   3.315   4.423 -0.2365  0.2572 -0.6960
    4MOL   C324 1770   0.090   3.433   4.328  0.6899  0.3890  0.2721
    4MOL   O325 1771   0.154   3.535   4.354 -0.0571 -0.6598 -0.4308
    4MOL   H326 1772   7.789   2.755   4.307  0.3122  0.1431  0.1740
    4MOL   H327 1773   7.740   2.765   4.143  0.8729  0.2148  0.2916
    4MOL   H328 1774   7.547   2.919   4.225  0.3689  1.9087 -0.3576
    4MOL   H329 1775   7.712   2.984   4.244 -1.9365  2.4984 -0.7077
    4MOL   H330 1776   7.710   2.880   4.489 -0.1737  0.4424  0.9808
    4MOL   H331 1777   7.543   2.863   4.463  0.3274 -0.4580  0.8454
    4MOL   H332 1778   7.529   3.107   4.413  0.8195  0.0887 -0.5999
    4MOL   H333 1779   7.556   3.064   4.586 -0.3098 -1.9911 -0.1704
    4MOL   H334 1780   7.854   3.307   4.617  1.0548  2.2022  0.9854
    4MOL   H335 1781   7.818   3.451   4.538  4.3074  1.0121  0.0890
    4MOL   H336 1782   0.176   3.316   4.478 -0.9162  2.1610  0.5080
    4MOL   H337 1783   0.064   3.218   4.377  0.6148 -0.3463  0.2218
    4MOL   O338 1784   0.026   3.412   4.210  0.6766  0.7053  0.1817
    4MOL   C339 1785   0.020   3.513   4.107 -0.4678  0.1137 -0.6602
    4MOL   C340 1786   7.815   3.637   4.144  0.7106  0.5162  0.3614
    4MOL   C341 1787   7.769   3.729   4.038  0.4275 -0.0448 -0.0813
    4MOL   C342 1788   7.681   3.845   4.091 -0.2353  0.1713 -0.4312
    4MOL   O343 1789   7.647   3.931   3.984  0.4417  0.5284 -0.2539
    4MOL   C344 1790   7.560   3.891   3.900 -0.0736  0.1157 -0.0519
    4MOL   O345 1791   7.490   3.787   3.900 -0.3473 -0.1150 -0.2064
    4MOL   C346 1792   7.544   3.985   3.781  0.2202  0.3720 -0.1788
    4MOL   C347 1793   7.566   3.918   3.650 -0.3678  0.4777  0.4094
    4MOL   C348 1794   7.720   3.906   3.626  0.2654 -0.2387 -0.1223
    4MOL   O349 1795   7.792   3.825   3.687  0.6990  0.7598 -0.3777
    4MOL   H350 1796   0.122   3.552   4.099 -1.1404  1.9804 -0.2321
    4MOL   H351 1797   7.855   3.464   4.018 -0.9106 -1.5898  0.4463
    4MOL   H352 1798   7.870   3.698   4.216  1.7009 -0.3341  0.3238
    4MOL   H353 1799   7.724   3.596   4.188  1.3223 -0.5708  0.6019
    4MOL   H354 1800   7.709   3.670   3.969 -1.4517  0.6386  0.9198
    4MOL   H355 1801   7.862   3.761   3.991  2.4577 -1.5487  2.8074
    4MOL   H356 1802   7.592   3.807   4.141  0.4486 -1.7601 -0.6324
    4MOL   H357 1803   7.736   3.906   4.163  0.2216 -2.5070  1.5771
    4MOL   H358 1804   7.623   4.061   3.783 -0.0994  0.6954  0.2161
    4MOL   H359 1805   7.446   4.031   3.794  0.2195 -0.1668  1.8492
    4MOL   H360 1806   7.532   3.814   3.650  1.0758 -0.0232 -1.9728
    4MOL   H361 1807   7.531   3.973   3.563  0.4715 -1.0989 -0.9460
    4MOL   O362 1808   7.755   3.994   3.534 -0.3747  0.1922 -0.6746
    4MOL   C363 1809   0.015   3.994   3.488  0.1113  0.1611 -0.2797
    4MOL   C364 1810   0.015   4.088   3.368  0.6105  0.3173  0.6208
    4MOL   C365 1811   0.162   4.110   3.321  0.7855 -0.3599  0.6816
    4MOL   C366 1812   0.240   3.997   3.272 -0.4613 -0.2083 -0.3697
    4MOL   O367 1813   0.354   4.048   3.219  0.5133 -0.0675  0.8132
    4MOL   C368 1814   0.421   3.986   3.118 -0.5227  0.8318 -0.0485
    4MOL   O369 1815   0.367   3.906   3.042  0.1095  0.2112 -0.0955
    4MOL   C370 1816   0.560   4.049   3.105 -0.5155 -0.2449  0.6141
    4MOL   C371 1817   0.578   4.150   2.990  0.6672 -0.0212  0.5006
    4MOL   C372 1818   0.727   4.163   2.948  0.1913  0.0639  0.0527
    4MOL   O373 1819   0.764   4.120   2.841 -0.8773 -0.6499  0.5624
    4MOL   H374 1820   0.091   4.002   3.566  0.0396 -1.4273 -0.0247
    4MOL   H375 1821   0.046   3.896   3.450 -2.1227 -0.3933 -0.7201
    4MOL   H376 1822   7.849   4.182   3.407  0.7130  0.6832 -0.1553
    4MOL   H377 1823   7.831   4.057   3.282  0.2763  1.0673  0.5744
    4MOL   H378 1824   0.212   4.164   3.402 -0.0499 -0.8620  1.5435
    4MOL   H379 1825   0.129   4.159   3.229 -0.3104 -2.0554  0.1451
    4MOL   H380 1826   0.264   3.921   3.347  2.6871  1.4247  0.3514
    4MOL   H381 1827   0.187   3.949   3.190  2.8144 -1.4490 -1.8498
    4MOL   H382 1828   0.625   3.967   3.075  0.1669  1.6219 -3.3549
    4MOL   H383 1829   0.607   4.100   3.189 -0.8610  0.1804  0.5531
    4MOL   H384 1830   0.525   4.107   2.904  1.4603  2.1679 -1.1162
    4MOL   H385 1831   0.531   4.242   3.023 -2.2652 -1.5260  0.7383
    4MOL   O386 1832   0.805   4.214   3.042 -0.4160  0.1339  0.5793
    4MOL   C387 1833   0.947   4.215   3.024 -0.0418 -0.4133 -0.8560
    4MOL   C388 1834   0.980   4.362   3.000 -0.2009 -0.1536 -0.0218
    4MOL   C389 1835   0.999   4.402   2.851  1.1886 -0.3887  0.5373
    4MOL   C390 1836   1.083   4.532   2.838 -0.0233  0.6026 -0.2072
    4MOL   O391 1837   1.024   4.627   2.927 -0.3832 -0.1357  0.5338
    4MOL   C392 1838   1.085   4.736   2.951  0.6810 -0.2166  0.8913
    4MOL   O393 1839   1.180   4.786   2.887  0.4305 -0.5768 -0.2331
    4MOL   C394 1840   1.035   4.799   3.078  0.3273  0.3727 -0.0641
    4MOL   C395 1841   1.105   4.736   3.204 -0.2130  0.2798  0.3244
    4MOL   C396 1842   1.040   4.778   3.331 -0.5979 -0.2690  0.7220
    4MOL   O397 1843   0.918   4.773   3.342  0.2613 -0.2096 -0.0251
    4MOL   H398 1844   0.994   4.202   3.121  1.9355 -1.3886 -1.9128
    4MOL   H399 1845   0.987   4.145   2.951 -0.3963 -1.2822 -0.2206
    4MOL   H400 1846   1.074   4.386   3.049 -0.0446  0.4353 -0.6046
    4MOL   H401 1847   0.905   4.431   3.038 -1.1649 -1.0463 -0.2526
    4MOL   H402 1848   0.902   4.418   2.804  0.7058 -1.7213  1.0570
    4MOL   H403 1849   1.033   4.323   2.785  0.8584 -0.6780  0.7112
    4MOL   H404 1850   1.183   4.502   2.869  0.2707 -0.4220 -2.1178
    4MOL   H405 1851   1.099   4.574   2.739 -0.7690  0.4874 -0.3771
    4MOL   H406 1852   0.928   4.800   3.096  0.2612 -1.9146 -0.2390
    4MOL   H407 1853   1.067   4.904   3.072  1.0929  0.3655  2.9982
    4MOL   H408 1854   1.090   4.628   3.204  0.1011  0.2285 -1.2820
    4MOL   H409 1855   1.210   4.760   3.195 -0.5113  1.3393 -0.4448
    4MOL   O410 1856   1.121   4.807   3.424 -0.0581 -0.5056 -0.2357
    4MOL   C411 1857   1.066   4.841   3.554 -0.1378  0.3400  0.0251
    4MOL   C412 1858   1.184   4.905   3.636 -0.2385  0.0406  0.2748
    4MOL   C413 1859   1.247   5.038   3.575  0.2915 -0.6226 -0.2141
    4MOL   C414 1860   1.383   5.063   3.646 -0.2421 -0.3417  0.0984
    4MOL   O415 1861   1.360   5.094   3.786  0.2395 -0.0412 -0.3396
    4MOL   C416 1862   1.328   5.226   3.817  0.1106  0.9620 -0.0942
    4MOL   O417 1863   1.309   5.317   3.732 -0.0040  0.1341  0.5446
    4MOL   C418 1864   1.305   5.246   3.963  0.5151 -0.7896 -0.6430
    4MOL   C419 1865   1.175   5.168   4.003  0.2654  0.4017 -0.0128
    4MOL   C420 1866   1.048   5.250   3.994  1.3435  0.2050 -0.5322
    4MOL   O421 1867   0.950   5.211   3.935  0.1632 -0.1112  0.4936
    4MOL   H422 1868   0.979   4.907   3.551 -1.2224 -1.1432 -1.9761
    4MOL   H423 1869   1.033   4.752   3.608 -0.9898 -0.7367 -2.2013
    4MOL   H424 1870   1.265   4.833   3.626 -1.3641 -1.4141  1.3939
    4MOL   H425 1871   1.167   4.916   3.743  0.8581  2.3861  0.2339
    4MOL   H426 1872   1.185   5.128   3.568 -0.6800 -1.3482 -1.0820
    4MOL   H427 1873   1.261   5.028   3.468  0.2492  0.3305 -0.3170
    4MOL   H428 1874   1.439   4.971   3.632 -0.1093 -0.3133  0.4450
    4MOL   H429 1875   1.439   5.135   3.587  0.7189  0.6349  2.1392
    4MOL   H430 1876   1.297   5.348   4.000  2.0172 -1.3656  1.3666
    4MOL   H431 1877   1.390   5.199   4.013  1.3762  1.2337 -0.1797
    4MOL   H432 1878   1.166   5.067   3.964  1.2425  0.2200  0.2189
    4MOL   H433 1879   1.195   5.151   4.109 -1.1777 -0.6034  0.1099
    4MOL   O434 1880   1.054   5.356   4.079 -0.2171 -0.4596 -0.3747
    4MOL   C435 1881   0.948   5.450   4.088  0.1387 -0.3969 -0.3176
    4MOL   C436 1882   0.858   5.418   4.217  0.1985 -0.5903  0.1800
    4MOL   C437 1883   0.781   5.543   4.268  0.2042  0.3216 -0.1876
    4MOL   C438 1884   0.666   5.566   4.176 -0.6951 -0.2207 -0.3275
    4MOL   O439 1885   0.560   5.631   4.244  0.1372 -0.0725 -0.0373
    4MOL   C440 1886   0.444   5.635   4.183  1.0512 -0.3525 -0.0557
    4MOL   O441 1887   0.423   5.595   4.068  0.0379 -0.7705  0.1580
    4MOL   C442 1888   0.333   5.705   4.263 -0.4815 -0.2364 -0.0434
    4MOL   C443 1889   0.199   5.627   4.255 -0.5411  0.3686 -0.2257
    4MOL   C444 1890   0.217   5.497   4.335  0.0967  0.1749 -0.0179
    4MOL   O445 1891   0.175   5.493   4.446  0.4802 -0.5151  0.3190
    4MOL   H446 1892   0.986   5.552   4.103 -0.3544  0.0554 -2.0708
    4MOL   H447 1893   0.886   5.451   3.999  3.4120  0.0513 -2.6805
    4MOL   H448 1894   0.926   5.373   4.289  0.8400  1.5849  0.9684
    4MOL   H449 1895   0.790   5.339   4.184  0.1734  0.1674 -1.6076
    4MOL   H450 1896   0.841   5.634   4.269  1.3933 -0.4436 -0.8087
    4MOL   H451 1897   0.742   5.529   4.369 -0.7574 -2.9473 -0.9476
    4MOL   H452 1898   0.711   5.626   4.096 -0.0236  0.7077  0.7412
    4MOL   H453 1899   0.639   5.473   4.125  1.3629 -0.2938 -1.3507
    4MOL   H454 1900   0.322   5.806   4.225 -0.5529  0.4719  1.8076
    4MOL   H455 1901   0.368   5.724   4.364  0.8760 -1.4041 -0.2787
    4MOL   H456 1902   0.107   5.675   4.287 -0.3091  2.6689 -2.8516
    4MOL   H457 1903   0.178   5.602   4.151  0.7698  2.4181 -1.0119
    4MOL   O458 1904   0.271   5.393   4.270  0.3606 -0.0816  0.0649
    4MOL   C459 1905   0.287   5.276   4.353  0.4473  0.3992 -0.3032
    4MOL   C460 1906   0.341   5.159   4.265  0.3726 -0.1480  0.4828
    4MOL   C461 1907   0.493   5.159   4.243  0.0447  0.1196  0.7545
    4MOL   C462 1908   0.540   5.034   4.169 -0.1550 -0.8809  0.2338
    4MOL   O463 1909   0.682   5.026   4.201  0.0536  0.3731  0.3160
    4MOL   C464 1910   0.755   4.931   4.136 -0.3963  1.1714 -0.1655
    4MOL   O465 1911   0.722   4.867   4.042  0.1916 -0.2270 -0.1777
    4MOL   C466 1912   0.894   4.904   4.210 -0.3184  0.5148  0.2809
    4MOL   C467 1913   0.973   5.032   4.250 -0.8029  0.5208 -0.0354
    4MOL   C468 1914   0.918   5.087   4.384 -0.0057  0.6414 -0.0747
    4MOL   O469 1915   0.872   5.014   4.473  0.3482 -0.2506  0.1160
    4MOL   H470 1916   0.356   5.290   4.436 -0.0857 -1.5611  0.5133
    4MOL   H471 1917   0.199   5.239   4.406  2.1552 -1.9159  1.0192
    4MOL   H472 1918   0.287   5.170   4.171 -1.3935  0.9062  1.5914
    4MOL   H473 1919   0.308   5.062   4.302 -0.4926 -0.2451 -0.4921
    4MOL   H474 1920   0.536   5.160   4.343  2.0812 -1.4308 -0.0680
    4MOL   H475 1921   0.530   5.244   4.186  1.2306 -0.3367  0.8391
    4MOL   H476 1922   0.493   4.939   4.192  0.1760 -1.3940 -1.2106
    4MOL   H477 1923   0.526   5.049   4.062 -2.8437 -2.6026  0.2766
    4MOL   H478 1924   0.954   4.844   4.141 -1.9396 -0.5491 -0.2204
    4MOL   H479 1925   0.870   4.841   4.295 -0.0467 -0.5463 -0.4189
    4MOL   H480 1926   1.080   5.008   4.248 -1.2540 -1.4809 -0.9977
    4MOL   H481 1927   0.958   5.111   4.176  2.8249  0.5183 -0.8903
    4MOL   H482 1928   0.936   5.194   4.395  1.7828  0.4539 -0.9280
    5MOL     O1 1929   0.159   6.746   4.718 -0.1033 -0.0733  0.0795
    5MOL     C2 1930   0.265   6.788   4.633  0.4111  0.1701  0.2073
    5MOL     C3 1931   0.338   6.905   4.703  0.2961  0.3944  0.1810
    5MOL     C4 1932   0.257   7.037   4.694 -0.0085 -0.1926  0.1803
    5MOL     C5 1933   0.328   7.167   4.748  0.3212 -0.7810  0.0464
    5MOL     O6 1934   0.456   7.181   4.690  0.1533  0.3307  0.1127
    5MOL     C7 1935   0.489   7.273   4.599  0.8855  0.1295 -0.0595
    5MOL     O8 1936   0.412   7.354   4.537  0.7994  0.5406  0.0976
    5MOL     C9 1937   0.636   7.275   4.568  0.0407 -0.0342 -0.0086
    5MOL    C10 1938   0.709   7.386   4.655 -0.0288  0.6746 -0.1430
    5MOL    C11 1939   0.846   7.341   4.701 -0.4731  0.2178 -0.1473
    5MOL    O12 1940   0.921   7.433   4.722 -0.3487  0.4300  0.1788
    5MOL    H13 1941   0.334   6.705   4.618  0.2224  0.0894 -0.2436
    5MOL    H14 1942   0.220   6.825   4.541 -2.1162 -0.3414  1.2037
    5MOL    H15 1943   0.438   6.916   4.660  0.9349  0.8344  1.7490
    5MOL    H16 1944   0.345   6.890   4.811  2.9689  0.4461  0.0481
    5MOL    H17 1945   0.166   7.033   4.754  0.0612  4.3216  0.7634
    5MOL    H18 1946   0.230   7.063   4.592 -1.0505 -0.3480  0.4161
    5MOL    H19 1947   0.257   7.249   4.751 -1.0572 -1.9846  0.9618
    5MOL    H20 1948   0.354   7.155   4.854 -2.0823  3.3705  1.2055
    5MOL    H21 1949   0.648   7.297   4.462 -1.9299  0.9037 -0.0478
    5MOL    H22 1950   0.674   7.176   4.593 -1.5325 -0.8947 -0.9944
    5MOL    H23 1951   0.718   7.471   4.587  1.5473  0.8012  0.2204
    5MOL    H24 1952   0.648   7.412   4.742 -1.4520  0.5651 -1.0965
    5MOL    H25 1953   0.100   6.816   4.739  1.3883  0.6894  1.8384
    5MOL    O26 1954   0.876   7.204   4.704 -0.4881 -0.5760 -0.4006
    5MOL    C27 1955   1.009   7.176   4.737 -0.1142 -0.0013  0.2770
    5MOL    C28 1956   1.012   7.030   4.762  0.2183 -0.2023  0.4785
    5MOL    C29 1957   1.148   6.978   4.808 -0.0401 -0.7072  0.2521
    5MOL    C30 1958   1.131   6.826   4.850 -0.4989  0.1852 -0.9942
    5MOL    O31 1959   1.245   6.772   4.902 -0.0343  0.2589  0.8288
    5MOL    C32 1960   1.235   6.651   4.962 -0.1334  0.2578  0.0476
    5MOL    O33 1961   1.127   6.595   4.979  0.5402  0.0020  0.0718
    5MOL    C34 1962   1.372   6.588   4.990  1.3235 -0.6229  0.0562
    5MOL    C35 1963   1.464   6.598   4.868 -0.3685  0.0950  0.8490
    5MOL    C36 1964   1.543   6.479   4.833 -0.3553  0.6040 -0.7732
    5MOL    O37 1965   1.517   6.365   4.867  0.1679 -0.4705 -0.4292
    5MOL    H38 1966   1.080   7.187   4.654  0.1161 -0.1468  0.4547
    5MOL    H39 1967   1.041   7.240   4.819  2.7678 -0.1029 -0.7099
    5MOL    H40 1968   0.999   6.971   4.671  0.8216 -0.6639  0.6911
    5MOL    H41 1969   0.935   7.008   4.836 -1.5415 -0.5387 -1.3722
    5MOL    H42 1970   1.171   7.031   4.901 -1.7684  0.5825 -0.0247
    5MOL    H43 1971   1.230   6.983   4.736  1.3071 -0.2383  1.7820
    5MOL    H44 1972   1.056   6.828   4.929  1.3621  0.2003  0.8178
    5MOL    H45 1973   1.091   6.764   4.770 -0.7302 -0.2043 -0.5763
    5MOL    H46 1974   1.348   6.488   5.027  3.0612 -0.9543  0.3079
    5MOL    H47 1975   1.418   6.631   5.079 -0.7574  0.1223  0.7999
    5MOL    H48 1976   1.417   6.619   4.772  1.4010 -2.2608 -0.6086
    5MOL    H49 1977   1.542   6.670   4.890  0.5593 -0.9945  1.1695
    5MOL    O50 1978   1.648   6.518   4.749 -0.0757  0.2946  0.0586
    5MOL    C51 1979   1.725   6.414   4.691 -0.1779 -0.4713  0.2466
    5MOL    C52 1980   1.665   6.357   4.564  0.4924  0.3358  0.0716
    5MOL    C53 1981   1.757   6.258   4.494  0.1694 -0.1385  0.6422
    5MOL    C54 1982   1.800   6.139   4.581  0.2062 -0.5730  0.2111
    5MOL    O55 1983   1.680   6.095   4.655  0.4428 -0.0618 -0.0930
    5MOL    C56 1984   1.608   5.994   4.599 -0.4962 -0.6176  0.4335
    5MOL    O57 1985   1.641   5.936   4.499  0.2806  0.2704  0.1722
    5MOL    C58 1986   1.478   5.986   4.658  0.5792  0.2123  0.5173
    5MOL    C59 1987   1.382   5.908   4.567 -0.5607  0.1866 -1.0516
    5MOL    C60 1988   1.269   5.999   4.516 -0.3852  0.6350  0.0824
    5MOL    O61 1989   1.151   5.993   4.556 -0.5283 -0.1878  0.1273
    5MOL    H62 1990   1.810   6.478   4.668 -0.1258 -0.7601 -0.3625
    5MOL    H63 1991   1.761   6.340   4.762 -0.4372  0.1130  0.9902
    5MOL    H64 1992   1.644   6.437   4.494 -0.3548 -0.5369 -0.6701
    5MOL    H65 1993   1.574   6.303   4.590 -0.8512  2.9864  1.0701
    5MOL    H66 1994   1.846   6.286   4.438  1.4939 -2.3533  1.5738
    5MOL    H67 1995   1.692   6.215   4.418  2.1703 -1.0833 -0.5674
    5MOL    H68 1996   1.859   6.070   4.520  1.4963  0.4302  0.2978
    5MOL    H69 1997   1.871   6.183   4.652  1.3186 -1.7919 -0.1090
    5MOL    H70 1998   1.437   6.087   4.669 -0.2255 -0.2367  1.7356
    5MOL    H71 1999   1.483   5.959   4.764  1.2756  2.1629  1.0050
    5MOL    H72 2000   1.428   5.850   4.487  0.1985  0.3424 -0.7279
    5MOL    H73 2001   1.322   5.841   4.629  1.4963 -1.4683 -0.8211
    5MOL    O74 2002   1.310   6.088   4.422 -0.3407 -0.7131 -0.0299
    5MOL    C75 2003   1.203   6.158   4.349  0.1760  0.2815 -0.5825
    5MOL    C76 2004   1.260   6.283   4.286  0.2612 -0.0898  0.0470
    5MOL    C77 2005   1.349   6.245   4.165  0.3766 -0.1824 -0.1039
    5MOL    C78 2006   1.431   6.361   4.111  0.2593  0.5254 -0.3811
    5MOL    O79 2007   1.350   6.466   4.056  0.2259 -0.4645 -0.4974
    5MOL    C80 2008   1.406   6.566   4.000 -0.2740  0.6963  0.8196
    5MOL    O81 2009   1.529   6.594   3.991 -0.2111  0.1907 -0.5219
    5MOL    C82 2010   1.298   6.654   3.930  0.1336  0.3164  0.3558
    5MOL    C83 2011   1.266   6.788   4.005  0.0958 -0.4014 -0.7265
    5MOL    C84 2012   1.195   6.762   4.137 -0.0644 -0.1471  0.1367
    5MOL    O85 2013   1.072   6.779   4.145  0.0942 -0.4398 -0.1341
    5MOL    H86 2014   1.146   6.096   4.281  1.1120  0.4572 -1.5533
    5MOL    H87 2015   1.136   6.196   4.427  0.2833  1.3675 -1.0078
    5MOL    H88 2016   1.321   6.328   4.364  0.3955  0.0658 -0.1469
    5MOL    H89 2017   1.179   6.349   4.258 -0.4625 -2.2552 -3.2971
    5MOL    H90 2018   1.301   6.198   4.079 -1.2451 -2.2499  1.8572
    5MOL    H91 2019   1.414   6.163   4.194  0.9691  0.0562 -0.7337
    5MOL    H92 2020   1.484   6.403   4.196 -1.2257  1.3972  0.1376
    5MOL    H93 2021   1.513   6.338   4.043  0.2144 -0.1631 -0.2110
    5MOL    H94 2022   1.205   6.600   3.910  0.7044  0.2643 -2.2838
    5MOL    H95 2023   1.345   6.688   3.838 -0.3101  0.5547  0.2137
    5MOL    H96 2024   1.357   6.843   4.027 -1.2142  2.5541 -2.3956
    5MOL    H97 2025   1.211   6.846   3.931  0.0773  0.7473  0.1896
    5MOL    O98 2026   1.273   6.721   4.236  0.6549  0.1705 -0.1810
    5MOL    C99 2027   1.216   6.694   4.361 -0.2855 -0.3322  0.4411
    5MOL   C100 2028   1.338   6.687   4.458 -0.3533  0.1266  0.4746
    5MOL   C101 2029   1.398   6.827   4.462 -0.2395  0.2954  0.2221
    5MOL   C102 2030   1.526   6.837   4.547 -0.2495 -0.2951 -0.1317
    5MOL   O103 2031   1.624   6.754   4.496 -0.0471 -0.2897 -0.3051
    5MOL   C104 2032   1.711   6.795   4.402 -0.5204  0.8420  0.0618
    5MOL   O105 2033   1.725   6.914   4.372 -0.2237  0.0055 -0.2874
    5MOL   C106 2034   1.787   6.678   4.341  0.3371 -0.2336 -0.0282
    5MOL   C107 2035   1.699   6.607   4.241  0.0703  0.9065 -0.3142
    5MOL   C108 2036   1.768   6.487   4.172 -0.1832  0.8669 -0.0602
    5MOL   O109 2037   1.749   6.373   4.209 -0.0966 -0.5964  0.2972
    5MOL   H110 2038   1.140   6.767   4.389 -0.6377 -0.2095 -0.7862
    5MOL   H111 2039   1.166   6.597   4.360  1.3252 -1.2147 -3.1645
    5MOL   H112 2040   1.412   6.614   4.424 -0.5526  0.0650  0.1679
    5MOL   H113 2041   1.316   6.651   4.558  0.1605 -1.6989 -0.0446
    5MOL   H114 2042   1.329   6.897   4.508 -1.7555  0.6784 -2.5332
    5MOL   H115 2043   1.427   6.859   4.362 -0.3647 -0.8771 -0.2070
    5MOL   H116 2044   1.565   6.938   4.542 -1.7353  0.5258  3.1329
    5MOL   H117 2045   1.501   6.821   4.652 -1.4926 -3.3853 -0.8408
    5MOL   H118 2046   1.812   6.612   4.424 -0.1731  0.7570  0.9087
    5MOL   H119 2047   1.881   6.709   4.294 -1.4689  2.7579 -1.8192
    5MOL   H120 2048   1.612   6.571   4.296 -0.1989  1.6982 -0.2267
    5MOL   H121 2049   1.665   6.687   4.176 -0.5299  1.4730  0.6959
    5MOL   O122 2050   1.831   6.519   4.060 -0.3957  0.3106 -0.2151
    5MOL   C123 2051   1.892   6.413   3.979 -0.2090 -0.3335 -0.5005
    5MOL   C124 2052   1.797   6.339   3.886 -0.2090  0.7381  0.1124
    5MOL   C125 2053   1.865   6.273   3.764 -0.4513  0.1530 -0.2839
    5MOL   C126 2054   1.768   6.199   3.667  0.0236 -0.4712  0.1190
    5MOL   O127 2055   1.707   6.088   3.731  0.5894 -0.1502  0.2221
    5MOL   C128 2056   1.718   5.963   3.685 -0.2683 -0.8109 -0.1966
    5MOL   O129 2057   1.780   5.937   3.583  0.0725 -0.2691  0.2670
    5MOL   C130 2058   1.666   5.857   3.791 -0.5149 -0.2241  0.6790
    5MOL   C131 2059   1.749   5.867   3.913 -0.0593  0.0143  0.3971
    5MOL   C132 2060   1.656   5.919   4.022 -0.1109  0.0987  0.2345
    5MOL   O133 2061   1.678   6.034   4.059 -0.7282 -0.1614 -0.4364
    5MOL   H134 2062   1.982   6.450   3.930 -0.7771 -0.6507 -1.7814
    5MOL   H135 2063   1.930   6.345   4.055  2.3284 -0.0872 -1.5028
    5MOL   H136 2064   1.719   6.408   3.854  1.5525  2.0101 -1.5327
    5MOL   H137 2065   1.746   6.266   3.950 -0.2362  1.0144  0.4057
    5MOL   H138 2066   1.945   6.210   3.802 -0.4154  0.1471 -0.3696
    5MOL   H139 2067   1.904   6.358   3.709 -3.5742  2.3306  0.7459
    5MOL   H140 2068   1.697   6.270   3.625  0.4213 -0.6998 -0.9615
    5MOL   H141 2069   1.819   6.166   3.577 -0.1448  1.4725 -0.7147
    5MOL   H142 2070   1.704   5.766   3.746  0.7649  0.4787  0.2863
    5MOL   H143 2071   1.558   5.850   3.803 -0.7313 -0.2099 -1.0864
    5MOL   H144 2072   1.771   5.765   3.945  0.5602  1.0977  3.6432
    5MOL   H145 2073   1.840   5.924   3.901  0.1452 -0.5662 -0.8538
    5MOL   O146 2074   1.578   5.830   4.078 -0.0854  0.3108  0.0154
    5MOL   C147 2075   1.512   5.865   4.200  0.0093 -0.2155 -0.9651
    5MOL   C148 2076   1.376   5.795   4.205 -0.4968 -0.0812  0.9300
    5MOL   C149 2077   1.287   5.841   4.096  0.2246 -0.3253  0.3304
    5MOL   C150 2078   1.144   5.804   4.111  0.3621 -0.4506 -0.2009
    5MOL   O151 2079   1.071   5.822   3.994 -0.5882 -0.1414 -0.2877
    5MOL   C152 2080   1.039   5.943   3.949 -0.1900 -0.6509  0.3970
    5MOL   O153 2081   1.077   6.052   3.985 -0.0141 -0.3132  0.2997
    5MOL   C154 2082   0.960   5.930   3.816 -0.3262 -0.1277 -0.5099
    5MOL   C155 2083   0.823   5.861   3.825  0.7506  0.0998  0.8213
    5MOL   C156 2084   0.702   5.953   3.794  0.5465  0.4313 -0.7060
    5MOL   O157 2085   0.703   6.068   3.743 -0.3220 -0.9106  0.2246
    5MOL   H158 2086   1.573   5.847   4.288 -0.1840 -1.7509 -1.1422
    5MOL   H159 2087   1.491   5.972   4.204  0.2764 -0.2132  0.4584
    5MOL   H160 2088   1.325   5.820   4.298 -1.0606  2.1000  0.0720
    5MOL   H161 2089   1.380   5.686   4.205 -2.0935 -0.1525  0.9758
    5MOL   H162 2090   1.327   5.808   4.000 -2.0955  0.1110 -0.8360
    5MOL   H163 2091   1.293   5.950   4.093  0.7862 -0.3511  0.3781
    5MOL   H164 2092   1.135   5.703   4.151  1.8444 -0.7226 -0.5219
    5MOL   H165 2093   1.102   5.876   4.181 -0.3727 -1.0137 -0.0571
    5MOL   H166 2094   1.024   5.881   3.743 -0.1089 -1.0395  0.2856
    5MOL   H167 2095   0.946   6.031   3.778 -0.6822  0.6606  1.6476
    5MOL   H168 2096   0.811   5.768   3.768 -0.0787 -0.0910  1.2880
    5MOL   H169 2097   0.800   5.830   3.927 -1.6173 -1.0840 -0.0076
    5MOL   O170 2098   0.580   5.884   3.841 -0.4115  0.0734  0.2160
    5MOL   C171 2099   0.454   5.938   3.792 -0.2235  0.0823  0.6500
    5MOL   C172 2100   0.368   5.820   3.748 -0.3073  0.4184 -0.1437
    5MOL   C173 2101   0.236   5.844   3.676  0.8378 -0.7683 -0.2310
    5MOL   C174 2102   0.162   5.714   3.634  0.0875  0.0653 -0.7900
    5MOL   O175 2103   0.236   5.650   3.533 -0.2762  0.4456 -0.4517
    5MOL   C176 2104   0.175   5.612   3.422 -1.0272 -0.1886  0.1885
    5MOL   O177 2105   0.060   5.629   3.391  0.6392  0.1718 -0.0795
    5MOL   C178 2106   0.271   5.570   3.306 -0.1390 -0.1915 -0.2357
    5MOL   C179 2107   0.380   5.469   3.351  0.5334 -0.3055  0.2763
    5MOL   C180 2108   0.522   5.514   3.354 -0.0387  0.0646  0.2124
    5MOL   O181 2109   0.607   5.468   3.271 -0.5867  0.7258 -0.7725
    5MOL   H182 2110   0.414   5.987   3.881  2.9093  0.7464  1.7620
    5MOL   H183 2111   0.460   6.015   3.715  2.5420 -1.3054 -0.5840
    5MOL   H184 2112   0.354   5.764   3.840 -0.6265 -0.6393 -0.8219
    5MOL   H185 2113   0.426   5.755   3.682  0.2783  0.7092  0.0775
    5MOL   H186 2114   0.248   5.898   3.582 -2.8563  0.4613 -0.0893
    5MOL   H187 2115   0.163   5.896   3.738  2.0462  0.3044  0.3123
    5MOL   H188 2116   0.150   5.648   3.719  1.4363  0.2018 -0.4716
    5MOL   H189 2117   0.059   5.733   3.604  0.0505  0.9575 -0.1233
    5MOL   H190 2118   0.310   5.659   3.258  0.7767 -0.8385 -0.7146
    5MOL   H191 2119   0.200   5.524   3.238 -1.5076  0.5029  0.7071
    5MOL   H192 2120   0.358   5.444   3.455 -0.5632 -1.2293 -0.1697
    5MOL   H193 2121   0.363   5.371   3.307  0.4835  0.4049 -1.3083
    5MOL   O194 2122   0.544   5.619   3.439 -0.0832 -0.2156  0.4342
    5MOL   C195 2123   0.674   5.680   3.456 -0.2780  1.0266  0.3850
    5MOL   C196 2124   0.659   5.825   3.411 -0.4987 -0.0450  0.0005
    5MOL   C197 2125   0.803   5.880   3.397  0.0260 -0.1086 -0.9330
    5MOL   C198 2126   0.810   6.020   3.331 -0.3062 -0.4398  0.0563
    5MOL   O199 2127   0.940   6.069   3.375 -0.0476 -0.0422  0.0768
    5MOL   C200 2128   0.979   6.178   3.330  0.6986  0.4249  0.7438
    5MOL   O201 2129   0.911   6.267   3.276  0.5183 -0.3314 -0.3408
    5MOL   C202 2130   1.127   6.185   3.350 -0.1584  0.4700 -0.2891
    5MOL   C203 2131   1.179   6.326   3.351 -0.3754  0.5522  0.1250
    5MOL   C204 2132   1.192   6.389   3.487  0.7150  0.1725 -0.7480
    5MOL   O205 2133   1.170   6.511   3.502  0.0565  0.3457  0.2443
    5MOL   H206 2134   0.703   5.684   3.561 -0.3843  0.9449  0.4173
    5MOL   H207 2135   0.756   5.635   3.401  1.0128  2.0398  1.4350
    5MOL   H208 2136   0.603   5.876   3.489 -0.3313 -1.0342  0.7869
    5MOL   H209 2137   0.615   5.833   3.312  0.8076  1.4893 -0.4828
    5MOL   H210 2138   0.867   5.812   3.341 -0.2577 -1.4571  0.3610
    5MOL   H211 2139   0.843   5.875   3.498 -1.7736 -0.3061 -0.2009
    5MOL   H212 2140   0.799   6.015   3.223  0.5943  1.4442 -0.1405
    5MOL   H213 2141   0.736   6.087   3.374  3.9145  3.2866  1.9921
    5MOL   H214 2142   1.172   6.143   3.260 -1.1360 -0.1318 -0.5025
    5MOL   H215 2143   1.167   6.138   3.440  0.1693  0.2449 -0.5533
    5MOL   H216 2144   1.284   6.309   3.329 -0.4089  0.7107 -0.1709
    5MOL   H217 2145   1.123   6.387   3.279 -0.0201 -1.1133 -1.6061
    5MOL   O218 2146   1.241   6.306   3.583 -0.0789  0.1452  0.0888
    5MOL   C219 2147   1.289   6.352   3.704 -0.3632  0.4287  0.0539
    5MOL   C220 2148   1.401   6.259   3.745  0.1686  0.6528 -0.2219
    5MOL   C221 2149   1.352   6.118   3.779  0.1854  0.0051 -0.3162
    5MOL   C222 2150   1.319   6.023   3.663  0.3860 -0.6511  0.4696
    5MOL   O223 2151   1.314   5.885   3.696  0.5293  0.3500 -0.2565
    5MOL   C224 2152   1.250   5.807   3.608  0.0334 -0.0039 -0.1894
    5MOL   O225 2153   1.178   5.844   3.514 -0.6293 -0.6635  0.2693
    5MOL   C226 2154   1.251   5.666   3.657  0.2938  0.4607 -0.5110
    5MOL   C227 2155   1.178   5.561   3.573 -0.7598  0.6330 -0.1573
    5MOL   C228 2156   1.046   5.509   3.638 -0.2014  0.1116  0.2970
    5MOL   O229 2157   1.002   5.551   3.748 -0.2904 -0.4399 -0.0948
    5MOL   H230 2158   1.338   6.447   3.684  1.7364 -0.5470  0.4157
    5MOL   H231 2159   1.215   6.367   3.783 -0.3840  0.8929 -0.0507
    5MOL   H232 2160   1.433   6.307   3.838  0.4891 -0.9258  0.5070
    5MOL   H233 2161   1.480   6.259   3.670 -1.2435  2.3820 -1.7495
    5MOL   H234 2162   1.270   6.138   3.848  1.0465  1.6025  0.2845
    5MOL   H235 2163   1.427   6.068   3.840  0.2033  1.4173  0.8533
    5MOL   H236 2164   1.217   6.053   3.636  0.2675  0.1057  1.7331
    5MOL   H237 2165   1.374   6.038   3.570  1.2395  0.0120  1.0766
    5MOL   H238 2166   1.213   5.680   3.759 -0.1163 -0.7914 -0.4842
    5MOL   H239 2167   1.353   5.628   3.664  0.3225  0.4896 -0.7965
    5MOL   H240 2168   1.159   5.588   3.469 -1.4306 -1.0123 -0.4790
    5MOL   H241 2169   1.248   5.478   3.577  0.4829  1.6208 -0.9296
    5MOL   O242 2170   0.991   5.417   3.559 -0.3520  0.1484 -0.1794
    5MOL   C243 2171   0.874   5.362   3.607 -0.6737  0.0062 -0.2891
    5MOL   C244 2172   0.802   5.298   3.491 -0.1953 -0.2508 -0.2064
    5MOL   C245 2173   0.883   5.177   3.436 -0.1910  0.0477 -0.2726
    5MOL   C246 2174   0.796   5.115   3.330 -0.3552  0.5374  0.1267
    5MOL   O247 2175   0.667   5.068   3.381  0.4209 -0.6976  0.3284
    5MOL   C248 2176   0.564   5.065   3.291  0.2170 -0.4736 -0.8088
    5MOL   O249 2177   0.572   5.084   3.169  0.0501  0.8309  0.2230
    5MOL   C250 2178   0.441   5.031   3.373 -0.3278  0.7340 -0.0214
    5MOL   C251 2179   0.404   4.888   3.399  0.3280  0.0510  0.3863
    5MOL   C252 2180   0.282   4.837   3.317  0.0960  0.0280 -0.1618
    5MOL   O253 2181   0.200   4.904   3.257 -0.1681  0.0122 -0.3330
    5MOL   H254 2182   0.895   5.294   3.689 -0.8856  0.5215  0.1954
    5MOL   H255 2183   0.801   5.431   3.650 -1.2220 -2.1798  2.4442
    5MOL   H256 2184   0.797   5.374   3.413  1.3421  2.2879  2.0867
    5MOL   H257 2185   0.703   5.267   3.525  0.0226  2.2224  2.8436
    5MOL   H258 2186   0.894   5.096   3.507  0.4785  0.8002  0.4944
    5MOL   H259 2187   0.985   5.200   3.404  0.1699  1.7566  1.9948
    5MOL   H260 2188   0.790   5.202   3.265  1.2816  1.8626  1.6817
    5MOL   H261 2189   0.841   5.038   3.266 -0.4232 -1.0356  1.9238
    5MOL   H262 2190   0.361   5.086   3.323  0.6691  2.4876  0.2817
    5MOL   H263 2191   0.452   5.082   3.469  2.2956 -0.7535  0.5088
    5MOL   H264 2192   0.485   4.816   3.395 -1.9135 -2.5701  0.6246
    5MOL   H265 2193   0.366   4.898   3.500 -0.2959 -0.0585  0.1648
    5MOL   O266 2194   0.279   4.703   3.324 -0.1365 -0.5486 -0.0240
    5MOL   C267 2195   0.188   4.627   3.242 -0.5928  0.6359 -0.7295
    5MOL   C268 2196   0.124   4.515   3.328 -0.3619  0.1398 -0.1670
    5MOL   C269 2197   0.054   4.573   3.453 -0.8197 -0.2838 -0.0538
    5MOL   C270 2198   7.862   4.472   3.546  0.0138  0.0502  0.6162
    5MOL   O271 2199   0.083   4.393   3.607  0.3172  0.1603  0.0148
    5MOL   C272 2200   0.039   4.297   3.685 -0.1521  0.6245 -0.7845
    5MOL   O273 2201   7.798   4.277   3.715 -0.0986  0.1594  0.0971
    5MOL   C274 2202   0.148   4.204   3.739 -0.4129 -0.1512 -0.2379
    5MOL   C275 2203   0.088   4.097   3.838 -0.0165 -0.1518  0.0934
    5MOL   C276 2204   0.137   4.099   3.985 -0.3093  0.1148  0.3612
    5MOL   O277 2205   0.204   4.190   4.026 -0.0376 -0.6108 -0.0064
    5MOL   H278 2206   0.106   4.690   3.209 -0.1200  1.3869 -0.4966
    5MOL   H279 2207   0.241   4.583   3.157 -2.5276  0.2319 -1.7323
    5MOL   H280 2208   0.207   4.452   3.360 -2.1197 -1.6385  0.9813
    5MOL   H281 2209   0.055   4.449   3.277 -1.5958  1.8685 -0.7672
    5MOL   H282 2210   7.839   4.629   3.425 -0.2905 -0.8021 -2.9227
    5MOL   H283 2211   0.113   4.641   3.514  0.9627  0.0856 -2.1305
    5MOL   H284 2212   7.809   4.531   3.619 -0.8707  1.2185 -0.9377
    5MOL   H285 2213   7.791   4.408   3.494 -0.6169  1.1110  0.1584
    5MOL   H286 2214   0.224   4.268   3.784  0.1211  1.8563 -3.8654
    5MOL   H287 2215   0.192   4.152   3.655  1.6038  1.2756 -0.1100
    5MOL   H288 2216   7.854   4.092   3.849 -0.0629  0.2652 -0.1642
    5MOL   H289 2217   0.123   4.000   3.802 -1.1342 -0.1890 -0.9328
    5MOL   O290 2218   0.103   3.993   4.054 -0.3474 -0.0219  0.1781
    5MOL   C291 2219   0.157   3.965   4.188 -0.2710 -0.7153  0.2536
    5MOL   C292 2220   0.251   3.848   4.180 -0.2801 -0.3996 -0.3628
    5MOL   C293 2221   0.403   3.900   4.171  0.1877  0.2904 -0.1703
    5MOL   C294 2222   0.500   3.778   4.158 -0.1503  0.2541 -0.6897
    5MOL   O295 2223   0.462   3.687   4.056 -0.6412 -0.2644  0.6157
    5MOL   C296 2224   0.526   3.559   4.066  0.0775 -0.2519  0.0807
    5MOL   O297 2225   0.616   3.523   4.148 -1.1534 -0.1552  0.2310
    5MOL   C298 2226   0.489   3.473   3.942  0.5701 -0.0452  0.2383
    5MOL   C299 2227   0.609   3.387   3.900 -0.2130  0.6185  0.5950
    5MOL   C300 2228   0.637   3.416   3.748  0.1257  0.5511 -0.9913
    5MOL   O301 2229   0.688   3.524   3.719  0.3768 -0.6622 -0.6728
    5MOL   H302 2230   0.208   4.053   4.227  1.2917 -0.5486 -2.0922
    5MOL   H303 2231   0.081   3.938   4.261  0.4457 -0.2892  1.1660
    5MOL   H304 2232   0.214   3.783   4.101 -2.2884  1.8969 -1.4017
    5MOL   H305 2233   0.232   3.795   4.273 -1.6363 -0.9112 -0.9243
    5MOL   H306 2234   0.419   3.962   4.259 -1.6032 -1.2211  1.2664
    5MOL   H307 2235   0.419   3.964   4.084  0.3534  1.2412  0.5622
    5MOL   H308 2236   0.601   3.812   4.135  0.1167 -0.2465 -0.2760
    5MOL   H309 2237   0.501   3.722   4.251  1.4718 -0.2700 -1.0187
    5MOL   H310 2238   0.465   3.538   3.858 -0.3965 -2.5081 -1.4244
    5MOL   H311 2239   0.403   3.408   3.960  0.2438 -0.2255 -1.8460
    5MOL   H312 2240   0.701   3.409   3.954 -0.0342 -1.3484  1.1490
    5MOL   H313 2241   0.601   3.280   3.921  0.7816 -0.1499 -2.6939
    5MOL   O314 2242   0.594   3.315   3.670 -0.0097 -0.4597 -0.1384
    5MOL   C315 2243   0.580   3.334   3.527  0.1628  0.2153  0.1669
    5MOL   C316 2244   0.544   3.200   3.461  0.1678 -0.1172  0.5435
    5MOL   C317 2245   0.400   3.166   3.505 -0.0736  0.5940  0.2577
    5MOL   C318 2246   0.336   3.058   3.420  0.0161 -0.2720  0.0831
    5MOL   O319 2247   0.202   3.056   3.455  0.2330  0.0368  0.0772
    5MOL   C320 2248   0.107   3.009   3.359  0.1338 -0.2282 -0.6510
    5MOL   O321 2249   0.135   2.968   3.250  0.1502 -0.3079  0.7596
    5MOL   C322 2250   7.833   3.042   3.394 -0.2362  1.0983  0.0375
    5MOL   C323 2251   7.755   3.037   3.266  0.1841 -0.0892 -0.4872
    5MOL   C324 2252   7.639   3.137   3.277  0.6562 -0.3812  0.1861
    5MOL   O325 2253   7.663   3.252   3.235  1.0436 -0.2981  0.1567
    5MOL   H326 2254   0.494   3.399   3.512 -1.1870 -1.5787 -0.0560
    5MOL   H327 2255   0.660   3.389   3.477 -0.0440  2.1194  1.9110
    5MOL   H328 2256   0.615   3.123   3.490 -0.7674 -0.9400  0.6595
    5MOL   H329 2257   0.540   3.199   3.352 -0.6237 -1.8466  0.5713
    5MOL   H330 2258   0.346   3.261   3.511  0.9367  1.2405 -0.5204
    5MOL   H331 2259   0.410   3.124   3.605  1.0035  0.6859  0.1999
    5MOL   H332 2260   0.354   3.075   3.314  1.4055  0.5849  0.4406
    5MOL   H333 2261   0.372   2.956   3.435  0.2727 -0.2591 -0.4436
    5MOL   H334 2262   7.833   3.143   3.435 -1.0047  0.5991  1.2986
    5MOL   H335 2263   7.794   2.969   3.466 -0.8642  2.4349  1.0683
    5MOL   H336 2264   7.812   3.072   3.180  1.3985  0.4919  0.5420
    5MOL   H337 2265   7.714   2.940   3.238  0.8304 -0.8687  1.1389
    5MOL   O338 2266   7.525   3.088   3.331 -0.5082 -0.5154 -0.2259
    5MOL   C339 2267   7.406   3.157   3.353 -0.0904  0.2107 -0.3806
    5MOL   C340 2268   7.299   3.143   3.238  0.5589  0.1233  0.4855
    5MOL   C341 2269   7.165   3.211   3.264  0.6246  0.0911  0.0506
    5MOL   C342 2270   7.085   3.209   3.139  0.2503 -0.0144 -0.5422
    5MOL   O343 2271   7.021   3.086   3.120 -0.2567 -0.1600  0.0648
    5MOL   C344 2272   6.967   3.052   3.008  0.3181  0.3802 -0.1888
    5MOL   O345 2273   6.945   3.119   2.910  0.0766  0.0573  0.7340
    5MOL   C346 2274   6.930   2.904   3.004 -0.5224 -0.1317 -0.3362
    5MOL   C347 2275   7.060   2.807   3.015 -0.7892  0.6797  0.6654
    5MOL   C348 2276   7.097   2.770   3.156  0.3982  0.3018 -0.2645
    5MOL   O349 2277   7.041   2.823   3.254  0.0940  1.0951 -0.2854
    5MOL   H350 2278   7.359   3.121   3.444 -2.8289  0.0944 -1.7900
    5MOL   H351 2279   7.418   3.265   3.363  0.7660 -0.0700  1.8218
    5MOL   H352 2280   7.276   3.039   3.214 -0.6432 -0.1156  2.5964
    5MOL   H353 2281   7.332   3.180   3.141 -0.9386  0.7059  0.1845
    5MOL   H354 2282   7.187   3.317   3.273  3.1765 -0.2565 -1.6816
    5MOL   H355 2283   7.102   3.172   3.345  1.8471 -0.3890  0.7832
    5MOL   H356 2284   7.011   3.288   3.132  0.1073  0.0980  1.7756
    5MOL   H357 2285   7.151   3.211   3.053  0.0348 -0.6325 -0.7274
    5MOL   H358 2286   6.886   2.881   2.907 -1.2654  2.5522 -0.6679
    5MOL   H359 2287   6.859   2.889   3.086 -0.1526 -0.6273 -0.1081
    5MOL   H360 2288   7.041   2.711   2.968  0.1902  0.7422  0.1116
    5MOL   H361 2289   7.149   2.860   2.979  0.2351 -0.5194  1.3985
    5MOL   O362 2290   7.200   2.686   3.154 -0.0119  0.0459 -0.7289
    5MOL   C363 2291   7.253   2.643   3.280 -0.2054  0.6910  0.5563
    5MOL   C364 2292   7.348   2.748   3.334  0.3236  0.1985 -0.7097
    5MOL   C365 2293   7.441   2.678   3.442 -0.5031  0.0571 -0.2515
    5MOL   C366 2294   7.552   2.780   3.494 -0.0106  0.4932  1.0364
    5MOL   O367 2295   7.601   2.726   3.614 -0.0258  0.0716 -0.3039
    5MOL   C368 2296   7.729   2.718   3.646  0.4030  0.2534 -0.1700
    5MOL   O369 2297   7.821   2.759   3.577  0.3967  0.1167  0.0819
    5MOL   C370 2298   7.756   2.643   3.773  0.1522 -0.0619 -0.5358
    5MOL   C371 2299   7.730   2.492   3.757  0.5080 -0.1906 -0.6312
    5MOL   C372 2300   7.858   2.411   3.734  0.5253  1.0018  0.6259
    5MOL   O373 2301   0.032   2.346   3.825  0.3952 -0.5068 -0.2366
    5MOL   H374 2302   7.169   2.621   3.346 -1.2672  2.2797 -0.2209
    5MOL   H375 2303   7.305   2.548   3.268 -0.1467  0.9418 -1.2476
    5MOL   H376 2304   7.299   2.840   3.366 -0.2958  0.0572 -1.2222
    5MOL   H377 2305   7.412   2.784   3.253 -2.3154  0.6386 -2.6949
    5MOL   H378 2306   7.480   2.589   3.393  0.6510  1.2714 -1.5739
    5MOL   H379 2307   7.372   2.652   3.522 -2.5963  0.9686 -1.7159
    5MOL   H380 2308   7.630   2.803   3.421 -2.1746  1.5029 -1.0260
    5MOL   H381 2309   7.516   2.879   3.522  1.0716  1.1547  0.1407
    5MOL   H382 2310   7.676   2.680   3.837  1.0664  1.7709 -0.4326
    5MOL   H383 2311   7.857   2.670   3.805  0.6492 -0.5345 -1.6867
    5MOL   H384 2312   7.681   2.448   3.845  1.9043  0.5377  0.5307
    5MOL   H385 2313   7.652   2.479   3.682  2.3814  0.3472 -2.7116
    5MOL   O386 2314   0.028   2.417   3.605  0.3534 -0.0690 -0.3407
    5MOL   C387 2315   0.156   2.370   3.575 -0.4826  0.1603  0.2131
    5MOL   C388 2316   0.147   2.257   3.468 -0.5290  0.3077 -0.5726
    5MOL   C389 2317   0.095   2.126   3.523  0.1542  0.2198 -0.7406
    5MOL   C390 2318   0.187   2.079   3.636  0.3059 -0.0069  0.7403
    5MOL   O391 2319   0.163   1.940   3.653  0.2836 -1.0249  0.1834
    5MOL   C392 2320   0.058   1.898   3.727  0.3250 -0.3854  0.2737
    5MOL   O393 2321   7.846   1.971   3.773  0.3120 -0.3425 -0.7951
    5MOL   C394 2322   0.046   1.744   3.738 -0.2004 -0.5832  0.2227
    5MOL   C395 2323   7.805   1.686   3.657  0.4759 -0.7327  0.4457
    5MOL   C396 2324   7.794   1.538   3.686 -0.3951 -1.0010 -0.4853
    5MOL   O397 2325   7.865   1.478   3.770 -0.7942  0.0033  0.0433
    5MOL   H398 2326   0.222   2.446   3.534 -1.2093  0.8685  0.3588
    5MOL   H399 2327   0.210   2.336   3.663  1.5909 -1.6784 -1.6853
    5MOL   H400 2328   0.243   2.232   3.423 -0.9663 -2.0533 -0.3104
    5MOL   H401 2329   0.085   2.290   3.385 -2.8997 -0.1589  0.9580
    5MOL   H402 2330   0.099   2.056   3.439  1.0560  1.0327 -1.3770
    5MOL   H403 2331   7.864   2.128   3.551  0.1074 -1.2158 -0.7772
    5MOL   H404 2332   0.290   2.080   3.598  0.4148 -2.4612  0.9195
    5MOL   H405 2333   0.189   2.141   3.726 -1.4539  0.7328  0.2911
    5MOL   H406 2334   0.020   1.730   3.843  1.9149  2.7268  1.2832
    5MOL   H407 2335   0.141   1.701   3.708  0.7020  1.6134 -0.1575
    5MOL   H408 2336   7.705   1.727   3.671 -0.2830 -1.9077 -1.4172
    5MOL   H409 2337   7.817   1.687   3.548  0.7526 -1.2923  0.4679
    5MOL   O410 2338   7.709   1.475   3.598  0.2107  0.0279  0.5152
    5MOL   C411 2339   7.700   1.342   3.594 -0.7931  0.4839 -0.2249
    5MOL   C412 2340   7.579   1.293   3.510  0.7274 -0.4170 -0.3855
    5MOL   C413 2341   7.609   1.300   3.358  0.1615  0.3110  0.0209
    5MOL   C414 2342   7.488   1.253   3.267 -0.1391  0.6719  0.5078
    5MOL   O415 2343   7.445   1.120   3.300 -0.1238 -0.0600 -0.2370
    5MOL   C416 2344   7.336   1.060   3.238  0.8727 -0.7506 -0.5587
    5MOL   O417 2345   7.253   1.114   3.172  0.2027 -0.6909 -0.2135
    5MOL   C418 2346   7.331   0.906   3.264 -0.0423 -1.2616  0.2415
    5MOL   C419 2347   7.279   0.829   3.143 -0.4018 -0.3665  0.4070
    5MOL   C420 2348   7.141   0.772   3.154  0.3077  0.2753  0.7555
    5MOL   O421 2349   7.062   0.805   3.241  0.1934  0.2663 -0.2665
    5MOL   H422 2350   7.789   1.308   3.540 -0.1103  3.6305 -1.1678
    5MOL   H423 2351   7.703   1.300   3.695  1.1918 -0.7648 -0.7694
    5MOL   H424 2352   7.486   1.344   3.536  0.2477 -1.8548  0.7932
    5MOL   H425 2353   7.555   1.190   3.535 -1.6027  0.3236  0.5249
    5MOL   H426 2354   7.696   1.237   3.342  1.7909  2.0229  1.9607
    5MOL   H427 2355   7.640   1.401   3.334  1.3495 -0.1555 -0.4406
    5MOL   H428 2356   7.405   1.320   3.289  0.0374  0.1715  2.8865
    5MOL   H429 2357   7.518   1.277   3.165  0.7967  0.3186  0.6936
    5MOL   H430 2358   7.259   0.891   3.344 -0.4286 -0.6341  0.0234
    5MOL   H431 2359   7.434   0.880   3.287  0.3903  1.8066  2.0780
    5MOL   H432 2360   7.271   0.881   3.048 -1.3491 -0.6329  0.3359
    5MOL   H433 2361   7.344   0.742   3.138  1.0995  0.7556 -0.1101
    5MOL   O434 2362   7.118   0.689   3.058 -0.2269  0.6854 -0.0386
    5MOL   C435 2363   6.994   0.618   3.052  0.2354 -0.0073  0.0931
    5MOL   C436 2364   7.007   0.471   3.081 -0.1812 -0.1545 -0.1977
    5MOL   C437 2365   7.038   0.447   3.227  0.0520  0.1370 -0.0859
    5MOL   C438 2366   7.079   0.301   3.249 -0.1455  0.9990 -0.1108
    5MOL   O439 2367   7.197   0.276   3.175  0.2185  0.6145  0.0936
    5MOL   C440 2368   7.291   0.202   3.228 -0.6436  0.0209 -0.6810
    5MOL   O441 2369   7.274   0.119   3.320  0.1973  0.0622 -0.0022
    5MOL   C442 2370   7.414   0.192   3.149 -0.1181  0.0555 -0.8029
    5MOL   C443 2371   7.435   0.051   3.091 -0.7069 -0.5341 -0.0761
    5MOL   C444 2372   7.570   7.859   3.123 -0.7575  0.1182  0.0698
    5MOL   O445 2373   7.648   7.821   3.040 -0.1387 -0.1704  0.0683
    5MOL   H446 2374   6.914   0.656   3.116 -0.7410  2.4594 -2.4542
    5MOL   H447 2375   6.976   0.641   2.947 -0.4137  1.4974  0.5162
    5MOL   H448 2376   7.089   0.435   3.019 -1.6954 -0.1135 -2.3132
    5MOL   H449 2377   6.918   0.415   3.051  1.6161 -1.2105 -3.8581
    5MOL   H450 2378   6.954   0.464   3.294  0.3736  2.7156 -0.2900
    5MOL   H451 2379   7.116   0.506   3.275 -0.7941  1.2803 -0.0977
    5MOL   H452 2380   7.084   0.282   3.356 -0.8289 -1.2665 -0.4705
    5MOL   H453 2381   7.000   0.236   3.211  0.1962 -0.1163  1.0821
    5MOL   H454 2382   7.497   0.207   3.218 -1.7094 -0.0750  1.1789
    5MOL   H455 2383   7.428   0.262   3.066 -0.1699 -0.7433 -1.4946
    5MOL   H456 2384   7.362   7.852   3.125 -0.6693 -0.2329  0.6655
    5MOL   H457 2385   7.433   0.056   2.982 -0.9032  3.1882  0.0326
    5MOL   O458 2386   7.586   7.847   3.253 -0.6399 -0.2844 -0.4091
    5MOL   C459 2387   7.687   7.763   3.304 -0.5542 -0.0331 -0.0933
    5MOL   C460 2388   7.665   7.752   3.459 -0.2311  0.1668 -0.3921
    5MOL   C461 2389   7.533   7.695   3.507 -0.2014 -0.2092  0.6412
    5MOL   C462 2390   7.516   7.696   3.655 -0.0252  1.0325 -1.0118
    5MOL   O463 2391   7.511   7.823   3.710  0.0437  0.2329 -0.4111
    5MOL   C464 2392   7.395   0.009   3.734  0.1621 -0.3029 -0.8133
    5MOL   O465 2393   7.283   7.825   3.744  0.2238  0.0130 -0.1601
    5MOL   C466 2394   7.416   0.161   3.768  0.4901 -0.2550 -0.2335
    5MOL   C467 2395   7.288   0.234   3.819  0.3804 -0.3195 -0.1069
    5MOL   C468 2396   7.276   0.364   3.746 -0.4816  0.1663 -0.1970
    5MOL   O469 2397   7.360   0.454   3.765 -0.6930 -0.2288  0.1493
    5MOL   H470 2398   7.691   7.659   3.272  2.1586 -0.2084  0.7008
    5MOL   H471 2399   7.789   7.794   3.280  0.6655 -2.1386  2.1866
    5MOL   H472 2400   7.686   7.850   3.501  1.4718  0.6023 -2.1759
    5MOL   H473 2401   7.743   7.682   3.490  0.7296  0.2188 -2.5995
    5MOL   H474 2402   7.515   7.593   3.473 -1.3325  0.5186 -1.0297
    5MOL   H475 2403   7.446   7.744   3.463  0.7348  1.5182  0.6664
    5MOL   H476 2404   7.419   7.651   3.676  1.0808  0.2714  2.8076
    5MOL   H477 2405   7.595   7.641   3.706 -0.5180  0.9049 -0.3847
    5MOL   H478 2406   7.457   0.205   3.677  0.1907 -3.9021 -2.2267
    5MOL   H479 2407   7.484   0.166   3.853  0.3598 -1.4196 -0.0579
    5MOL   H480 2408   7.202   0.181   3.779  1.9905 -0.8914 -2.8666
    5MOL   H481 2409   7.293   0.251   3.927 -0.5190 -2.1331  0.2289
    5MOL   H482 2410   7.198   0.371   3.670 -0.0759 -0.0961 -0.6399
    6MOL     O1 2411   0.412   0.352   1.831  0.6600  0.2588 -0.4287
    6MOL     C2 2412   0.324   0.394   1.936 -0.9855  0.2340  0.1897
    6MOL     C3 2413   0.194   0.311   1.918 -0.1203  0.4197  0.2466
    6MOL     C4 2414   0.111   0.332   1.793  0.2708  0.2552 -0.7316
    6MOL     C5 2415   7.867   0.235   1.787  0.0191 -0.3796 -0.1436
    6MOL     O6 2416   0.048   0.111   1.749  0.1816  0.5820  0.2456
    6MOL     C7 2417   7.848   0.004   1.726  0.6344 -0.2082  0.1414
    6MOL     O8 2418   7.727   7.870   1.741  0.0857 -0.8394  0.8860
    6MOL     C9 2419   0.050   7.757   1.678  0.6488 -0.9754 -1.0847
    6MOL    C10 2420   0.087   7.674   1.798 -0.6944  0.5316  0.3221
    6MOL    C11 2421   0.242   7.672   1.819 -1.0795  0.3720 -1.1375
    6MOL    O12 2422   0.318   7.586   1.776  0.2553  0.5540 -0.2118
    6MOL    H13 2423   0.374   0.372   2.031  0.8945 -0.3621 -0.9029
    6MOL    H14 2424   0.300   0.500   1.937 -1.1266  0.2008  0.3311
    6MOL    H15 2425   0.127   0.330   2.002 -2.9271 -0.0134 -1.8248
    6MOL    H16 2426   0.215   0.204   1.918  0.1003  0.4207 -3.1611
    6MOL    H17 2427   0.170   0.330   1.701  0.0541  2.6257 -0.9485
    6MOL    H18 2428   0.080   0.436   1.790  0.4734  0.3450  0.0948
    6MOL    H19 2429   7.835   0.222   1.890  0.8765  2.1254  0.4648
    6MOL    H20 2430   7.781   0.267   1.727 -2.4402 -0.2823  3.2474
    6MOL    H21 2431   0.132   7.796   1.617 -0.4253 -1.7802 -3.0678
    6MOL    H22 2432   7.853   7.709   1.612  0.0661 -1.4643 -0.1112
    6MOL    H23 2433   0.036   7.695   1.892  0.1452  2.7529  0.3207
    6MOL    H24 2434   0.062   7.576   1.757  0.5650  0.4324 -0.2453
    6MOL    H25 2435   0.493   0.317   1.864 -0.9303 -0.8677  2.4748
    6MOL    O26 2436   0.285   7.769   1.902  0.0066  0.1797  0.3630
    6MOL    C27 2437   0.426   7.775   1.936  0.3148 -0.1388 -0.2435
    6MOL    C28 2438   0.481   0.018   2.023  0.2372 -0.3876  0.2503
    6MOL    C29 2439   0.626   7.858   2.062 -0.6405  0.7919  0.4531
    6MOL    C30 2440   0.682   0.068   2.179 -0.3565 -0.0486 -0.0518
    6MOL    O31 2441   0.822   0.029   2.196 -0.3381  0.7261 -0.3136
    6MOL    C32 2442   0.918   0.095   2.127 -1.1319 -0.5136  0.4191
    6MOL    O33 2443   0.907   0.163   2.024 -0.5009 -0.4378  0.3964
    6MOL    C34 2444   1.055   0.072   2.188 -0.2133 -0.5188  0.0312
    6MOL    C35 2445   1.143   7.820   2.150 -0.3443  0.0914 -0.5050
    6MOL    C36 2446   1.172   7.819   2.001  0.2973 -0.4104 -0.0094
    6MOL    O37 2447   1.250   0.019   1.946  0.1205  0.3996 -0.0134
    6MOL    H38 2448   0.444   7.677   1.980 -4.2611  0.3348  3.0530
    6MOL    H39 2449   0.478   7.775   1.840 -0.1184 -3.5486 -0.5469
    6MOL    H40 2450   0.423   0.042   2.112  1.8220  0.2617  1.1282
    6MOL    H41 2451   0.494   0.108   1.964 -2.1610 -1.1209 -1.4589
    6MOL    H42 2452   0.689   0.002   1.975 -0.5392  0.7960  0.5281
    6MOL    H43 2453   0.634   7.754   2.092 -0.1818  0.4445 -0.8665
    6MOL    H44 2454   0.680   0.173   2.151 -0.9536 -0.1815 -0.5359
    6MOL    H45 2455   0.624   0.055   2.270  0.8858  0.8744  0.8828
    6MOL    H46 2456   1.038   0.079   2.296  0.5191 -0.1318  0.1207
    6MOL    H47 2457   1.113   0.159   2.158  1.7517 -1.9508 -0.4115
    6MOL    H48 2458   1.232   7.811   2.213  0.3208 -2.4050 -1.7544
    6MOL    H49 2459   1.088   7.734   2.186  0.8144 -1.8442 -3.1441
    6MOL    O50 2460   1.109   7.722   1.943 -0.1928  0.4562  0.5195
    6MOL    C51 2461   1.132   7.699   1.800  0.9754 -0.3005 -0.0588
    6MOL    C52 2462   1.212   7.570   1.770  0.4352 -0.2608  0.0860
    6MOL    C53 2463   1.366   7.582   1.805 -0.3121  0.6370 -0.3338
    6MOL    C54 2464   1.443   7.451   1.774  0.8120  0.3629 -0.3053
    6MOL    O55 2465   1.403   7.343   1.854  0.0906 -0.8029  0.6768
    6MOL    C56 2466   1.504   7.256   1.886  0.2322  0.5586  0.0953
    6MOL    O57 2467   1.619   7.265   1.845 -0.5258 -0.1815 -1.0816
    6MOL    C58 2468   1.455   7.134   1.958  0.7721  0.2461 -0.1240
    6MOL    C59 2469   1.555   7.073   2.061 -0.1590 -0.1197 -0.0023
    6MOL    C60 2470   1.501   7.058   2.201 -0.2476 -0.3943 -0.2476
    6MOL    O61 2471   1.466   7.150   2.266  0.1436 -0.4150 -0.3185
    6MOL    H62 2472   1.034   7.673   1.759 -0.7737  3.0000  1.7766
    6MOL    H63 2473   1.175   7.784   1.747  0.2407  1.2293  1.7575
    6MOL    H64 2474   1.199   7.548   1.664  3.1989 -0.5673 -0.2248
    6MOL    H65 2475   1.173   7.479   1.817 -0.5532 -0.3657 -0.9467
    6MOL    H66 2476   1.366   7.594   1.914 -0.3466  0.7657 -0.3474
    6MOL    H67 2477   1.412   7.666   1.753 -1.6173  0.8485 -1.1707
    6MOL    H68 2478   1.411   7.413   1.677  0.3085 -0.8651  0.3244
    6MOL    H69 2479   1.547   7.480   1.785  1.7422 -0.8398 -5.1767
    6MOL    H70 2480   1.427   7.058   1.885  0.7188 -0.4096  0.5852
    6MOL    H71 2481   1.361   7.154   2.009  1.0283  0.0002  0.4487
    6MOL    H72 2482   1.590   6.979   2.018 -1.5779  0.8451 -3.5310
    6MOL    H73 2483   1.642   7.139   2.062  0.5117 -0.9815 -0.2879
    6MOL    O74 2484   1.515   6.926   2.241  0.4282  0.2129 -1.0519
    6MOL    C75 2485   1.481   6.899   2.376  0.2269 -0.3689  0.7770
    6MOL    C76 2486   1.604   6.828   2.437  0.6087  0.4828  0.0149
    6MOL    C77 2487   1.724   6.927   2.433  0.1130  1.0777 -0.2351
    6MOL    C78 2488   1.856   6.879   2.496 -0.5047 -0.1472 -0.0265
    6MOL    O79 2489   1.885   6.759   2.426 -0.7417 -0.4077  0.8945
    6MOL    C80 2490   1.971   6.678   2.482  0.0884  0.2547 -0.1660
    6MOL    O81 2491   2.015   6.682   2.595  0.0178  0.5945 -0.4190
    6MOL    C82 2492   2.022   6.575   2.371  0.1047 -0.2237 -0.8069
    6MOL    C83 2493   2.139   6.479   2.410  0.1460  0.0560 -0.1203
    6MOL    C84 2494   2.257   6.493   2.321  0.7481 -0.5441 -0.2003
    6MOL    O85 2495   2.302   6.401   2.256  0.4552  0.2214  0.3693
    6MOL    H86 2496   1.467   6.992   2.431  1.7630  1.0034 -1.0658
    6MOL    H87 2497   1.395   6.833   2.381 -0.3440  0.3286  0.2680
    6MOL    H88 2498   1.623   6.742   2.373  0.2522  1.8138 -1.9231
    6MOL    H89 2499   1.569   6.787   2.532 -2.6680 -0.1592 -1.4051
    6MOL    H90 2500   1.693   7.014   2.492 -1.1413  0.3981  0.1262
    6MOL    H91 2501   1.742   6.963   2.331  0.5885  0.5797 -0.3244
    6MOL    H92 2502   1.941   6.943   2.477  0.3816 -1.8404 -2.0501
    6MOL    H93 2503   1.845   6.869   2.604 -2.1444  1.3505 -0.0279
    6MOL    H94 2504   2.028   6.629   2.277  3.4013  0.5277 -0.2109
    6MOL    H95 2505   1.937   6.506   2.372  1.6259 -2.1911  1.4726
    6MOL    H96 2506   2.180   6.505   2.507 -0.1612 -0.1264  0.0604
    6MOL    H97 2507   2.112   6.373   2.420  2.5904 -0.5782  0.1889
    6MOL    O98 2508   2.297   6.617   2.311 -0.2438 -0.4949 -0.0236
    6MOL    C99 2509   2.411   6.646   2.227  0.6736 -0.0908 -0.4561
    6MOL   C100 2510   2.362   6.711   2.097  0.0271 -0.1636  0.1392
    6MOL   C101 2511   2.476   6.757   2.006  0.8213  1.0821 -0.0817
    6MOL   C102 2512   2.415   6.819   1.880 -0.4551 -0.3024 -0.3706
    6MOL   O103 2513   2.364   6.731   1.784  0.5078 -0.2369  0.1171
    6MOL   C104 2514   2.236   6.707   1.778 -0.2733  0.1392  0.0618
    6MOL   O105 2515   2.148   6.763   1.847 -0.1013  0.7301  0.8639
    6MOL   C106 2516   2.204   6.594   1.678  0.4719  0.0475 -0.2479
    6MOL   C107 2517   2.266   6.459   1.723 -0.0096  0.0888  0.7444
    6MOL   C108 2518   2.216   6.336   1.647 -0.3808  0.9280 -0.3445
    6MOL   O109 2519   2.288   6.267   1.573  0.9855 -0.7729  0.2790
    6MOL   H110 2520   2.467   6.720   2.284 -2.7580  1.2603  1.3124
    6MOL   H111 2521   2.480   6.566   2.202 -0.1077 -0.2378 -2.2438
    6MOL   H112 2522   2.304   6.796   2.134  0.8986  0.1112  0.8842
    6MOL   H113 2523   2.302   6.634   2.047  1.5552 -0.4842 -1.2633
    6MOL   H114 2524   2.540   6.674   1.977 -0.6232  0.3349 -1.2222
    6MOL   H115 2525   2.538   6.832   2.055 -0.7143  1.2502  1.6472
    6MOL   H116 2526   2.345   6.897   1.909 -0.4421 -0.1213 -0.8323
    6MOL   H117 2527   2.500   6.865   1.830  0.4180 -1.4207  0.0667
    6MOL   H118 2528   2.246   6.616   1.580 -0.2808 -1.5165 -0.9347
    6MOL   H119 2529   2.098   6.582   1.655  0.1933  0.8776  0.5369
    6MOL   H120 2530   2.374   6.459   1.707  0.1830 -3.0546  1.7723
    6MOL   H121 2531   2.235   6.436   1.825  1.2946  1.3341  1.4436
    6MOL   O122 2532   2.088   6.323   1.661 -0.0744  0.0075 -0.1633
    6MOL   C123 2533   2.023   6.223   1.579  0.4132 -0.1877  0.0876
    6MOL   C124 2534   1.874   6.211   1.612  0.7431  0.0106  0.0874
    6MOL   C125 2535   1.849   6.185   1.753 -0.6918  0.3638  0.3102
    6MOL   C126 2536   1.872   6.038   1.795  0.4667 -0.1233  0.9228
    6MOL   O127 2537   1.768   5.959   1.740 -0.1702 -0.0672 -0.0327
    6MOL   C128 2538   1.794   5.856   1.660  0.1206 -0.6371  0.4296
    6MOL   O129 2539   1.906   5.819   1.626 -0.1489 -0.1217 -0.4126
    6MOL   C130 2540   1.668   5.786   1.603  1.0913 -0.4880  0.4609
    6MOL   C131 2541   1.578   5.891   1.535 -0.3452  0.3166 -1.1817
    6MOL   C132 2542   1.572   5.878   1.381  0.0912  0.1924  0.5821
    6MOL   O133 2543   1.597   5.970   1.309 -0.2613 -0.4018  0.3681
    6MOL   H134 2544   2.034   6.260   1.477  2.0368  1.7966  0.9497
    6MOL   H135 2545   2.070   6.127   1.602  0.1634 -0.3018  0.1205
    6MOL   H136 2546   1.834   6.126   1.558 -0.5255  0.9779 -0.5216
    6MOL   H137 2547   1.826   6.304   1.581 -2.7425 -0.8412  2.5917
    6MOL   H138 2548   1.749   6.216   1.782 -1.6310 -1.8101 -0.5065
    6MOL   H139 2549   1.913   6.234   1.827  0.4053 -0.3937 -0.1137
    6MOL   H140 2550   1.970   6.004   1.762  0.1953  1.8850 -2.1101
    6MOL   H141 2551   1.858   6.026   1.903 -2.2198  1.0136  0.7340
    6MOL   H142 2552   1.596   5.735   1.667  0.0958 -2.7635 -2.3430
    6MOL   H143 2553   1.707   5.706   1.540 -0.5883 -2.5033  1.9048
    6MOL   H144 2554   1.481   5.874   1.582 -0.2684 -0.3243 -1.2424
    6MOL   H145 2555   1.610   5.992   1.560 -1.6641  0.1514  1.3834
    6MOL   O146 2556   1.536   5.751   1.345  0.2012  0.3324  0.1809
    6MOL   C147 2557   1.531   5.706   1.208  0.9338  0.0885  0.0994
    6MOL   C148 2558   1.534   5.558   1.215  0.3511  0.5262  0.1399
    6MOL   C149 2559   1.668   5.498   1.232 -0.5084  0.3158  0.2230
    6MOL   C150 2560   1.673   5.348   1.236 -0.1603 -0.4370  0.0173
    6MOL   O151 2561   1.798   5.302   1.286 -0.2048 -0.1047 -0.0715
    6MOL   C152 2562   1.815   5.170   1.317  0.9126 -0.0152 -0.0427
    6MOL   O153 2563   1.723   5.093   1.310 -0.7728  0.0324  0.1089
    6MOL   C154 2564   1.956   5.136   1.368 -0.2015 -0.2909 -0.3533
    6MOL   C155 2565   2.059   5.165   1.256  0.5530  0.2361  0.4958
    6MOL   C156 2566   2.192   5.094   1.288  0.1379 -0.7868  0.3177
    6MOL   O157 2567   2.219   5.042   1.398  0.1764 -0.2795  0.1698
    6MOL   H158 2568   1.445   5.746   1.154  1.1114 -0.1575 -0.3590
    6MOL   H159 2569   1.610   5.754   1.151  0.5508  2.1383  1.2376
    6MOL   H160 2570   1.490   5.512   1.127  0.7852 -1.8179  1.0944
    6MOL   H161 2571   1.472   5.511   1.292 -3.9760  2.0066 -2.2184
    6MOL   H162 2572   1.727   5.548   1.309 -2.8216  3.1992  0.2228
    6MOL   H163 2573   1.727   5.527   1.144 -1.9224 -0.5593 -1.0414
    6MOL   H164 2574   1.600   5.319   1.312 -0.6765 -0.3171 -0.4280
    6MOL   H165 2575   1.655   5.300   1.140  0.9060 -0.5239 -0.1436
    6MOL   H166 2576   1.963   5.034   1.405 -1.4925 -0.6748 -1.1093
    6MOL   H167 2577   1.986   5.203   1.449 -1.1432 -0.7200  0.3690
    6MOL   H168 2578   2.041   5.123   1.157 -0.1601  1.1525  0.2265
    6MOL   H169 2579   2.076   5.272   1.243  3.1457 -0.1936  0.0496
    6MOL   O170 2580   2.280   5.102   1.184  0.4645 -0.3574  0.1343
    6MOL   C171 2581   2.412   5.046   1.188  0.2275  0.5321  0.6335
    6MOL   C172 2582   2.407   4.891   1.171 -0.2027  0.2887 -0.4327
    6MOL   C173 2583   2.351   4.857   1.028 -0.1097  0.6070 -0.5704
    6MOL   C174 2584   2.330   4.703   0.996 -0.4802  0.0364 -1.2079
    6MOL   O175 2585   2.443   4.645   0.930  0.6386 -0.3180  0.2250
    6MOL   C176 2586   2.519   4.559   0.982  0.4190  0.0251 -1.3276
    6MOL   O177 2587   2.513   4.506   1.091 -0.2080  0.2380  0.0396
    6MOL   C178 2588   2.635   4.530   0.888  0.0345 -0.2088  0.6327
    6MOL   C179 2589   2.727   4.413   0.922  0.3839 -0.1986 -0.6363
    6MOL   C180 2590   2.766   4.336   0.802  0.0127 -0.3284  0.2892
    6MOL   O181 2591   2.706   4.355   0.692 -0.4354  0.3121  0.0697
    6MOL   H182 2592   2.476   5.082   1.108 -0.3009  0.1431  0.0278
    6MOL   H183 2593   2.466   5.066   1.280 -0.2141  0.6021  0.8800
    6MOL   H184 2594   2.340   4.848   1.246 -2.2417  0.7824 -1.9353
    6MOL   H185 2595   2.504   4.846   1.191 -0.5099  0.6593  2.0751
    6MOL   H186 2596   2.407   4.901   0.945 -1.5410  0.1524 -1.7746
    6MOL   H187 2597   2.253   4.902   1.040 -0.4848 -0.4001  0.1665
    6MOL   H188 2598   2.314   4.656   1.092  2.3663  0.1741 -0.6248
    6MOL   H189 2599   2.244   4.701   0.928  0.3224  2.6178 -2.3764
    6MOL   H190 2600   2.687   4.626   0.891  0.4810 -0.4301 -0.0064
    6MOL   H191 2601   2.584   4.518   0.793  1.5247 -2.7847  0.1126
    6MOL   H192 2602   2.818   4.459   0.962 -0.5917  1.5800 -0.4102
    6MOL   H193 2603   2.684   4.343   0.994 -1.7600  1.1099 -0.5930
    6MOL   O194 2604   2.876   4.254   0.818 -0.2739 -0.1656 -0.3905
    6MOL   C195 2605   2.927   4.178   0.707  0.1671 -0.3524  0.5104
    6MOL   C196 2606   3.028   4.063   0.744 -0.1817 -0.2829  0.6916
    6MOL   C197 2607   3.052   3.984   0.610 -0.1412 -0.4669  0.0175
    6MOL   C198 2608   3.142   3.855   0.633  0.4210  0.1031 -0.3801
    6MOL   O199 2609   3.073   3.763   0.724 -0.1153  0.4323  0.6693
    6MOL   C200 2610   2.999   3.667   0.675 -0.2892  0.0544  0.4075
    6MOL   O201 2611   2.982   3.640   0.552  0.1496 -0.4493 -0.3242
    6MOL   C202 2612   2.938   3.578   0.785 -0.6543  0.0074  0.2796
    6MOL   C203 2613   2.826   3.645   0.862  0.0024  0.1550  0.7220
    6MOL   C204 2614   2.856   3.645   1.016 -0.1739  0.1822  0.2795
    6MOL   O205 2615   2.887   3.747   1.080 -0.0643 -0.6213  0.4954
    6MOL   H206 2616   2.851   4.143   0.636 -0.0037 -0.5451  0.7879
    6MOL   H207 2617   2.995   4.246   0.657  0.0117 -0.5072  0.0849
    6MOL   H208 2618   2.981   3.997   0.817  0.0253  0.2479  1.3134
    6MOL   H209 2619   3.123   4.101   0.782  0.4919 -0.0450 -1.1823
    6MOL   H210 2620   3.092   4.048   0.531 -1.0979 -1.4229 -1.2662
    6MOL   H211 2621   2.955   3.955   0.569 -0.8704  0.8211  0.8254
    6MOL   H212 2622   3.173   3.806   0.540  2.5179  1.1219 -0.2542
    6MOL   H213 2623   3.237   3.883   0.679  1.6203  1.2301 -3.3588
    6MOL   H214 2624   3.014   3.547   0.857 -0.3573 -1.3675 -0.5969
    6MOL   H215 2625   2.916   3.493   0.720  0.5397  1.7277 -2.4504
    6MOL   H216 2626   2.801   3.745   0.825  0.8402 -0.5702 -1.8981
    6MOL   H217 2627   2.733   3.595   0.834  1.3567 -0.3679 -3.2190
    6MOL   O218 2628   2.836   3.524   1.073  0.5936 -0.3858 -1.2400
    6MOL   C219 2629   2.876   3.503   1.209 -0.0053 -0.5549  0.0591
    6MOL   C220 2630   2.950   3.377   1.213  0.1169 -0.3353  0.6789
    6MOL   C221 2631   3.086   3.378   1.155  0.6626 -0.3380 -0.3723
    6MOL   C222 2632   3.163   3.253   1.174  0.3512  0.0043  0.6028
    6MOL   O223 2633   3.215   3.254   1.301  0.3228 -0.0599 -0.3353
    6MOL   C224 2634   3.242   3.138   1.365 -1.0448  0.1437  0.5463
    6MOL   O225 2635   3.194   3.035   1.321  0.2106 -0.5048  0.3318
    6MOL   C226 2636   3.321   3.151   1.486  0.1493 -0.0350  0.8563
    6MOL   C227 2637   3.409   3.031   1.542  0.5430  0.1658 -0.1785
    6MOL   C228 2638   3.559   3.047   1.515 -0.2062 -0.4671 -0.1166
    6MOL   O229 2639   3.601   3.119   1.424 -0.2783  0.1856  0.6322
    6MOL   H230 2640   2.922   3.590   1.255 -0.7177 -0.0033 -0.2672
    6MOL   H231 2641   2.781   3.491   1.261 -1.2121 -0.5128 -2.0893
    6MOL   H232 2642   2.891   3.293   1.176  1.9198 -1.4557  0.2392
    6MOL   H233 2643   2.965   3.344   1.316 -2.4278  0.3428  1.3016
    6MOL   H234 2644   3.135   3.465   1.198 -0.8903  0.3217  0.0836
    6MOL   H235 2645   3.077   3.390   1.047  3.9939  0.4776 -0.6197
    6MOL   H236 2646   3.106   3.162   1.153 -0.3071  0.1934  1.5256
    6MOL   H237 2647   3.245   3.253   1.101  2.1772 -0.6555  2.6150
    6MOL   H238 2648   3.249   3.176   1.564  0.0888 -0.1011  0.8221
    6MOL   H239 2649   3.376   3.242   1.463 -0.4227  0.0363 -0.3109
    6MOL   H240 2650   3.399   3.014   1.649  0.9684 -0.6188 -0.2570
    6MOL   H241 2651   3.387   2.940   1.485  1.2251  0.4903 -0.9663
    6MOL   O242 2652   3.637   2.983   1.607  0.1751 -0.6714  1.3045
    6MOL   C243 2653   3.772   2.947   1.583 -0.3154  0.7691  0.3909
    6MOL   C244 2654   3.796   2.820   1.658  0.2882 -0.1072  0.3434
    6MOL   C245 2655   3.726   2.704   1.586 -0.1813  0.2644  0.5793
    6MOL   C246 2656   3.580   2.673   1.620 -0.5607  0.0010 -0.0272
    6MOL   O247 2657   3.557   2.637   1.757  0.1644 -0.0933 -0.3466
    6MOL   C248 2658   3.500   2.726   1.839  0.0816  0.3203 -0.2835
    6MOL   O249 2659   3.434   2.825   1.812 -0.0543 -0.0682 -0.1188
    6MOL   C250 2660   3.526   2.681   1.986 -0.7714  0.6015  0.1292
    6MOL   C251 2661   3.450   2.773   2.077  0.2426 -0.1650 -0.4992
    6MOL   C252 2662   3.395   2.723   2.204 -0.2906  0.4458 -0.0913
    6MOL   O253 2663   3.438   2.774   2.309  0.0418  0.0198  0.0661
    6MOL   H254 2664   3.786   2.927   1.477 -1.7124 -1.2831  0.5629
    6MOL   H255 2665   3.848   3.020   1.611  0.6167 -0.1743  0.3487
    6MOL   H256 2666   3.765   2.834   1.762  0.2874  0.6727  0.2399
    6MOL   H257 2667   3.902   2.797   1.645 -0.0967 -1.3040 -0.7303
    6MOL   H258 2668   3.780   2.610   1.601  1.6938  1.3040  0.4547
    6MOL   H259 2669   3.734   2.719   1.479 -3.7184  2.5244  0.5556
    6MOL   H260 2670   3.509   2.746   1.582  0.4636  1.6192  1.1235
    6MOL   H261 2671   3.559   2.582   1.565  0.6059  0.6177 -1.5070
    6MOL   H262 2672   3.635   2.692   1.987 -0.9669  2.9159  2.2789
    6MOL   H263 2673   3.503   2.576   2.002  1.0455  0.4014  1.6482
    6MOL   H264 2674   3.521   2.854   2.094 -0.3604  0.2395  0.1359
    6MOL   H265 2675   3.369   2.826   2.026 -0.4549 -1.1562 -0.4312
    6MOL   O266 2676   3.305   2.623   2.193  0.4560 -0.4178  0.1297
    6MOL   C267 2677   3.238   2.561   2.306  0.8520  0.0191 -0.9116
    6MOL   C268 2678   3.124   2.642   2.362  0.3205  0.2629  0.2657
    6MOL   C269 2679   3.065   2.555   2.472 -0.0255  0.2257 -0.7478
    6MOL   C270 2680   2.930   2.613   2.520 -0.1810  0.7513 -0.0800
    6MOL   O271 2681   2.842   2.601   2.410  0.0517 -0.3483 -0.3334
    6MOL   C272 2682   2.714   2.562   2.423 -0.1825  0.3024  0.8832
    6MOL   O273 2683   2.656   2.547   2.528  0.5085 -0.3536  0.4107
    6MOL   C274 2684   2.658   2.505   2.285  0.0608 -0.4684  0.2165
    6MOL   C275 2685   2.685   2.605   2.167  0.2002  0.3958  0.0189
    6MOL   C276 2686   2.570   2.707   2.141 -0.3500  0.5079  0.3259
    6MOL   O277 2687   2.506   2.708   2.036 -0.0736 -0.0788  0.1489
    6MOL   H278 2688   3.202   2.462   2.276  1.3353  0.0076 -1.4710
    6MOL   H279 2689   3.301   2.531   2.389 -1.3144 -0.0225  0.7446
    6MOL   H280 2690   3.062   2.691   2.288  2.1374 -0.9372 -2.1302
    6MOL   H281 2691   3.165   2.724   2.420  2.3357 -0.6605  0.2107
    6MOL   H282 2692   3.129   2.555   2.559 -1.4988 -0.3344  0.3663
    6MOL   H283 2693   3.047   2.449   2.456  3.6057 -1.0319  2.8299
    6MOL   H284 2694   2.893   2.556   2.605 -0.1870 -2.0496 -1.8825
    6MOL   H285 2695   2.935   2.717   2.552  0.7708  0.1529  1.7819
    6MOL   H286 2696   2.552   2.483   2.298 -0.4566  2.3222  1.2281
    6MOL   H287 2697   2.699   2.406   2.269 -0.1448 -0.5470  0.1679
    6MOL   H288 2698   2.783   2.651   2.178  0.2768  1.0768 -2.9451
    6MOL   H289 2699   2.692   2.544   2.076  0.1090 -0.1636  0.3851
    6MOL   O290 2700   2.549   2.789   2.245  0.3210 -0.1512  0.1923
    6MOL   C291 2701   2.474   2.914   2.239  0.4118 -0.2511  0.0851
    6MOL   C292 2702   2.462   2.976   2.377 -0.2305  0.2917 -0.2588
    6MOL   C293 2703   2.600   3.026   2.438 -0.3289  0.3040  0.0359
    6MOL   C294 2704   2.565   3.127   2.551 -0.3489 -0.9575 -0.3765
    6MOL   O295 2705   2.676   3.182   2.618 -0.3292  0.0537  0.0213
    6MOL   C296 2706   2.693   3.314   2.604 -0.1211  0.4741 -1.0512
    6MOL   O297 2707   2.610   3.394   2.560  0.0901  0.0794  0.1920
    6MOL   C298 2708   2.824   3.360   2.671 -0.6830 -0.2654  0.3433
    6MOL   C299 2709   2.935   3.379   2.565 -0.9931 -0.2222 -0.1387
    6MOL   C300 2710   2.985   3.522   2.566  0.2793  0.2751 -0.5610
    6MOL   O301 2711   2.995   3.583   2.462  0.4891  0.2064 -0.0219
    6MOL   H302 2712   2.537   2.984   2.184  0.1428 -0.8955 -1.0668
    6MOL   H303 2713   2.377   2.909   2.190  0.4730 -0.8847  0.0235
    6MOL   H304 2714   2.420   2.899   2.441  2.1603 -0.1402  0.8537
    6MOL   H305 2715   2.388   3.056   2.380 -2.1793 -1.5069  0.4539
    6MOL   H306 2716   2.648   3.081   2.357 -0.5474 -1.0413 -1.0097
    6MOL   H307 2717   2.669   2.946   2.463 -2.1950 -1.4522 -0.2934
    6MOL   H308 2718   2.497   3.194   2.499 -1.1364 -0.8522  0.7823
    6MOL   H309 2719   2.501   3.071   2.619  0.9219 -0.5620  1.2084
    6MOL   H310 2720   2.866   3.282   2.734 -0.3789 -0.8029 -0.5141
    6MOL   H311 2721   2.808   3.449   2.732 -2.4927  0.3091 -0.9335
    6MOL   H312 2722   3.016   3.313   2.597 -0.2405  1.4850  1.5890
    6MOL   H313 2723   2.899   3.341   2.469 -1.0675  0.6294 -0.4491
    6MOL   O314 2724   3.027   3.555   2.691  0.7123 -0.1598  0.4927
    6MOL   C315 2725   3.095   3.682   2.711  0.0738  0.0257 -0.0754
    6MOL   C316 2726   3.248   3.687   2.705  0.4023 -0.1026  0.6718
    6MOL   C317 2727   3.313   3.635   2.571  0.2794 -1.0208  0.1676
    6MOL   C318 2728   3.461   3.622   2.592 -0.3907 -0.3313  1.1133
    6MOL   O319 2729   3.482   3.507   2.678 -0.1466  0.2568  0.0459
    6MOL   C320 2730   3.598   3.488   2.733  0.6445  0.2520 -0.2272
    6MOL   O321 2731   3.709   3.531   2.693  0.1599 -0.3636  0.2302
    6MOL   C322 2732   3.594   3.402   2.858  0.1861 -0.0443 -0.3043
    6MOL   C323 2733   3.692   3.288   2.853  0.4267  0.1461  0.6349
    6MOL   C324 2734   3.630   3.152   2.871  0.6921  0.0968  0.2054
    6MOL   O325 2735   3.549   3.135   2.959 -0.6907 -0.3133  0.6554
    6MOL   H326 2736   3.060   3.757   2.639 -0.7717  0.3604  0.6663
    6MOL   H327 2737   3.067   3.709   2.813  2.7265  1.5642  0.2769
    6MOL   H328 2738   3.291   3.634   2.790 -0.2700 -1.4645  0.1871
    6MOL   H329 2739   3.281   3.791   2.700 -2.6826  0.8797 -0.0669
    6MOL   H330 2740   3.288   3.698   2.486 -1.5763 -0.6236  0.9710
    6MOL   H331 2741   3.270   3.536   2.553 -0.3254 -0.3397 -2.2328
    6MOL   H332 2742   3.507   3.618   2.493 -2.8851 -0.3239 -0.0812
    6MOL   H333 2743   3.507   3.714   2.628  1.1417 -0.6161 -0.0765
    6MOL   H334 2744   3.489   3.372   2.859  0.7697 -2.1295  0.1537
    6MOL   H335 2745   3.613   3.457   2.950  0.3866 -2.6739  1.2820
    6MOL   H336 2746   3.751   3.298   2.762 -0.6602  4.4204  0.3054
    6MOL   H337 2747   3.767   3.292   2.932  1.7486  2.3685 -0.6651
    6MOL   O338 2748   3.674   3.060   2.789  0.4810 -0.3846 -0.2871
    6MOL   C339 2749   3.622   2.932   2.797  0.5454  0.3386 -0.2835
    6MOL   C340 2750   3.522   2.900   2.689 -0.5592 -0.4977 -1.1259
    6MOL   C341 2751   3.466   2.761   2.705 -0.6184  0.5170 -0.1656
    6MOL   C342 2752   3.567   2.647   2.710  0.3988  0.0534 -0.4447
    6MOL   O343 2753   3.502   2.523   2.745  0.8880  0.0216 -0.7345
    6MOL   C344 2754   3.476   2.431   2.652 -0.4565  0.8507 -0.5444
    6MOL   O345 2755   3.472   2.439   2.532  0.0505  0.0534  0.0154
    6MOL   C346 2756   3.452   2.302   2.726 -0.2542  0.1949  0.3884
    6MOL   C347 2757   3.401   2.188   2.643 -0.4278 -0.7913 -0.2167
    6MOL   C348 2758   3.251   2.193   2.662  0.2759  0.0633  0.1844
    6MOL   O349 2759   3.174   2.243   2.581  0.1196  0.2130 -0.4912
    6MOL   H350 2760   3.710   2.873   2.771  0.0268 -0.0248 -1.2800
    6MOL   H351 2761   3.594   2.896   2.896  2.3845  1.4980  0.6786
    6MOL   H352 2762   3.576   2.908   2.594  3.0927 -2.2176  0.7187
    6MOL   H353 2763   3.449   2.981   2.692 -1.5946 -1.4344 -0.7796
    6MOL   H354 2764   3.401   2.743   2.619 -1.8895  0.6474  0.7706
    6MOL   H355 2765   3.408   2.750   2.796  0.7803  1.5657  0.8835
    6MOL   H356 2766   3.623   2.637   2.617  1.7262  0.6764  0.2720
    6MOL   H357 2767   3.654   2.664   2.773 -1.7020  3.0421  1.7596
    6MOL   H358 2768   3.389   2.322   2.813  0.7260 -1.2440  1.4696
    6MOL   H359 2769   3.546   2.285   2.780  0.6535  1.4939 -0.7458
    6MOL   H360 2770   3.414   2.199   2.535 -0.2826  2.6177  0.1063
    6MOL   H361 2771   3.451   2.097   2.674  0.7279  0.0387  0.3774
    6MOL   O362 2772   3.218   2.139   2.785 -0.1929 -0.4602  0.0128
    6MOL   C363 2773   3.089   2.134   2.835 -0.7610 -0.6409 -0.1778
    6MOL   C364 2774   3.021   1.996   2.836  0.6491  0.3389  0.2286
    6MOL   C365 2775   3.045   1.912   2.702  0.1441  0.8278  0.3202
    6MOL   C366 2776   2.978   1.770   2.711 -0.1055 -0.2194  0.3817
    6MOL   O367 2777   2.841   1.774   2.740  0.0517 -0.4701  0.2901
    6MOL   C368 2778   2.777   1.664   2.779 -0.4628 -0.1774 -0.4267
    6MOL   O369 2779   2.812   1.552   2.740 -0.1739 -0.3281 -0.4967
    6MOL   C370 2780   2.647   1.698   2.848  0.4756 -0.5618 -0.2012
    6MOL   C371 2781   2.553   1.580   2.879 -0.5971  0.4542  0.3609
    6MOL   C372 2782   2.410   1.630   2.911  0.0708  0.0082  0.1978
    6MOL   O373 2783   2.358   1.595   3.021 -0.4545  0.1128  0.0277
    6MOL   H374 2784   3.097   2.171   2.937 -2.9395 -1.3830  0.2926
    6MOL   H375 2785   3.025   2.205   2.782 -1.1468 -0.9200 -0.0887
    6MOL   H376 2786   2.915   2.020   2.836  0.3970 -0.6743 -1.9191
    6MOL   H377 2787   3.045   1.944   2.929  1.2200  0.9649  0.4273
    6MOL   H378 2788   3.152   1.898   2.687  0.0565 -1.6616  1.8120
    6MOL   H379 2789   3.005   1.970   2.619 -1.6865 -1.1819 -0.2404
    6MOL   H380 2790   2.974   1.712   2.620 -1.3884 -0.0437  0.3183
    6MOL   H381 2791   3.044   1.710   2.774 -0.2353  0.2165  0.9440
    6MOL   H382 2792   2.596   1.767   2.781  1.1003 -1.1713 -1.3189
    6MOL   H383 2793   2.667   1.753   2.941  0.5478 -2.2037  0.7792
    6MOL   H384 2794   2.542   1.507   2.798 -0.7452  1.6458 -0.6980
    6MOL   H385 2795   2.591   1.521   2.963 -1.8999 -1.0035 -0.0390
    6MOL   O386 2796   2.340   1.703   2.813 -0.1646 -0.1266 -0.3862
    6MOL   C387 2797   2.204   1.734   2.835 -0.4783  0.4813  0.2752
    6MOL   C388 2798   2.176   1.863   2.924 -0.5718  0.1133 -0.3139
    6MOL   C389 2799   2.233   1.994   2.865  0.4243 -0.4987  0.5905
    6MOL   C390 2800   2.384   2.002   2.852 -0.6688 -0.2726  0.5951
    6MOL   O391 2801   2.427   2.113   2.778  0.3494  0.0284  0.4817
    6MOL   C392 2802   2.570   2.122   2.766 -0.1807 -0.5860  0.1512
    6MOL   O393 2803   2.649   2.055   2.830 -0.3199  0.8551  0.3455
    6MOL   C394 2804   2.615   2.209   2.654  0.7980 -0.6028 -0.0959
    6MOL   C395 2805   2.763   2.219   2.618  0.9343  1.0658  0.6251
    6MOL   C396 2806   2.793   2.165   2.478  0.3134 -0.5244 -0.3283
    6MOL   O397 2807   2.822   2.235   2.383 -0.0823 -0.2979  0.8752
    6MOL   H398 2808   2.155   1.740   2.738  1.6189 -1.3589 -0.9508
    6MOL   H399 2809   2.161   1.645   2.881  0.5389  1.1151  2.5423
    6MOL   H400 2810   2.217   1.834   3.021 -1.7554 -2.3739 -0.5189
    6MOL   H401 2811   2.070   1.872   2.944 -0.8278 -0.9373 -1.1757
    6MOL   H402 2812   2.200   2.079   2.925 -0.5019 -0.0934 -0.4810
    6MOL   H403 2813   2.191   2.014   2.767 -0.7860 -1.8337  0.8276
    6MOL   H404 2814   2.419   2.009   2.955 -0.4933  1.1682  0.4480
    6MOL   H405 2815   2.417   1.911   2.802 -1.5585 -0.0060 -0.5021
    6MOL   H406 2816   2.578   2.310   2.676  0.1237 -0.8330 -0.1654
    6MOL   H407 2817   2.560   2.179   2.564 -0.1858  1.3670 -0.1894
    6MOL   H408 2818   2.809   2.318   2.620  0.7296  1.1546  1.5798
    6MOL   H409 2819   2.815   2.151   2.685 -2.3818 -0.4362  1.7935
    6MOL   O410 2820   2.779   2.030   2.481  0.1396  0.4151  0.0489
    6MOL   C411 2821   2.767   1.960   2.359 -0.1009 -0.3826 -0.4146
    6MOL   C412 2822   2.757   1.815   2.383 -0.3582  0.5678  0.3952
    6MOL   C413 2823   2.726   1.746   2.245  0.3554  0.4088 -0.6340
    6MOL   C414 2824   2.767   1.600   2.253  0.6556  0.0951  0.5892
    6MOL   O415 2825   2.679   1.533   2.340 -0.0707 -0.2326 -0.2860
    6MOL   C416 2826   2.662   1.408   2.322 -0.3352  0.7441 -0.1122
    6MOL   O417 2827   2.713   1.338   2.237  0.3712 -0.3289 -0.2743
    6MOL   C418 2828   2.575   1.351   2.433  0.2221 -0.5477  0.9426
    6MOL   C419 2829   2.429   1.341   2.381 -0.2589 -0.2517 -1.0111
    6MOL   C420 2830   2.325   1.412   2.460 -0.4490 -0.9466 -0.3125
    6MOL   O421 2831   2.353   1.507   2.533  0.1110 -0.3716  0.0563
    6MOL   H422 2832   2.672   1.989   2.316  0.8233  0.0254 -2.2190
    6MOL   H423 2833   2.840   2.001   2.289 -1.6809  2.7204 -0.3422
    6MOL   H424 2834   2.687   1.795   2.464  0.9407  2.7475  2.1320
    6MOL   H425 2835   2.854   1.781   2.419  0.0865 -0.3082 -1.5282
    6MOL   H426 2836   2.768   1.794   2.156 -0.4586  0.6955 -0.8716
    6MOL   H427 2837   2.618   1.745   2.228  0.3673 -0.3067 -0.7077
    6MOL   H428 2838   2.754   1.564   2.151 -1.4112  0.2182  0.7929
    6MOL   H429 2839   2.869   1.580   2.286  0.5454  1.6369  1.9338
    6MOL   H430 2840   2.572   1.417   2.519 -1.9869  1.1474 -0.3741
    6MOL   H431 2841   2.619   1.256   2.466  0.2827 -0.5735  0.7871
    6MOL   H432 2842   2.435   1.359   2.274  2.5549  0.9869 -0.6885
    6MOL   H433 2843   2.402   1.236   2.365 -1.6300 -0.1782  0.6627
    6MOL   O434 2844   2.193   1.364   2.449 -0.5349  0.1514  0.2505
    6MOL   C435 2845   2.098   1.404   2.545 -0.0077  0.0506  0.0817
    6MOL   C436 2846   2.088   1.307   2.666 -0.0507 -0.0334  0.1050
    6MOL   C437 2847   2.206   1.326   2.758 -0.0833  0.5187  0.4508
    6MOL   C438 2848   2.178   1.254   2.898  0.3579 -0.1360  0.4376
    6MOL   O439 2849   2.188   1.111   2.872 -0.4601 -1.0495 -0.6197
    6MOL   C440 2850   2.165   1.025   2.970  0.5867  0.2454  0.9356
    6MOL   O441 2851   2.117   1.058   3.079 -0.4405  0.4036 -0.3223
    6MOL   C442 2852   2.191   0.883   2.932  0.0833  0.2408  0.0222
    6MOL   C443 2853   2.324   0.861   2.858  0.7163  0.8788 -0.1599
    6MOL   C444 2854   2.306   0.845   2.707  0.8312 -0.1793 -0.5098
    6MOL   O445 2855   2.355   0.920   2.627  0.2959  0.6709 -0.5711
    6MOL   H446 2856   2.105   1.509   2.575  2.0084 -0.3260  1.0268
    6MOL   H447 2857   2.003   1.411   2.493  0.0329  3.0218  0.2983
    6MOL   H448 2858   2.062   1.201   2.653  0.2631 -0.2876  1.4467
    6MOL   H449 2859   2.003   1.348   2.721  1.5040  1.1988  1.6649
    6MOL   H450 2860   2.227   1.430   2.782 -1.4690  0.3782  2.3924
    6MOL   H451 2861   2.301   1.284   2.726  0.4090  3.2017 -1.7169
    6MOL   H452 2862   2.246   1.286   2.977  0.6891  0.7833 -0.2135
    6MOL   H453 2863   2.077   1.279   2.930  0.1346  1.8952 -1.6813
    6MOL   H454 2864   2.102   0.849   2.879 -1.2233 -0.0700  2.3439
    6MOL   H455 2865   2.194   0.827   3.025  1.3492  2.0323  1.0985
    6MOL   H456 2866   2.396   0.938   2.886  1.3764  0.2441 -0.1038
    6MOL   H457 2867   2.357   0.762   2.888 -1.0469  0.1088 -0.7120
    6MOL   O458 2868   2.240   0.736   2.672  0.0656  0.4380  0.4254
    6MOL   C459 2869   2.217   0.710   2.532  0.2938 -0.4726  0.3188
    6MOL   C460 2870   2.212   0.561   2.499  0.0328 -0.1977 -0.6532
    6MOL   C461 2871   2.334   0.495   2.562  0.3353  0.2065  1.0239
    6MOL   C462 2872   2.351   0.354   2.510 -0.1348  0.3787 -0.3989
    6MOL   O463 2873   2.492   0.323   2.541  0.3795  0.3988  0.0466
    6MOL   C464 2874   2.529   0.251   2.653 -0.0713  0.6822  0.2489
    6MOL   O465 2875   2.450   0.220   2.742  0.1185  0.4127 -0.1562
    6MOL   C466 2876   2.679   0.218   2.652  0.3495  0.5123 -0.0054
    6MOL   C467 2877   2.727   0.118   2.546  0.0220  0.5384  0.0740
    6MOL   C468 2878   2.862   0.156   2.486 -0.6823 -0.0752  0.4706
    6MOL   O469 2879   2.913   0.271   2.493  0.3908  0.0989 -0.0423
    6MOL   H470 2880   2.129   0.752   2.485  0.6644  0.8069  0.7496
    6MOL   H471 2881   2.294   0.754   2.468  0.3649 -1.3476 -0.2148
    6MOL   H472 2882   2.219   0.564   2.391  0.2484  3.4786 -0.6301
    6MOL   H473 2883   2.114   0.529   2.536  0.6514 -0.0717  1.1697
    6MOL   H474 2884   2.324   0.485   2.670 -0.7584  1.3751  1.0327
    6MOL   H475 2885   2.426   0.548   2.537 -0.3018  1.0638  0.4938
    6MOL   H476 2886   2.280   0.279   2.544  0.2485  0.2037  0.0179
    6MOL   H477 2887   2.345   0.359   2.402 -1.6253 -1.9070 -0.4477
    6MOL   H478 2888   2.709   0.181   2.750 -1.3639 -3.1716 -0.7747
    6MOL   H479 2889   2.727   0.315   2.640 -2.7980  2.0820 -0.5882
    6MOL   H480 2890   2.729   0.011   2.565  1.7125  0.7315  1.0270
    6MOL   H481 2891   2.653   0.113   2.466 -0.3956 -2.0595  0.5770
    6MOL   H482 2892   2.902   0.080   2.418 -1.2839  2.0043 -2.2941
    7MOL     O1 2893   3.771   6.437   0.619  0.2987  0.6034  0.7175
    7MOL     C2 2894   3.715   6.555   0.590  1.0469 -0.1802 -0.2317
    7MOL     C3 2895   3.564   6.523   0.559  0.9930 -0.5603  0.4972
    7MOL     C4 2896   3.470   6.641   0.542 -0.7740 -0.0601 -0.8317
    7MOL     C5 2897   3.319   6.592   0.527  0.2405  0.5246  0.3588
    7MOL     O6 2898   3.248   6.713   0.534 -0.1594 -0.4287  0.0597
    7MOL     C7 2899   3.127   6.723   0.488  0.6369 -0.2785  0.0444
    7MOL     O8 2900   3.065   6.634   0.431  0.4684  0.2395 -0.0703
    7MOL     C9 2901   3.069   6.863   0.499  0.4348  0.5010 -0.2633
    7MOL    C10 2902   2.916   6.858   0.516  0.4649 -0.1896  0.2815
    7MOL    C11 2903   2.834   6.929   0.405  0.0120  0.1482  0.4936
    7MOL    O12 2904   2.760   7.024   0.433 -0.0395  0.0662 -0.4701
    7MOL    H13 2905   3.716   6.622   0.676 -0.8176  1.0543 -1.1360
    7MOL    H14 2906   3.767   6.606   0.508 -0.5812  2.6839  0.4298
    7MOL    H15 2907   3.531   6.464   0.645  1.9814 -1.3964  0.3258
    7MOL    H16 2908   3.553   6.445   0.484  2.8937  0.1509 -0.5566
    7MOL    H17 2909   3.513   6.712   0.471 -0.0312  0.3364  0.0113
    7MOL    H18 2910   3.470   6.678   0.644  0.6153  0.4889 -1.0079
    7MOL    H19 2911   3.314   6.544   0.430 -2.8901  3.4664 -1.0466
    7MOL    H20 2912   3.281   6.530   0.609 -1.0920 -1.1440 -1.4901
    7MOL    H21 2913   3.094   6.926   0.413  2.5562 -0.1117 -0.1258
    7MOL    H22 2914   3.115   6.913   0.584 -2.8741  1.7811  0.8502
    7MOL    H23 2915   2.875   6.758   0.527  0.7978 -0.3807 -0.2093
    7MOL    H24 2916   2.876   6.908   0.605  0.3035 -2.2772  1.4079
    7MOL    H25 2917   3.771   6.447   0.713 -2.4807 -0.7955  0.9182
    7MOL    O26 2918   2.866   6.895   0.277 -0.7074  0.0200 -0.2693
    7MOL    C27 2919   2.814   6.967   0.166  0.3356  0.6580  0.5930
    7MOL    C28 2920   2.860   6.903   0.031 -0.7413  0.8413  0.5425
    7MOL    C29 2921   3.013   6.897   0.024  0.5688  0.0251 -0.6019
    7MOL    C30 2922   3.090   7.026   0.061  0.0861  0.1861 -0.4153
    7MOL    O31 2923   3.058   7.120   7.834 -0.2587  0.8951  0.4354
    7MOL    C32 2924   3.108   7.242   7.833  0.8004  0.0626 -0.1838
    7MOL    O33 2925   3.188   7.287   0.036  0.5356  0.2042  0.2582
    7MOL    C34 2926   3.069   7.330   7.716 -0.7655 -0.4317  0.4444
    7MOL    C35 2927   3.167   7.317   7.598 -0.5766 -0.0767 -0.1727
    7MOL    C36 2928   3.201   7.445   7.521  0.1077 -0.2039  0.2417
    7MOL    O37 2929   3.196   7.442   7.397 -0.1378 -0.0146 -0.3644
    7MOL    H38 2930   2.706   6.956   0.167  0.3777  0.1378 -0.3352
    7MOL    H39 2931   2.841   7.073   0.167 -0.7636  0.9790 -1.1021
    7MOL    H40 2932   2.809   6.955   7.824 -0.1072 -0.6528 -0.8386
    7MOL    H41 2933   2.817   6.803   0.019  1.6284 -0.2844  1.1925
    7MOL    H42 2934   3.048   6.848   7.808  2.1479 -2.4405  1.2651
    7MOL    H43 2935   3.052   6.824   0.095  1.6015 -0.0096 -1.2029
    7MOL    H44 2936   3.061   7.069   0.157 -0.8236  0.4418 -0.7961
    7MOL    H45 2937   3.196   7.002   0.056  0.4040  1.6450 -1.0877
    7MOL    H46 2938   3.050   7.435   7.735  1.4329  0.5385 -2.3957
    7MOL    H47 2939   2.972   7.299   7.676  0.2002 -1.9404 -0.8069
    7MOL    H48 2940   3.263   7.268   7.617 -1.1425 -1.8356 -1.7752
    7MOL    H49 2941   3.123   7.242   7.533  0.9143 -0.4322 -0.8010
    7MOL    O50 2942   3.222   7.546   7.601 -0.5210 -0.3479 -0.3694
    7MOL    C51 2943   3.242   7.678   7.552  0.2605  0.1791 -0.6663
    7MOL    C52 2944   3.355   7.757   7.609 -1.4322 -0.0682  0.6782
    7MOL    C53 2945   3.359   7.772   7.765  0.4227 -0.3016  0.3921
    7MOL    C54 2946   3.479   7.850   7.813  0.4354 -0.1335 -0.0784
    7MOL    O55 2947   3.461   0.108   7.766  0.0998  0.0383  0.0230
    7MOL    C56 2948   3.564   0.191   7.774 -0.7488  0.4118 -0.0953
    7MOL    O57 2949   3.685   0.161   7.788 -0.5984  0.3705 -0.5822
    7MOL    C58 2950   3.529   0.333   7.739 -0.5915  0.3218 -1.2100
    7MOL    C59 2951   3.644   0.426   7.704 -0.4979 -0.2745  0.0902
    7MOL    C60 2952   3.620   0.525   7.585  0.3963 -0.6568  0.2908
    7MOL    O61 2953   3.653   0.489   7.473  0.4679  0.7072 -0.3316
    7MOL    H62 2954   3.269   7.679   7.447  0.7418 -0.6261 -0.5520
    7MOL    H63 2955   3.152   7.739   7.564 -0.4650 -1.4937  2.9889
    7MOL    H64 2956   3.364   7.855   7.561  1.2721 -0.1038  1.0301
    7MOL    H65 2957   3.446   7.699   7.595 -0.8909  1.1340 -1.0434
    7MOL    H66 2958   3.383   7.675   7.808  1.8430  0.3561  1.1143
    7MOL    H67 2959   3.270   7.820   7.807 -0.2089  0.7379 -2.0075
    7MOL    H68 2960   3.478   7.858   0.047 -3.4536  2.6055 -0.2091
    7MOL    H69 2961   3.569   7.809   7.767  0.3188  2.0114 -2.3440
    7MOL    H70 2962   3.483   0.380   7.826 -1.3414 -0.5195 -1.1430
    7MOL    H71 2963   3.446   0.333   7.669 -0.8118  0.9391 -0.9489
    7MOL    H72 2964   3.663   0.490   7.790  0.4744 -1.3385  0.6940
    7MOL    H73 2965   3.731   0.365   7.677 -0.6391 -0.5127  0.1796
    7MOL    O74 2966   3.544   0.638   7.620  0.3611  0.2407  0.5665
    7MOL    C75 2967   3.507   0.725   7.514  0.0802 -0.3449 -0.4538
    7MOL    C76 2968   3.469   0.859   7.577 -0.5531 -0.7999  0.1454
    7MOL    C77 2969   3.587   0.914   7.648  0.5979 -1.0323 -0.3359
    7MOL    C78 2970   3.569   1.062   7.690 -0.0484 -0.1691  0.4435
    7MOL    O79 2971   3.675   1.112   7.767  0.4963  0.3392 -0.0350
    7MOL    C80 2972   3.685   1.078   0.019  0.3260  0.5456  0.0420
    7MOL    O81 2973   3.617   0.986   0.068  0.0971 -0.0755  0.1902
    7MOL    C82 2974   3.787   1.155   0.097 -0.3646  0.0153 -0.5659
    7MOL    C83 2975   3.748   1.305   0.109  0.1593  0.3516 -0.4055
    7MOL    C84 2976   3.852   1.394   0.044  0.6949  0.2107  1.0789
    7MOL    O85 2977   3.946   1.443   0.110  0.8247 -0.3067 -0.4187
    7MOL    H86 2978   3.585   0.737   7.438  2.0905 -2.3160  1.1935
    7MOL    H87 2979   3.421   0.681   7.464  1.0672 -1.7278 -0.9946
    7MOL    H88 2980   3.379   0.844   7.637  0.7792  1.6042  2.9092
    7MOL    H89 2981   3.448   0.924   7.492  0.1448 -1.4575 -0.5318
    7MOL    H90 2982   3.679   0.900   7.591  1.7565 -1.7229  1.6485
    7MOL    H91 2983   3.604   0.852   7.736  2.3522 -0.2496 -0.1071
    7MOL    H92 2984   3.568   1.127   7.602  1.1236 -1.3271 -0.4545
    7MOL    H93 2985   3.473   1.069   7.740 -1.9000 -1.4974 -2.7395
    7MOL    H94 2986   3.883   1.129   0.052  1.7775  4.4737  1.0848
    7MOL    H95 2987   3.791   1.113   0.197 -1.7339 -0.2552 -0.6204
    7MOL    H96 2988   3.647   1.324   0.074 -0.2767  1.2922  1.2649
    7MOL    H97 2989   3.756   1.335   0.214 -0.1408 -3.0796  0.6782
    7MOL    O98 2990   3.847   1.387   7.789  0.1416 -0.6601 -0.1204
    7MOL    C99 2991   3.941   1.465   7.716 -0.3743  0.8034 -0.2858
    7MOL   C100 2992   3.896   1.437   7.571  0.0025  0.5355  0.5398
    7MOL   C101 2993   3.780   1.534   7.523  0.6245 -0.4286 -0.7504
    7MOL   C102 2994   3.647   1.526   7.600  0.0279  0.3062 -0.7260
    7MOL   O103 2995   3.563   1.423   7.543  0.4444  0.1797  0.0043
    7MOL   C104 2996   3.430   1.443   7.538  0.4412 -0.3688 -0.4381
    7MOL   O105 2997   3.370   1.549   7.549 -0.1092 -0.1896  0.8630
    7MOL   C106 2998   3.353   1.330   7.477 -0.3535  0.0180 -0.0763
    7MOL   C107 2999   3.391   1.305   7.331 -0.4901 -0.3969  0.4271
    7MOL   C108 3000   3.471   1.170   7.318  0.0873  0.0542 -0.0510
    7MOL   O109 3001   3.410   1.071   7.281  0.4174 -0.0476  0.4397
    7MOL   H110 3002   3.941   1.569   7.749  2.1338  0.4150  1.1117
    7MOL   H111 3003   4.045   1.431   7.721  0.4951  3.3626  0.1002
    7MOL   H112 3004   3.868   1.333   7.558 -1.3788  0.7897  1.4181
    7MOL   H113 3005   3.987   1.467   7.518 -0.1584  1.8010  0.9531
    7MOL   H114 3006   3.777   1.521   7.415  2.2322 -1.7549 -0.6476
    7MOL   H115 3007   3.805   1.640   7.527  1.8512 -0.7292 -0.2382
    7MOL   H116 3008   3.661   1.499   7.705 -1.7647 -0.2100 -0.6008
    7MOL   H117 3009   3.606   1.627   7.590  0.9280  0.6731 -0.8276
    7MOL   H118 3010   3.252   1.370   7.474 -0.0617  0.8002  0.5084
    7MOL   H119 3011   3.364   1.244   7.542 -1.3567  0.0341  0.1160
    7MOL   H120 3012   3.306   1.294   7.263 -1.8517  2.0098  1.6583
    7MOL   H121 3013   3.454   1.387   7.297  1.3674 -2.2910 -0.8257
    7MOL   O122 3014   3.596   1.173   7.368  0.2685 -0.7978  0.4469
    7MOL   C123 3015   3.691   1.070   7.340  0.3721 -0.3773 -0.4627
    7MOL   C124 3016   3.826   1.088   7.416  0.0315 -0.3785 -0.0594
    7MOL   C125 3017   3.916   0.960   7.405 -0.0488 -0.5916 -0.2889
    7MOL   C126 3018   4.012   0.940   7.522  0.1542 -0.2219 -0.7094
    7MOL   O127 3019   3.952   0.870   7.636  0.1368  0.3869  0.4633
    7MOL   C128 3020   3.940   0.737   7.637 -0.4976 -0.4379 -0.1790
    7MOL   O129 3021   3.975   0.659   7.546  0.2810  0.1570  0.1031
    7MOL   C130 3022   3.889   0.681   7.767  0.0516  0.4169 -0.1059
    7MOL   C131 3023   3.982   0.698   0.016 -0.4755 -0.2512  0.3650
    7MOL   C132 3024   3.984   0.581   0.112 -0.6477  0.3548 -0.4827
    7MOL   O133 3025   3.886   0.515   0.132 -0.1351  0.3417 -0.6690
    7MOL   H134 3026   3.628   0.983   7.361  2.9839 -1.7240  2.1107
    7MOL   H135 3027   3.693   1.066   7.231 -0.9925  1.4802 -0.5836
    7MOL   H136 3028   3.798   1.100   7.521 -0.0645 -1.0671 -0.0049
    7MOL   H137 3029   3.872   1.178   7.376 -0.0089 -0.2216  0.2418
    7MOL   H138 3030   3.974   0.978   7.315  0.5558  1.2164  0.4372
    7MOL   H139 3031   3.857   0.872   7.380 -2.5366  0.2854  2.1186
    7MOL   H140 3032   4.100   0.886   7.489  0.1972 -2.0256  2.1796
    7MOL   H141 3033   4.045   1.038   7.556  0.7802  0.1177 -2.2911
    7MOL   H142 3034   3.857   0.577   7.757 -0.8105  0.5999  0.6910
    7MOL   H143 3035   3.796   0.737   7.780  0.4289  1.0157  0.0332
    7MOL   H144 3036   4.086   0.703   7.860  0.0834 -1.5231  1.9597
    7MOL   H145 3037   3.966   0.785   0.079  0.6930  0.7104 -0.6579
    7MOL   O146 3038   4.106   0.560   0.172 -0.1224  0.6422  0.3846
    7MOL   C147 3039   4.113   0.477   0.290 -0.4333 -0.2521  0.0599
    7MOL   C148 3040   4.165   0.339   0.256  0.4449  0.0641  0.0944
    7MOL   C149 3041   4.215   0.271   0.382 -0.7896 -0.0043  1.0299
    7MOL   C150 3042   4.233   0.122   0.355  0.1963 -0.2433 -0.6866
    7MOL   O151 3043   4.339   0.104   0.257  0.1648 -0.3056  0.0849
    7MOL   C152 3044   4.461   0.071   0.301 -0.0248 -0.4380  0.0378
    7MOL   O153 3045   4.498   0.055   0.412 -0.1874  0.0719  0.0759
    7MOL   C154 3046   4.555   0.049   0.182 -0.0870  0.1573  0.2591
    7MOL   C155 3047   4.590   0.185   0.126  0.7194 -0.0646  0.7942
    7MOL   C156 3048   4.552   0.215   7.860 -0.4605  0.3826 -0.3286
    7MOL   O157 3049   4.508   0.130   7.779  0.1804 -0.1397  0.6935
    7MOL   H158 3050   4.179   0.529   0.359 -0.0410 -1.4640  0.6218
    7MOL   H159 3051   4.024   0.455   0.349 -0.3082 -0.6148  0.1180
    7MOL   H160 3052   4.244   0.345   0.182  0.7122  0.6051  0.4225
    7MOL   H161 3053   4.079   0.293   0.207  1.6390 -0.6155 -1.4356
    7MOL   H162 3054   4.134   0.291   0.452 -1.5833 -1.9209  0.6989
    7MOL   H163 3055   4.309   0.308   0.422 -2.0173  3.0817  1.1689
    7MOL   H164 3056   4.259   0.064   0.443  0.2340  0.3884 -0.2795
    7MOL   H165 3057   4.145   0.075   0.310  0.5140 -1.2538 -0.2625
    7MOL   H166 3058   4.516   7.863   0.100  0.3597 -0.0588  0.2050
    7MOL   H167 3059   4.647   0.002   0.218 -0.3813 -1.2872 -0.8119
    7MOL   H168 3060   4.566   0.263   0.199  3.0868  2.3522 -0.9022
    7MOL   H169 3061   4.698   0.183   0.112  0.6883  0.4010  0.4746
    7MOL   O170 3062   4.541   0.343   7.844 -0.1718  0.1690  0.7955
    7MOL   C171 3063   4.468   0.386   7.730 -0.1290  0.4135 -0.2968
    7MOL   C172 3064   4.396   0.523   7.743 -0.5157  0.4544  0.4340
    7MOL   C173 3065   4.298   0.556   7.635  0.0977  1.0916 -0.0099
    7MOL   C174 3066   4.375   0.568   7.496  0.8414  0.8673  0.0323
    7MOL   O175 3067   4.281   0.533   7.393 -0.3850 -0.3379  0.0557
    7MOL   C176 3068   4.224   0.632   7.313 -0.9946  0.0841 -0.1472
    7MOL   O177 3069   4.235   0.752   7.333  0.5216  0.3431 -0.0460
    7MOL   C178 3070   4.138   0.573   7.205 -0.2655  0.8788 -0.4928
    7MOL   C179 3071   3.994   0.625   7.199 -0.3649 -0.2500  0.5179
    7MOL   C180 3072   3.984   0.727   7.082 -0.4327 -0.0866  0.6198
    7MOL   O181 3073   3.943   0.844   7.097  0.9313  0.2281 -0.5079
    7MOL   H182 3074   4.538   0.382   7.646  0.9682 -0.2332  0.6281
    7MOL   H183 3075   4.392   0.311   7.710  0.8741 -0.8107  0.3806
    7MOL   H184 3076   4.468   0.604   7.748 -3.0075  2.7073  0.6617
    7MOL   H185 3077   4.343   0.527   7.838 -1.0417 -0.7029  0.1989
    7MOL   H186 3078   4.229   0.639   7.646 -1.5156 -0.1292 -0.7438
    7MOL   H187 3079   4.219   0.481   7.630  1.0614  0.0235  0.5203
    7MOL   H188 3080   4.424   0.665   7.484  2.4681  0.0495 -0.0855
    7MOL   H189 3081   4.462   0.504   7.483 -0.5115 -1.1452  0.7594
    7MOL   H190 3082   4.126   0.466   7.224 -0.0191  0.3702 -3.0375
    7MOL   H191 3083   4.184   0.592   7.108 -3.3575 -0.3001 -2.2633
    7MOL   H192 3084   3.925   0.541   7.194 -1.6790  0.8520 -0.3046
    7MOL   H193 3085   3.962   0.665   7.295 -2.1633 -2.6514  0.9698
    7MOL   O194 3086   4.027   0.674   6.964  0.2416 -0.7147 -0.1020
    7MOL   C195 3087   4.012   0.751   6.848 -0.6205 -0.5644  0.5444
    7MOL   C196 3088   3.874   0.743   6.784 -0.1549 -0.0988  0.2691
    7MOL   C197 3089   3.843   0.619   6.700  0.2300 -0.2266  0.0895
    7MOL   C198 3090   3.946   0.572   6.600  0.8955  0.4261 -0.4690
    7MOL   O199 3091   3.968   0.664   6.495 -0.1836  0.0789 -0.6701
    7MOL   C200 3092   3.904   0.644   6.378 -0.3938  0.4184 -0.1948
    7MOL   O201 3093   3.839   0.545   6.349  0.2866 -0.8788 -0.0401
    7MOL   C202 3094   3.936   0.754   6.278 -0.1425  0.0041 -0.1614
    7MOL   C203 3095   3.995   0.701   6.141 -0.0851  0.0939  0.0573
    7MOL   C204 3096   4.145   0.706   6.136 -0.0655  0.3744 -0.7299
    7MOL   O205 3097   4.208   0.783   6.068 -0.3536 -0.1049  0.0293
    7MOL   H206 3098   4.032   0.856   6.864 -0.2523 -0.4769 -0.4871
    7MOL   H207 3099   4.081   0.695   6.785 -0.6066  0.1957 -0.1105
    7MOL   H208 3100   3.863   0.830   6.718 -0.2700  0.0214  0.4456
    7MOL   H209 3101   3.795   0.759   6.857 -2.0207 -1.4952 -1.3795
    7MOL   H210 3102   3.742   0.624   6.659  0.3384  0.4800 -0.0979
    7MOL   H211 3103   3.817   0.536   6.766 -0.1831 -0.0141  0.1968
    7MOL   H212 3104   4.036   0.554   6.660 -0.4694 -1.9695  0.9459
    7MOL   H213 3105   3.916   0.477   6.557 -1.4181  0.3774  1.1733
    7MOL   H214 3106   3.990   0.835   6.328 -2.0485  0.0417  1.9041
    7MOL   H215 3107   3.840   0.796   6.247 -0.2056 -0.7162 -0.9495
    7MOL   H216 3108   3.964   0.601   6.112  1.5257  0.1293 -1.9259
    7MOL   H217 3109   3.963   0.768   6.061 -1.4820 -0.3652  0.2182
    7MOL   O218 3110   4.204   0.598   6.191  0.3711 -0.5190 -0.3231
    7MOL   C219 3111   4.341   0.568   6.165 -0.0976 -0.1180  0.0238
    7MOL   C220 3112   4.334   0.497   6.031 -0.2316 -0.1969  0.2433
    7MOL   C221 3113   4.476   0.453   5.979  0.0550 -0.2538  0.4174
    7MOL   C222 3114   4.462   0.350   5.856 -0.4317  0.8533 -0.3725
    7MOL   O223 3115   4.371   0.391   5.761  0.5975 -0.2036 -0.3968
    7MOL   C224 3116   4.410   0.465   5.656 -0.0608  0.2338 -0.1912
    7MOL   O225 3117   4.527   0.507   5.640  0.5478 -0.5122  0.5235
    7MOL   C226 3118   4.300   0.489   5.555 -0.7198 -0.8344  0.6504
    7MOL   C227 3119   4.339   0.548   5.415 -0.0116  0.5209  0.2756
    7MOL   C228 3120   4.247   0.660   5.366 -0.2325 -0.3440  0.3227
    7MOL   O229 3121   4.141   0.629   5.306  0.1643  0.0920  0.5269
    7MOL   H230 3122   4.399   0.660   6.160 -1.6726  0.9282  0.6047
    7MOL   H231 3123   4.385   0.503   6.241 -0.5854  0.0597  0.4619
    7MOL   H232 3124   4.278   0.549   5.953 -0.6948 -0.5288  0.3503
    7MOL   H233 3125   4.274   0.407   6.046  0.4256 -0.3509  1.9887
    7MOL   H234 3126   4.523   0.387   6.051  1.8422  2.1091  1.4769
    7MOL   H235 3127   4.552   0.530   5.966  1.2873 -1.7510 -1.4351
    7MOL   H236 3128   4.562   0.321   5.824 -0.3065 -0.8700  1.4852
    7MOL   H237 3129   4.420   0.255   5.890 -0.4261  0.1907 -2.1455
    7MOL   H238 3130   4.226   0.555   5.600 -0.0320  1.3584 -1.3490
    7MOL   H239 3131   4.242   0.397   5.539 -0.3743 -0.7096 -1.5225
    7MOL   H240 3132   4.445   0.572   5.426  0.7667 -2.4189 -0.4311
    7MOL   H241 3133   4.340   0.471   5.339  0.2816 -1.7234  2.4894
    7MOL   O242 3134   4.287   0.784   5.393  0.3633 -0.0244 -0.1766
    7MOL   C243 3135   4.221   0.891   5.340 -0.3627  0.3058  0.2877
    7MOL   C244 3136   4.289   1.031   5.378  0.8259  0.5231 -0.6789
    7MOL   C245 3137   4.427   1.061   5.314 -0.0069 -0.6224  0.7738
    7MOL   C246 3138   4.492   1.180   5.387 -0.0118 -0.6120 -0.9108
    7MOL   O247 3139   4.531   1.140   5.516  0.6204  0.4892 -0.0788
    7MOL   C248 3140   4.664   1.138   5.549 -0.5654  0.1476 -0.3305
    7MOL   O249 3141   4.752   1.177   5.471 -0.5137 -0.4583 -0.3203
    7MOL   C250 3142   4.688   1.094   5.693  0.0645  0.2010 -0.0216
    7MOL   C251 3143   4.821   1.139   5.750 -0.4235 -0.1069  0.0968
    7MOL   C252 3144   4.836   1.062   5.878 -0.0890 -1.0828  0.4763
    7MOL   O253 3145   4.913   0.969   5.880 -0.4768 -0.4769  0.1567
    7MOL   H254 3146   4.206   0.884   5.232  1.0333  1.4768 -0.0019
    7MOL   H255 3147   4.121   0.896   5.384  0.1510  0.0637  1.5066
    7MOL   H256 3148   4.295   1.035   5.487 -0.1334 -0.5398 -0.5785
    7MOL   H257 3149   4.217   1.107   5.348  0.8778  1.1805  0.8155
    7MOL   H258 3150   4.413   1.094   5.211  0.7300  1.1143  1.2234
    7MOL   H259 3151   4.496   0.977   5.322 -0.0009 -0.4443  2.6930
    7MOL   H260 3152   4.570   1.212   5.318 -0.4400  0.4763 -0.8933
    7MOL   H261 3153   4.427   1.267   5.393  1.2519  0.3505 -0.7181
    7MOL   H262 3154   4.677   0.986   5.701  0.8420  0.1298  0.1292
    7MOL   H263 3155   4.613   1.133   5.763  0.7258 -0.8226  1.2951
    7MOL   H264 3156   4.893   1.120   5.671 -0.6076  0.3570 -0.1829
    7MOL   H265 3157   4.815   1.245   5.772  2.2277  0.0614  0.1605
    7MOL   O266 3158   4.753   1.098   5.972 -0.7317 -0.4950 -0.8927
    7MOL   C267 3159   4.750   1.023   6.094 -0.0371  0.1158 -0.7426
    7MOL   C268 3160   4.645   1.068   6.192 -0.0853  0.0477  0.3162
    7MOL   C269 3161   4.497   1.055   6.157  0.2120 -0.0224  1.0210
    7MOL   C270 3162   4.418   1.069   6.286 -0.1311  0.3411 -0.8421
    7MOL   O271 3163   4.436   0.952   6.370 -0.4947  0.1680  0.0971
    7MOL   C272 3164   4.451   0.960   6.506 -0.1871  0.3325  0.3032
    7MOL   O273 3165   4.478   1.064   6.556 -0.2173 -0.2006  0.3768
    7MOL   C274 3166   4.421   0.843   6.596  0.2608  0.8676  0.2622
    7MOL   C275 3167   4.315   0.749   6.537 -0.3131  0.4160 -0.4254
    7MOL   C276 3168   4.308   0.609   6.600 -0.1870  0.2006  0.3661
    7MOL   O277 3169   4.300   0.511   6.527 -0.4042  0.2304 -0.1091
    7MOL   H278 3170   4.727   0.919   6.070 -0.4680 -0.3003  1.2987
    7MOL   H279 3171   4.851   1.026   6.136 -0.4548  1.2712  0.2034
    7MOL   H280 3172   4.666   1.167   6.233 -1.4036 -0.0984  1.4035
    7MOL   H281 3173   4.664   1.008   6.282 -2.3900 -1.2213  0.0075
    7MOL   H282 3174   4.489   0.954   6.117  0.7904 -0.3337  1.6752
    7MOL   H283 3175   4.476   1.122   6.074  1.3991 -0.8968 -0.0055
    7MOL   H284 3176   4.456   1.164   6.324 -1.3012  0.4354  0.1321
    7MOL   H285 3177   4.310   1.085   6.276  0.1075  2.0799 -0.7278
    7MOL   H286 3178   4.406   0.871   6.701  0.2459 -1.0346  0.7871
    7MOL   H287 3179   4.514   0.787   6.596  1.2634  2.4403  2.2126
    7MOL   H288 3180   4.211   0.781   6.544  0.4053  2.6680  0.3345
    7MOL   H289 3181   4.324   0.741   6.428  0.4511 -2.4383 -0.1877
    7MOL   O290 3182   4.316   0.601   6.735  0.8122  0.1175  0.1334
    7MOL   C291 3183   4.331   0.476   6.806  0.6799  0.2803  0.2988
    7MOL   C292 3184   4.211   0.385   6.841  0.3929 -0.1494  0.5167
    7MOL   C293 3185   4.238   0.288   6.954  0.3316  0.3212 -0.6810
    7MOL   C294 3186   4.128   0.186   6.979 -0.2751 -0.0274  0.2630
    7MOL   O295 3187   4.013   0.262   7.031 -0.2510  0.6143 -0.3874
    7MOL   C296 3188   3.894   0.202   7.062  0.1470  0.4122 -0.9924
    7MOL   O297 3189   3.877   0.080   7.062 -0.0808  0.3342  0.0265
    7MOL   C298 3190   3.775   0.295   7.079  0.0082 -0.4746 -0.2018
    7MOL   C299 3191   3.654   0.223   7.019 -0.2124 -0.1544 -0.8227
    7MOL   C300 3192   3.524   0.301   7.029 -0.0011 -0.2175  0.0487
    7MOL   O301 3193   3.479   0.387   6.948  0.6532 -0.2310  0.4116
    7MOL   H302 3194   4.409   0.422   6.752 -2.1983 -1.5392 -2.2056
    7MOL   H303 3195   4.376   0.500   6.903  1.8614 -1.7451  0.2696
    7MOL   H304 3196   4.176   0.325   6.756 -3.3627  0.0385  1.8059
    7MOL   H305 3197   4.135   0.460   6.864 -0.5371 -0.8949 -0.0676
    7MOL   H306 3198   4.250   0.338   7.050  0.3890 -1.5268  0.3112
    7MOL   H307 3199   4.326   0.233   6.921  0.5621 -0.7248  1.5667
    7MOL   H308 3200   4.104   0.140   6.884 -0.6271  0.7924 -0.0583
    7MOL   H309 3201   4.149   0.102   7.045 -0.9421 -2.0733 -2.0666
    7MOL   H310 3202   3.793   0.386   7.023 -0.2127 -1.2231 -1.5139
    7MOL   H311 3203   3.751   0.318   7.182  2.9472 -1.2261  0.7072
    7MOL   H312 3204   3.678   0.195   6.916  0.4481  1.1608 -1.0434
    7MOL   H313 3205   3.638   0.126   7.066  2.0809  0.3357  1.0411
    7MOL   O314 3206   3.460   0.287   7.144 -0.6127 -0.5476 -0.1829
    7MOL   C315 3207   3.354   0.376   7.181  0.1397  0.2645 -0.0384
    7MOL   C316 3208   3.314   0.367   7.333 -0.4959  0.8254  0.2167
    7MOL   C317 3209   3.278   0.224   7.380  0.0504 -0.0617 -0.2424
    7MOL   C318 3210   3.157   0.211   7.474  0.0204  0.3837 -0.8192
    7MOL   O319 3211   3.182   0.266   7.601  0.6337  0.5450  0.1480
    7MOL   C320 3212   3.150   0.200   7.718 -0.0533 -0.0042 -0.4709
    7MOL   O321 3213   3.089   0.094   7.721 -0.0002 -0.2841  0.1557
    7MOL   C322 3214   3.195   0.272   7.842  0.6088  0.1481  0.0699
    7MOL   C323 3215   3.195   0.175   0.087  0.1571 -0.0715  0.5463
    7MOL   C324 3216   3.262   0.251   0.201 -0.0206  0.3037  0.1135
    7MOL   O325 3217   3.224   0.361   0.227 -0.4128 -0.6278 -0.6472
    7MOL   H326 3218   3.394   0.474   7.155 -0.2741  0.2655 -0.6752
    7MOL   H327 3219   3.266   0.370   7.117  0.9424  2.8877 -1.4641
    7MOL   H328 3220   3.225   0.428   7.354 -2.6100 -1.7644 -0.8886
    7MOL   H329 3221   3.390   0.422   7.389  0.5397  0.6595 -1.0060
    7MOL   H330 3222   3.360   0.185   7.439  0.2414  1.5298  0.5846
    7MOL   H331 3223   3.257   0.161   7.294 -0.9604 -0.6199  0.3954
    7MOL   H332 3224   3.072   0.263   7.431 -0.6295  0.0834  0.1080
    7MOL   H333 3225   3.112   0.113   7.478 -0.1021  0.2161 -4.1966
    7MOL   H334 3226   3.118   0.343   7.873  0.1926 -1.0057  1.7684
    7MOL   H335 3227   3.287   0.327   7.827  1.5648 -0.9062  1.8203
    7MOL   H336 3228   3.094   0.162   0.126  0.4441  1.1334  1.7315
    7MOL   H337 3229   3.257   0.086   0.081  0.7460  0.4099 -0.6860
    7MOL   O338 3230   3.374   0.185   0.248 -0.2168 -0.0459 -0.5519
    7MOL   C339 3231   3.454   0.239   0.352 -0.3038  0.6215 -0.2306
    7MOL   C340 3232   3.565   0.320   0.287  0.5781 -0.4711 -0.8500
    7MOL   C341 3233   3.681   0.240   0.235  0.5826  0.3161  0.5395
    7MOL   C342 3234   3.798   0.218   0.330  0.0704  0.2830 -0.2980
    7MOL   O343 3235   3.760   0.136   0.444 -0.4700 -0.0319 -0.1136
    7MOL   C344 3236   3.849   0.089   0.531  0.3361  0.1996  0.1456
    7MOL   O345 3237   3.964   0.121   0.530 -0.1934  0.1790 -0.2431
    7MOL   C346 3238   3.786   0.002   0.635 -0.9981  0.5575 -0.2025
    7MOL   C347 3239   3.878   7.836   0.754  0.3090  0.4131  0.1799
    7MOL   C348 3240   3.883   0.069   0.860 -0.2386 -0.0731  0.0819
    7MOL   O349 3241   3.978   0.141   0.877  0.3323 -0.1362  0.2031
    7MOL   H350 3242   3.393   0.313   0.403 -0.2817  1.5553 -1.5553
    7MOL   H351 3243   3.491   0.158   0.416  0.3259  0.8248 -0.3317
    7MOL   H352 3244   3.607   0.387   0.363  2.3068 -2.1113 -0.3180
    7MOL   H353 3245   3.522   0.379   0.206 -2.0529 -1.0144  0.1239
    7MOL   H354 3246   3.721   0.291   0.147  0.5634  0.0447  0.3721
    7MOL   H355 3247   3.639   0.143   0.208 -0.2830  0.2892  1.9086
    7MOL   H356 3248   3.868   0.156   0.274 -0.2945 -0.0406 -0.3912
    7MOL   H357 3249   3.836   0.319   0.346 -1.5180  0.5057  2.4396
    7MOL   H358 3250   3.745   7.786   0.590 -1.8874 -0.0596  1.7792
    7MOL   H359 3251   3.692   0.050   0.663 -1.4558  1.4447 -3.1021
    7MOL   H360 3252   3.834   7.744   0.793 -0.4058  0.1439 -1.2452
    7MOL   H361 3253   3.984   7.813   0.738 -0.1280 -2.2880  1.0058
    7MOL   O362 3254   3.777   0.063   0.948 -0.3553  0.2347 -0.0753
    7MOL   C363 3255   3.771   0.162   1.056 -0.3449  0.4515 -0.1933
    7MOL   C364 3256   3.736   0.299   0.986  0.0625 -0.0565  0.3479
    7MOL   C365 3257   3.640   0.385   1.071  0.1759  0.0800 -0.6540
    7MOL   C366 3258   3.645   0.531   1.031 -0.0880  0.3164 -0.4849
    7MOL   O367 3259   3.586   0.608   1.134 -0.5720  0.8026 -0.3666
    7MOL   C368 3260   3.450   0.631   1.131 -0.6504 -0.2650  0.1322
    7MOL   O369 3261   3.374   0.570   1.054 -0.0050 -0.7949  0.5820
    7MOL   C370 3262   3.411   0.730   1.226 -0.2540  0.2931  0.0018
    7MOL   C371 3263   3.276   0.704   1.281  0.2599  0.0022 -0.4248
    7MOL   C372 3264   3.231   0.783   1.404 -0.0282 -0.3923  0.8756
    7MOL   O373 3265   3.219   0.711   1.504  0.0374 -0.4845  0.3154
    7MOL   H374 3266   3.700   0.124   1.129 -0.9740  0.9219 -0.5527
    7MOL   H375 3267   3.853   0.167   1.128 -0.8943  0.5169  0.4284
    7MOL   H376 3268   3.680   0.271   0.897 -0.1035 -1.1386  0.7798
    7MOL   H377 3269   3.829   0.355   0.974 -0.4896  1.2304  1.8760
    7MOL   H378 3270   3.662   0.375   1.177 -0.9890 -1.2184 -0.5144
    7MOL   H379 3271   3.538   0.349   1.053  0.7049 -1.9090  0.1935
    7MOL   H380 3272   3.747   0.570   1.028  0.0410  0.0003 -0.1706
    7MOL   H381 3273   3.601   0.552   0.934 -0.3825 -0.3306 -0.4889
    7MOL   H382 3274   3.403   0.832   1.188 -0.8891 -0.0279 -0.7453
    7MOL   H383 3275   3.481   0.741   1.309 -1.1051 -1.4728  0.9771
    7MOL   H384 3276   3.207   0.705   1.197  0.1494 -0.5998 -0.3408
    7MOL   H385 3277   3.270   0.599   1.309 -0.2921 -0.4253 -2.1320
    7MOL   O386 3278   3.230   0.913   1.403  0.4707 -0.1490  0.1288
    7MOL   C387 3279   3.205   0.989   1.524 -0.1033 -0.4280  0.2043
    7MOL   C388 3280   3.073   1.058   1.520  0.3116 -0.8881  0.3491
    7MOL   C389 3281   3.048   1.172   1.622 -0.4419 -0.2135  0.2846
    7MOL   C390 3282   3.006   1.125   1.759 -0.0894  0.5890 -0.5506
    7MOL   O391 3283   2.971   1.244   1.829  0.2872 -0.1665  0.5970
    7MOL   C392 3284   2.984   1.253   1.959 -0.5588  0.0983 -0.4069
    7MOL   O393 3285   3.028   1.167   2.033 -0.9787  0.7866  0.0972
    7MOL   C394 3286   2.939   1.387   2.022  0.1440 -0.0723 -0.6523
    7MOL   C395 3287   3.002   1.517   1.952  0.6509  0.0082  0.2193
    7MOL   C396 3288   3.123   1.560   2.025 -0.4297  0.2479  0.2367
    7MOL   O397 3289   3.125   1.648   2.113  0.2732 -0.2677  0.5361
    7MOL   H398 3290   3.210   0.923   1.610 -1.5422 -1.8935 -0.8189
    7MOL   H399 3291   3.279   1.069   1.533 -2.1000  1.2463  2.4682
    7MOL   H400 3292   2.980   1.002   1.527  0.7068 -2.0872 -2.9575
    7MOL   H401 3293   3.066   1.100   1.419 -0.1020 -1.1971  0.2482
    7MOL   H402 3294   2.970   1.235   1.579  0.0331  0.5553  0.5427
    7MOL   H403 3295   3.133   1.239   1.615  1.9844 -3.0876  1.1628
    7MOL   H404 3296   2.925   1.053   1.751  1.5657 -1.4345  0.2597
    7MOL   H405 3297   3.095   1.087   1.809 -0.0703  3.3106  1.6026
    7MOL   H406 3298   2.972   1.373   2.125  0.2114 -2.3029 -0.9529
    7MOL   H407 3299   2.830   1.379   2.022  0.0762  0.6713  1.0255
    7MOL   H408 3300   3.028   1.496   1.848  1.9841  3.3811 -0.1931
    7MOL   H409 3301   2.940   1.607   1.959  1.3290  0.5773 -0.9442
    7MOL   O410 3302   3.220   1.493   1.969 -0.1202  0.4408 -0.4605
    7MOL   C411 3303   3.352   1.515   2.011 -0.4302 -0.3928 -0.3780
    7MOL   C412 3304   3.421   1.383   2.051 -0.1025 -0.6075  0.2646
    7MOL   C413 3305   3.370   1.332   2.182  0.8875  0.3709  1.0338
    7MOL   C414 3306   3.444   1.207   2.234 -0.0067 -0.7910  0.2741
    7MOL   O415 3307   3.390   1.090   2.171  0.0308  0.4071 -0.0569
    7MOL   C416 3308   3.388   0.966   2.243  0.3938  0.3441 -0.8194
    7MOL   O417 3309   3.417   0.952   2.361  0.0426  0.4739  0.6425
    7MOL   C418 3310   3.354   0.851   2.153 -0.2733  0.1858  0.0335
    7MOL   C419 3311   3.219   0.791   2.201  0.0204  0.0313  0.0697
    7MOL   C420 3312   3.239   0.668   2.291  0.1667  0.0592 -0.0624
    7MOL   O421 3313   3.255   0.685   2.414 -0.1119  0.5389 -0.0818
    7MOL   H422 3314   3.403   1.540   1.918 -0.6600 -1.2307 -0.7311
    7MOL   H423 3315   3.357   1.591   2.089  1.0137 -1.7920  0.9280
    7MOL   H424 3316   3.529   1.398   2.054 -0.0380 -0.9059 -0.4917
    7MOL   H425 3317   3.410   1.304   1.976 -1.6315 -1.0304  0.9112
    7MOL   H426 3318   3.261   1.328   2.179  0.9322  0.1819 -0.4980
    7MOL   H427 3319   3.398   1.405   2.258  0.3174 -0.9018  2.5018
    7MOL   H428 3320   3.549   1.207   2.206 -0.4262 -0.4486 -1.2912
    7MOL   H429 3321   3.425   1.204   2.342  0.2530 -0.8774  0.3179
    7MOL   H430 3322   3.431   0.774   2.154 -0.3272  0.1288 -0.2187
    7MOL   H431 3323   3.346   0.895   2.054  0.9417 -0.9069 -0.5628
    7MOL   H432 3324   3.160   0.870   2.247  0.2020 -0.1994  0.7067
    7MOL   H433 3325   3.159   0.762   2.116  0.8231  1.3743 -0.9807
    7MOL   O434 3326   3.231   0.547   2.225  0.3513  0.2659  0.2343
    7MOL   C435 3327   3.236   0.435   2.307 -0.2869  0.0880 -0.4970
    7MOL   C436 3328   3.225   0.313   2.214 -0.2766  0.4434  0.0998
    7MOL   C437 3329   3.087   0.324   2.142 -0.2656 -0.5580 -0.3522
    7MOL   C438 3330   3.063   0.218   2.037 -0.5276 -0.2239  0.1301
    7MOL   O439 3331   3.040   0.090   2.094  0.3193 -0.1414  0.7978
    7MOL   C440 3332   3.002   7.865   2.014  0.2619  0.4661  0.0930
    7MOL   O441 3333   2.975   7.871   1.891 -0.4678 -0.1600 -0.1143
    7MOL   C442 3334   3.007   7.734   2.090 -0.6229 -0.0895 -0.0794
    7MOL   C443 3335   3.146   7.698   2.146  0.0250  0.3092  0.4816
    7MOL   C444 3336   3.197   7.553   2.124 -0.2358  0.1174 -0.1773
    7MOL   O445 3337   3.125   7.455   2.091 -0.4878 -0.0516 -0.6139
    7MOL   H446 3338   3.328   0.432   2.365 -1.3031  0.6030  1.1612
    7MOL   H447 3339   3.149   0.444   2.372  0.4961 -1.3759  0.7659
    7MOL   H448 3340   3.238   0.211   2.251 -1.2914  0.9348  1.8289
    7MOL   H449 3341   3.301   0.316   2.135 -0.4947 -0.6488 -0.1604
    7MOL   H450 3342   3.071   0.419   2.091  3.1376  0.8491  1.0530
    7MOL   H451 3343   3.000   0.313   2.206 -0.6924  0.5729 -0.7161
    7MOL   H452 3344   2.978   0.256   1.980 -0.2756  1.9748  1.1736
    7MOL   H453 3345   3.148   0.203   1.969  0.1555 -1.6128  1.2738
    7MOL   H454 3346   2.968   7.655   2.026  0.5410 -0.1295 -0.7479
    7MOL   H455 3347   2.941   7.751   2.175  0.3879 -0.2680  0.7618
    7MOL   H456 3348   3.223   7.757   2.098 -0.7388  1.0683  0.1656
    7MOL   H457 3349   3.150   7.732   2.249  0.5495  0.7595  0.3113
    7MOL   O458 3350   3.335   7.548   2.158  0.4147  0.0842  0.5022
    7MOL   C459 3351   3.411   7.431   2.128 -0.3521  0.0350  0.1797
    7MOL   C460 3352   3.548   7.437   2.194  0.3031 -0.5222  0.2763
    7MOL   C461 3353   3.623   7.562   2.142 -0.6439 -0.5770  0.8452
    7MOL   C462 3354   3.772   7.564   2.194  0.3610  0.0332  0.4031
    7MOL   O463 3355   3.844   7.439   2.168 -0.4195  0.0608 -0.4779
    7MOL   C464 3356   3.937   7.442   2.070 -0.4546  0.2608  0.6242
    7MOL   O465 3357   3.953   7.529   1.988 -0.4242  0.1584 -0.3040
    7MOL   C466 3358   4.027   7.319   2.069 -0.3439 -0.4344 -0.0296
    7MOL   C467 3359   4.160   7.341   1.996 -0.1726 -0.0530 -0.0852
    7MOL   C468 3360   4.267   7.385   2.095 -0.1341 -0.2834  0.2849
    7MOL   O469 3361   4.249   7.429   2.211 -0.2059  0.1792  0.3406
    7MOL   H470 3362   3.357   7.344   2.166 -2.5324  1.2140 -0.1163
    7MOL   H471 3363   3.419   7.411   2.021  2.3158  0.8225  0.2086
    7MOL   H472 3364   3.597   7.344   2.167  1.0686  1.2404 -5.0052
    7MOL   H473 3365   3.552   7.433   2.303  0.0128 -0.6116  0.2850
    7MOL   H474 3366   3.571   7.647   2.186 -0.6560  0.3157 -0.8314
    7MOL   H475 3367   3.620   7.572   2.033 -0.1092  0.5144  0.9251
    7MOL   H476 3368   3.826   7.646   2.147 -1.0435 -0.3702 -1.9710
    7MOL   H477 3369   3.763   7.579   2.302  1.8300  0.7030  0.4485
    7MOL   H478 3370   3.977   7.241   2.011 -0.9314  0.8748 -1.3216
    7MOL   H479 3371   4.050   7.279   2.168 -1.8265 -3.2380 -0.7663
    7MOL   H480 3372   4.211   7.247   1.975  1.8339  0.5627  1.8573
    7MOL   H481 3373   4.160   7.407   1.909  0.8353 -0.2284 -0.2330
    7MOL   H482 3374   4.364   7.372   2.047 -1.4759  0.2536 -2.7103
    8MOL     O1 3375   7.732   3.816   6.518  0.7910 -0.3216 -0.2544
    8MOL     C2 3376   7.638   3.919   6.536 -0.0417  0.0507  0.1183
    8MOL     C3 3377   7.518   3.876   6.624  0.2167  0.3354  0.1591
    8MOL     C4 3378   7.571   3.834   6.769 -0.8966 -0.8776  0.2367
    8MOL     C5 3379   7.611   3.955   6.851 -0.4249  0.2542  0.1972
    8MOL     O6 3380   7.496   4.030   6.859 -0.0747  0.2641 -0.6608
    8MOL     C7 3381   7.495   4.132   6.945  0.1387  0.0819 -0.2771
    8MOL     O8 3382   7.588   4.156   7.022  0.1917 -0.3646  0.3857
    8MOL     C9 3383   7.359   4.196   6.939 -0.2903  0.5481 -0.0696
    8MOL    C10 3384   7.348   4.303   6.827 -0.4308  0.5963  0.0289
    8MOL    C11 3385   7.375   4.440   6.882 -0.3698  0.2471  0.4349
    8MOL    O12 3386   7.446   4.459   6.982 -0.4728  0.2573 -0.1298
    8MOL    H13 3387   7.684   4.012   6.571 -0.5396 -0.2363  1.5898
    8MOL    H14 3388   7.604   3.932   6.433 -0.6019 -1.1877  0.1435
    8MOL    H15 3389   7.470   3.790   6.577 -0.3232  0.8230 -0.1851
    8MOL    H16 3390   7.438   3.948   6.638 -2.7075 -2.5909 -0.9399
    8MOL    H17 3391   7.658   3.769   6.760  0.7918  1.4236 -0.4650
    8MOL    H18 3392   7.496   3.766   6.811 -2.0714  0.1091 -0.2251
    8MOL    H19 3393   7.668   3.940   6.942  0.6946 -1.4807 -0.7716
    8MOL    H20 3394   7.669   4.018   6.785 -1.7628  1.5187  0.2055
    8MOL    H21 3395   7.326   4.240   7.033 -0.7205 -1.3909  0.7034
    8MOL    H22 3396   7.282   4.120   6.924  1.2190 -0.7942 -1.2891
    8MOL    H23 3397   7.407   4.280   6.739 -2.0400 -0.5332 -0.7809
    8MOL    H24 3398   7.249   4.306   6.781 -0.7679  1.2910  0.7803
    8MOL    H25 3399   7.704   3.760   6.447 -0.8582  2.9269 -2.2333
    8MOL    O26 3400   7.312   4.535   6.807 -0.0718  0.5590 -0.0317
    8MOL    C27 3401   7.321   4.673   6.843  0.2763  0.6622 -0.4312
    8MOL    C28 3402   7.252   4.742   6.725  0.3917 -0.5858  0.7829
    8MOL    C29 3403   7.234   4.899   6.739  0.0136  0.1758  0.1779
    8MOL    C30 3404   7.179   4.973   6.624  0.0555 -0.2973  0.7984
    8MOL    O31 3405   7.195   5.115   6.632 -0.8115 -0.3654 -0.3131
    8MOL    C32 3406   7.125   5.195   6.553 -0.7489 -0.2067  0.4702
    8MOL    O33 3407   7.044   5.155   6.472 -0.6547 -0.0979  0.0396
    8MOL    C34 3408   7.139   5.340   6.581 -0.1937 -0.2199 -1.1290
    8MOL    C35 3409   7.237   5.404   6.480  0.1682 -0.0339  0.1966
    8MOL    C36 3410   7.377   5.428   6.532 -0.4098  0.0339  0.0205
    8MOL    O37 3411   7.434   5.536   6.506  0.3504 -0.1503  1.1895
    8MOL    H38 3412   7.258   4.694   6.929  0.6905  0.5418 -0.0947
    8MOL    H39 3413   7.416   4.723   6.863  0.7429 -0.5265  0.3674
    8MOL    H40 3414   7.154   4.698   6.712  0.3347 -1.1352  2.9138
    8MOL    H41 3415   7.313   4.729   6.635  1.4551  1.6047  1.1369
    8MOL    H42 3416   7.326   4.954   6.756 -1.2956  2.5289 -0.0458
    8MOL    H43 3417   7.174   4.929   6.826 -1.5786 -0.5203 -0.6502
    8MOL    H44 3418   7.233   4.934   6.538  1.7101 -1.0283  2.1376
    8MOL    H45 3419   7.074   4.949   6.602  0.2155  0.9446 -1.4529
    8MOL    H46 3420   7.174   5.356   6.683 -1.5397 -0.4785 -0.6104
    8MOL    H47 3421   7.040   5.384   6.565 -0.3649 -0.3302 -0.3855
    8MOL    H48 3422   7.246   5.349   6.386 -1.5573 -0.3423  0.2099
    8MOL    H49 3423   7.198   5.504   6.460 -0.5892 -0.3937 -0.0972
    8MOL    O50 3424   7.431   5.314   6.586 -0.4805 -0.0474  0.0244
    8MOL    C51 3425   7.556   5.330   6.638  0.2124 -0.1395 -0.7470
    8MOL    C52 3426   7.597   5.193   6.698 -0.2207 -0.0261 -0.9997
    8MOL    C53 3427   7.571   5.071   6.610 -0.8734  0.3984 -0.4505
    8MOL    C54 3428   7.612   4.939   6.691  0.0756  0.0652  0.0126
    8MOL    O55 3429   7.585   4.820   6.617 -0.2358 -0.8647  0.2091
    8MOL    C56 3430   7.633   4.701   6.648 -0.6958  0.4269  0.4802
    8MOL    O57 3431   7.693   4.673   6.755 -0.6614 -0.4283 -0.1935
    8MOL    C58 3432   7.604   4.592   6.549 -0.0525 -0.2056  0.2110
    8MOL    C59 3433   7.647   4.456   6.600  0.4927 -0.6074 -0.4556
    8MOL    C60 3434   7.626   4.351   6.485 -0.6797 -0.4962 -0.2073
    8MOL    O61 3435   7.552   4.253   6.495 -0.1111 -0.0034 -0.3283
    8MOL    H62 3436   7.625   5.353   6.556 -0.8442  3.7860 -0.6614
    8MOL    H63 3437   7.563   5.417   6.703  0.4232  0.1250 -1.1226
    8MOL    H64 3438   7.552   5.182   6.797  0.4642 -0.8100 -0.7713
    8MOL    H65 3439   7.703   5.197   6.723 -0.4560  1.3624 -0.1105
    8MOL    H66 3440   7.628   5.075   6.517  0.9163 -1.1318  0.5441
    8MOL    H67 3441   7.465   5.059   6.591 -0.6234 -4.5629  0.6886
    8MOL    H68 3442   7.720   4.943   6.708 -0.0444 -1.3920  1.2156
    8MOL    H69 3443   7.554   4.930   6.783  0.9842 -0.9489  0.5015
    8MOL    H70 3444   7.669   4.615   6.465  1.2096 -0.6493  1.0500
    8MOL    H71 3445   7.501   4.611   6.518  0.4153 -2.2813 -2.8123
    8MOL    H72 3446   7.754   4.449   6.614  0.4889  0.0817 -0.0697
    8MOL    H73 3447   7.600   4.428   6.694 -0.1621  2.7295  0.2661
    8MOL    O74 3448   7.706   4.382   6.377 -0.5275  0.0658 -0.9314
    8MOL    C75 3449   7.701   4.297   6.260  0.1531  0.4300  0.7317
    8MOL    C76 3450   7.617   4.366   6.160 -0.1572  0.1328  0.5930
    8MOL    C77 3451   7.679   4.496   6.114 -0.4663 -0.2904 -0.4958
    8MOL    C78 3452   7.570   4.580   6.042  0.5631  0.3013  0.1749
    8MOL    O79 3453   7.500   4.645   6.143  0.5087  0.0383  0.3137
    8MOL    C80 3454   7.377   4.692   6.116  0.9344 -0.2670 -0.4006
    8MOL    O81 3455   7.324   4.690   6.003 -0.2801 -0.2708  0.3564
    8MOL    C82 3456   7.315   4.745   6.245 -0.8068  0.3392  0.9990
    8MOL    C83 3457   7.215   4.649   6.319  0.2011  0.9301 -0.1608
    8MOL    C84 3458   7.077   4.725   6.332 -0.8098  0.0504 -0.4132
    8MOL    O85 3459   7.028   4.739   6.441 -0.2192  0.0073  0.6846
    8MOL    H86 3460   7.804   4.293   6.223 -0.4819  1.9295 -1.3274
    8MOL    H87 3461   7.661   4.197   6.277 -1.0202  0.7819  0.0397
    8MOL    H88 3462   7.519   4.373   6.207 -0.1937 -1.0818  0.6963
    8MOL    H89 3463   7.607   4.295   6.078 -1.5235 -0.1642  1.0047
    8MOL    H90 3464   7.762   4.468   6.049 -0.5629 -0.2299 -0.6458
    8MOL    H91 3465   7.721   4.561   6.190  0.7509  0.4095 -1.7502
    8MOL    H92 3466   7.625   4.655   5.985  0.7811  0.1697  0.2109
    8MOL    H93 3467   7.515   4.517   5.973  1.6805 -1.3739  0.7673
    8MOL    H94 3468   7.286   4.848   6.227  0.1629  0.5925  0.8570
    8MOL    H95 3469   7.400   4.769   6.308 -0.1266  1.3118 -0.2787
    8MOL    H96 3470   7.192   4.559   6.261  1.3581  1.0213 -0.7706
    8MOL    H97 3471   7.245   4.613   6.417 -1.7065  2.4476  1.0080
    8MOL    O98 3472   7.033   4.771   6.223  0.1158  0.1410  0.1872
    8MOL    C99 3473   6.935   4.876   6.220  1.2393 -0.2262  0.0871
    8MOL   C100 3474   6.950   4.957   6.091 -0.4433 -0.2210 -0.1872
    8MOL   C101 3475   7.071   5.054   6.090 -0.0957  0.4266 -0.7372
    8MOL   C102 3476   7.103   5.118   5.953 -0.5751  0.0968  0.4459
    8MOL   O103 3477   7.105   5.013   5.853  0.0006  0.2992  0.1315
    8MOL   C104 3478   7.220   4.986   5.784  0.6950 -0.4051 -0.3758
    8MOL   O105 3479   7.328   5.031   5.815 -0.0150 -0.0887 -0.2407
    8MOL   C106 3480   7.199   4.900   5.661  0.6331 -0.3451 -0.1471
    8MOL   C107 3481   7.145   4.989   5.548  0.5105  0.4737  0.2632
    8MOL   C108 3482   7.234   4.977   5.425  0.4753  0.1098  0.5831
    8MOL   O109 3483   7.348   5.026   5.418  0.6416  0.3957  0.0543
    8MOL   H110 3484   6.834   4.836   6.227  0.9982 -0.1374 -2.3648
    8MOL   H111 3485   6.952   4.942   6.306 -1.1426  1.2042 -0.4930
    8MOL   H112 3486   6.855   5.010   6.085  0.5345  1.6666  0.2815
    8MOL   H113 3487   6.951   4.880   6.014  2.2688 -0.4548  0.0190
    8MOL   H114 3488   7.156   4.990   6.113 -0.0754 -0.0063 -2.0125
    8MOL   H115 3489   7.056   5.138   6.158 -1.2458 -1.2047  1.0902
    8MOL   H116 3490   7.031   5.197   5.931  1.3212  1.3784 -1.4094
    8MOL   H117 3491   7.198   5.171   5.961 -0.0493 -0.3053 -2.5109
    8MOL   H118 3492   7.127   4.820   5.679  0.2448 -0.0478 -0.3665
    8MOL   H119 3493   7.293   4.852   5.633  0.2077 -1.3566  0.1278
    8MOL   H120 3494   7.044   4.955   5.524  2.0733 -2.9940 -1.8887
    8MOL   H121 3495   7.146   5.095   5.571  0.6793  0.5126  0.0724
    8MOL   O122 3496   7.181   4.888   5.332 -0.3462  0.0452  0.4256
    8MOL   C123 3497   7.239   4.868   5.209 -0.2488 -0.9054  0.2597
    8MOL   C124 3498   7.317   4.735   5.217  0.2109  1.1021 -0.3947
    8MOL   C125 3499   7.394   4.688   5.092 -0.4610  0.5123  0.2624
    8MOL   C126 3500   7.463   4.545   5.110 -0.0230  0.2599  0.0106
    8MOL   O127 3501   7.525   4.493   4.993 -0.4144 -0.0305  0.0605
    8MOL   C128 3502   7.450   4.442   4.886 -0.3037  0.3127 -0.2145
    8MOL   O129 3503   7.332   4.417   4.889  0.0007 -0.6276 -0.0552
    8MOL   C130 3504   7.533   4.438   4.761  0.8881  0.2294 -0.1770
    8MOL   C131 3505   7.463   4.386   4.636 -0.1479  0.3390  0.7575
    8MOL   C132 3506   7.490   4.474   4.509 -0.0132  0.2611 -0.5949
    8MOL   O133 3507   7.397   4.503   4.438 -0.1427 -0.0624  0.2666
    8MOL   H134 3508   7.157   4.860   5.137  1.2295  2.1933 -1.8611
    8MOL   H135 3509   7.306   4.948   5.178 -2.1528  0.7684  0.3679
    8MOL   H136 3510   7.246   4.657   5.245  0.2953  0.8818 -0.8060
    8MOL   H137 3511   7.396   4.745   5.291 -0.7091  1.3865  0.5681
    8MOL   H138 3512   7.477   4.749   5.057 -0.3465 -0.1287 -0.6182
    8MOL   H139 3513   7.322   4.671   5.012 -0.2076  0.4847  0.0381
    8MOL   H140 3514   7.544   4.552   5.182 -1.0532 -3.5527  1.7040
    8MOL   H141 3515   7.402   4.469   5.160 -1.9085  0.7923 -1.4154
    8MOL   H142 3516   7.611   4.365   4.782  0.4634 -0.0785  0.3373
    8MOL   H143 3517   7.581   4.535   4.746  1.2918 -0.0821 -0.9410
    8MOL   H144 3518   7.484   4.280   4.619 -0.6999 -0.1640  2.9176
    8MOL   H145 3519   7.355   4.404   4.637  0.0588  1.6111  0.1415
    8MOL   O146 3520   7.619   4.511   4.492 -0.6170  0.8360  0.2670
    8MOL   C147 3521   7.654   4.602   4.389 -0.3314  0.0186 -0.1484
    8MOL   C148 3522   7.809   4.619   4.392  0.7757 -0.5732 -0.9860
    8MOL   C149 3523   7.871   4.684   4.267 -0.2557 -0.1813 -0.8124
    8MOL   C150 3524   0.015   4.594   4.144 -0.4410 -0.8073  0.5924
    8MOL   O151 3525   7.776   4.522   4.107  0.5309 -0.2109  0.2966
    8MOL   C152 3526   7.761   4.488   3.987  0.4329  0.1658 -0.4036
    8MOL   O153 3527   7.823   4.516   3.884 -0.1390  0.4691  0.1960
    8MOL   C154 3528   7.625   4.420   3.971 -0.0854  1.0350 -0.1273
    8MOL   C155 3529   7.642   4.264   3.999  0.2248  0.2362  0.4267
    8MOL   C156 3530   7.639   4.218   4.135  0.1998  0.1519  0.0229
    8MOL   O157 3531   7.746   4.192   4.192 -0.3516 -0.2218  0.5580
    8MOL   H158 3532   7.610   4.560   4.298 -0.4743 -1.0844  0.4195
    8MOL   H159 3533   7.612   4.702   4.400  1.6904  0.7404  1.3171
    8MOL   H160 3534   7.850   4.519   4.402  1.3734 -0.1424  1.1581
    8MOL   H161 3535   7.828   4.675   4.484  2.2095 -1.8984 -0.4607
    8MOL   H162 3536   0.092   4.732   4.284 -0.3184  0.3956 -1.9818
    8MOL   H163 3537   7.811   4.766   4.229  0.9109  0.8858 -0.3813
    8MOL   H164 3538   0.061   4.654   4.065 -1.2854  0.1977  0.8503
    8MOL   H165 3539   0.076   4.505   4.159 -0.7936 -1.0705  0.4738
    8MOL   H166 3540   7.578   4.436   3.874  0.3835  2.6434 -0.0903
    8MOL   H167 3541   7.556   4.468   4.040  0.8006  1.5441  0.4189
    8MOL   H168 3542   7.558   4.214   3.950 -0.4998  0.5405  1.3604
    8MOL   H169 3543   7.738   4.232   3.956  0.5280  1.0025  0.5275
    8MOL   O170 3544   7.524   4.193   4.180 -0.0878 -0.2199  0.0171
    8MOL   C171 3545   7.522   4.112   4.301  0.8835 -0.6463 -0.3870
    8MOL   C172 3546   7.388   4.124   4.373 -0.2500  0.0635  0.4409
    8MOL   C173 3547   7.271   4.042   4.307  0.0827 -0.4429 -0.6575
    8MOL   C174 3548   7.211   4.097   4.177 -0.2001  0.1730 -1.0334
    8MOL   O175 3549   7.117   4.012   4.110  0.0989  0.6376  0.1726
    8MOL   C176 3550   6.992   4.006   4.155  0.1820  0.3474  0.3786
    8MOL   O177 3551   6.936   4.085   4.236 -0.3475 -0.3054 -0.7209
    8MOL   C178 3552   6.913   3.902   4.090 -1.0645 -1.0793  0.3320
    8MOL   C179 3553   6.838   3.961   3.977 -0.7694 -0.3067 -0.0996
    8MOL   C180 3554   6.922   3.973   3.846 -0.3438  0.5435 -0.5664
    8MOL   O181 3555   6.938   4.080   3.782 -0.1949 -0.2936 -0.1640
    8MOL   H182 3556   7.530   4.007   4.274 -2.5911 -0.8308 -0.8496
    8MOL   H183 3557   7.599   4.137   4.374  1.6561 -0.7261 -1.1617
    8MOL   H184 3558   7.373   4.230   4.391  0.4805  0.6903 -2.3591
    8MOL   H185 3559   7.394   4.082   4.473 -1.5410  1.0189  0.9307
    8MOL   H186 3560   7.192   4.029   4.381  2.0600 -0.0069  1.5571
    8MOL   H187 3561   7.310   3.941   4.298  0.9689 -0.3198  1.4953
    8MOL   H188 3562   7.168   4.195   4.200 -2.4947 -0.7257 -1.3583
    8MOL   H189 3563   7.291   4.130   4.111  2.0151 -0.8906  1.0529
    8MOL   H190 3564   6.855   3.856   4.170 -0.3104 -1.4842  0.6525
    8MOL   H191 3565   6.978   3.823   4.052  0.6465  1.0035 -1.2276
    8MOL   H192 3566   6.753   3.898   3.951 -0.6493 -0.7018  0.4536
    8MOL   H193 3567   6.793   4.058   4.000 -1.5004 -1.1335  2.1086
    8MOL   O194 3568   6.983   3.852   3.824  0.0968 -0.3178 -0.1902
    8MOL   C195 3569   7.059   3.829   3.705  0.1222 -0.6501  0.0146
    8MOL   C196 3570   7.111   3.692   3.705  0.0426  0.1498  0.2003
    8MOL   C197 3571   7.212   3.674   3.826  0.0450  0.0594  0.6016
    8MOL   C198 3572   7.311   3.559   3.797  0.3446 -0.0619 -0.1758
    8MOL   O199 3573   7.245   3.432   3.787  0.8765 -0.4762  0.3903
    8MOL   C200 3574   7.232   3.358   3.673 -0.3068  0.7919 -0.2484
    8MOL   O201 3575   7.294   3.383   3.571  0.1625 -0.5506  0.6760
    8MOL   C202 3576   7.138   3.243   3.692 -0.0201 -0.2176 -0.8049
    8MOL   C203 3577   6.999   3.292   3.729  0.9853 -0.0436 -0.3430
    8MOL   C204 3578   6.930   3.366   3.610  0.3082 -0.6635 -0.6015
    8MOL   O205 3579   6.965   3.344   3.491 -0.1086  0.2269  0.0702
    8MOL   H206 3580   6.996   3.834   3.616 -0.5432  0.6949  0.5548
    8MOL   H207 3581   7.135   3.902   3.679 -0.5223  0.1054  0.2429
    8MOL   H208 3582   7.156   3.657   3.612 -0.5219  0.2482 -0.1169
    8MOL   H209 3583   7.034   3.615   3.717  1.4714 -1.1568  1.1066
    8MOL   H210 3584   7.174   3.652   3.925  0.5332  3.2356  1.5724
    8MOL   H211 3585   7.271   3.764   3.846 -0.6118  1.0293 -1.6428
    8MOL   H212 3586   7.372   3.576   3.708  1.2898 -2.3770 -0.0019
    8MOL   H213 3587   7.372   3.558   3.887 -0.5887  0.0365  0.4646
    8MOL   H214 3588   7.186   3.185   3.771 -0.8731 -2.4742 -1.9018
    8MOL   H215 3589   7.135   3.192   3.596  1.9431  0.2893 -1.1577
    8MOL   H216 3590   6.929   3.216   3.761  0.3099  1.6569  2.3314
    8MOL   H217 3591   7.004   3.356   3.817  2.1166 -0.3854 -0.1529
    8MOL   O218 3592   6.846   3.461   3.646  0.3822  1.1842 -0.3722
    8MOL   C219 3593   6.804   3.561   3.561  0.5810  0.5421 -0.0607
    8MOL   C220 3594   6.676   3.520   3.483  0.5558  0.2445  0.3341
    8MOL   C221 3595   6.557   3.499   3.576  0.3475 -0.2641  0.3740
    8MOL   C222 3596   6.434   3.429   3.521  0.2778  0.7381 -0.5947
    8MOL   O223 3597   6.468   3.294   3.508  0.1743  0.0722  0.0423
    8MOL   C224 3598   6.372   3.206   3.476  0.1786  0.2261 -0.4249
    8MOL   O225 3599   6.256   3.236   3.442  0.4132  0.4994  0.1479
    8MOL   C226 3600   6.410   3.063   3.481 -0.4929 -0.1089 -0.4107
    8MOL   C227 3601   6.434   3.007   3.341  0.2596 -0.2641  0.1555
    8MOL   C228 3602   6.578   3.010   3.294 -0.2941  0.6816 -0.2932
    8MOL   O229 3603   6.613   2.947   3.193  0.1301 -0.0704  0.1006
    8MOL   H230 3604   6.775   3.652   3.614  1.0236  1.7903 -1.8997
    8MOL   H231 3605   6.885   3.574   3.490 -0.0319  2.6143 -0.4344
    8MOL   H232 3606   6.703   3.430   3.427 -1.3696 -0.3475  0.3271
    8MOL   H233 3607   6.648   3.601   3.415  1.3886  1.5930  1.5725
    8MOL   H234 3608   6.537   3.594   3.625 -0.6956  0.1858 -0.9050
    8MOL   H235 3609   6.583   3.442   3.666 -2.4493 -1.5625  0.4018
    8MOL   H236 3610   6.354   3.422   3.595 -1.0777  0.1383 -2.0974
    8MOL   H237 3611   6.396   3.478   3.432  1.1260 -0.6778 -1.7553
    8MOL   H238 3612   6.340   3.006   3.541 -0.6125  1.7152  1.2474
    8MOL   H239 3613   6.505   3.057   3.535 -1.1375 -1.1862  0.6184
    8MOL   H240 3614   6.403   2.903   3.341  0.6633 -0.3891 -0.8179
    8MOL   H241 3615   6.376   3.059   3.265  1.9772  1.2015 -0.1787
    8MOL   O242 3616   6.655   3.083   3.371  0.3783 -0.4167 -0.0537
    8MOL   C243 3617   6.800   3.077   3.363 -0.0121 -0.5508  0.5137
    8MOL   C244 3618   6.852   3.027   3.495  0.7653 -0.5841 -0.1228
    8MOL   C245 3619   6.806   2.875   3.530 -0.4818 -0.1476  0.3245
    8MOL   C246 3620   6.889   2.800   3.629 -0.1204  0.0632 -0.2546
    8MOL   O247 3621   6.811   2.697   3.696  0.2626  0.0057  0.5961
    8MOL   C248 3622   6.860   2.638   3.798 -0.4384  0.5159  0.4810
    8MOL   O249 3623   6.965   2.658   3.852  0.3794  0.5610 -0.5775
    8MOL   C250 3624   6.776   2.518   3.844 -0.5072  0.4869  0.2346
    8MOL   C251 3625   6.657   2.564   3.938  0.3095 -0.3026  0.2995
    8MOL   C252 3626   6.645   2.461   4.051 -0.0442  0.9289  0.4787
    8MOL   O253 3627   6.665   2.499   4.163 -0.0583 -0.2615 -0.2691
    8MOL   H254 3628   6.826   3.010   3.281  1.7178 -0.1747  0.7186
    8MOL   H255 3629   6.836   3.178   3.346 -0.0866 -0.8283 -1.4142
    8MOL   H256 3630   6.815   3.094   3.573  2.4399 -0.3511  0.4836
    8MOL   H257 3631   6.960   3.037   3.488  0.7845 -1.7938 -2.1300
    8MOL   H258 3632   6.802   2.811   3.442  0.3136  0.5189 -0.1949
    8MOL   H259 3633   6.704   2.881   3.568 -1.1112 -0.3400 -1.2813
    8MOL   H260 3634   6.970   2.750   3.576 -0.9885 -0.1869 -1.3697
    8MOL   H261 3635   6.928   2.859   3.712  3.0872 -0.3852 -1.3496
    8MOL   H262 3636   6.852   2.457   3.894  0.5978  0.2634 -1.6867
    8MOL   H263 3637   6.747   2.446   3.768  2.2762 -2.9965  2.3172
    8MOL   H264 3638   6.696   2.659   3.973  1.1613 -0.4668 -0.1824
    8MOL   H265 3639   6.566   2.578   3.880  0.6985 -0.2749 -0.3107
    8MOL   O266 3640   6.610   2.331   4.019 -0.0232 -0.5983  0.6705
    8MOL   C267 3641   6.595   2.233   4.124 -0.6249  0.6335  0.0037
    8MOL   C268 3642   6.561   2.100   4.061 -0.5121 -0.4117  0.3294
    8MOL   C269 3643   6.545   1.982   4.166  0.1603 -0.1982 -0.0080
    8MOL   C270 3644   6.483   1.849   4.114 -0.1588  0.4349 -0.8234
    8MOL   O271 3645   6.339   1.869   4.104 -0.1097  0.1148  0.1349
    8MOL   C272 3646   6.280   1.883   3.990  0.7659 -0.3712  0.2719
    8MOL   O273 3647   6.340   1.901   3.882  0.4875  0.3970 -0.2858
    8MOL   C274 3648   6.127   1.869   3.998 -0.1670  0.1774  0.1322
    8MOL   C275 3649   6.055   2.006   3.968  0.0499 -0.5576  0.3305
    8MOL   C276 3650   5.948   1.982   3.863  0.9231  0.9012 -0.7831
    8MOL   O277 3651   5.833   1.941   3.889 -0.6432  0.0128  0.1914
    8MOL   H278 3652   6.686   2.220   4.183 -0.7326 -1.9181 -0.3391
    8MOL   H279 3653   6.521   2.265   4.197  1.8629  2.3834  1.8720
    8MOL   H280 3654   6.640   2.064   3.995 -0.5812  0.5534 -0.2901
    8MOL   H281 3655   6.462   2.112   4.015 -0.3389 -1.3712 -0.3043
    8MOL   H282 3656   6.489   2.010   4.256 -0.7778 -0.1076 -0.6052
    8MOL   H283 3657   6.643   1.969   4.211  0.1673 -0.3073 -0.0561
    8MOL   H284 3658   6.536   1.820   4.023  1.6544  0.1233  0.2981
    8MOL   H285 3659   6.494   1.764   4.182 -1.0438 -0.5068 -1.8386
    8MOL   H286 3660   6.080   1.826   4.087 -0.8059 -0.6280 -0.5922
    8MOL   H287 3661   6.094   1.792   3.929  0.7677 -1.0115  0.9870
    8MOL   H288 3662   6.012   2.065   4.049 -0.0178  0.2914 -0.3101
    8MOL   H289 3663   6.125   2.069   3.913 -0.7308 -0.7116 -0.8585
    8MOL   O290 3664   6.006   1.975   3.746  0.2932  0.2686 -0.6547
    8MOL   C291 3665   5.929   1.933   3.640  0.3304  0.4930  0.1262
    8MOL   C292 3666   6.001   1.947   3.505  0.5415 -0.1303  0.2543
    8MOL   C293 3667   6.114   1.842   3.492 -0.5574  0.0037 -0.1745
    8MOL   C294 3668   6.182   1.844   3.359 -0.4470 -0.1005  0.6656
    8MOL   O295 3669   6.089   1.827   3.253 -0.5425  0.0405 -0.2965
    8MOL   C296 3670   6.054   1.935   3.174  0.3640 -0.0349  0.0032
    8MOL   O297 3671   6.097   2.053   3.183 -0.0304 -0.7860  0.1787
    8MOL   C298 3672   5.968   1.897   3.059  0.0233  0.4255  0.2493
    8MOL   C299 3673   6.002   1.990   2.935  0.0172 -0.2367  0.7914
    8MOL   C300 3674   6.066   1.911   2.830  0.3619  0.3620 -0.0411
    8MOL   O301 3675   6.190   1.910   2.815 -0.0534  0.2590  0.3838
    8MOL   H302 3676   5.904   1.827   3.646  2.2634 -0.0647 -1.1316
    8MOL   H303 3677   5.827   1.970   3.643 -0.1705 -0.9696  2.2069
    8MOL   H304 3678   6.040   2.048   3.497  1.1615 -0.2290  1.7955
    8MOL   H305 3679   5.936   1.925   3.420  2.1721  0.5176 -1.1971
    8MOL   H306 3680   6.073   1.742   3.504 -0.1047 -0.0007  1.5451
    8MOL   H307 3681   6.178   1.848   3.581  1.0043  0.7293 -1.3336
    8MOL   H308 3682   6.213   1.948   3.354  0.3008 -0.3976 -1.0301
    8MOL   H309 3683   6.269   1.779   3.353  0.8015  1.4965  1.0818
    8MOL   H310 3684   5.864   1.910   3.088 -0.4181 -0.0517 -1.0873
    8MOL   H311 3685   5.986   1.791   3.039 -2.7014 -0.0650  0.2495
    8MOL   H312 3686   5.923   2.051   2.892  1.2239  1.4686  0.9551
    8MOL   H313 3687   6.087   2.055   2.953 -0.7017  0.2215  2.7284
    8MOL   O314 3688   5.977   1.817   2.772  0.2368  0.0211 -0.2086
    8MOL   C315 3689   6.025   1.712   2.695  0.4241  0.0841  0.0572
    8MOL   C316 3690   5.906   1.651   2.626  0.2576  0.2216 -0.6826
    8MOL   C317 3691   5.800   1.596   2.722 -0.0022  0.4977 -0.5389
    8MOL   C318 3692   5.683   1.541   2.642  0.0855  0.3788  0.0510
    8MOL   O319 3693   5.601   1.652   2.608 -0.1553  0.1425  0.0312
    8MOL   C320 3694   5.587   1.698   2.479 -0.0452 -0.2048 -0.1949
    8MOL   O321 3695   5.638   1.653   2.382  0.1468  0.3113 -0.3245
    8MOL   C322 3696   5.507   1.826   2.475 -0.5184 -0.7107  0.7536
    8MOL   C323 3697   5.536   1.907   2.344 -0.3376 -0.3315 -0.0462
    8MOL   C324 3698   5.642   2.016   2.361 -1.1680 -0.5285 -0.1339
    8MOL   O325 3699   5.614   2.140   2.355 -0.1241  0.1851  0.9331
    8MOL   H326 3700   6.099   1.735   2.618  0.4766  1.4605  0.5109
    8MOL   H327 3701   6.076   1.634   2.752  2.0741  1.5026  0.5634
    8MOL   H328 3702   5.937   1.574   2.556  0.3225  1.3306 -1.8916
    8MOL   H329 3703   5.872   1.731   2.560  2.9266  0.9128 -1.2828
    8MOL   H330 3704   5.776   1.677   2.791  0.3301  1.0035 -1.0130
    8MOL   H331 3705   5.849   1.517   2.779 -0.7310  1.2598  1.1929
    8MOL   H332 3706   5.739   1.510   2.554  0.7333  2.4279 -0.2971
    8MOL   H333 3707   5.629   1.449   2.664 -1.3362  1.3470  0.6111
    8MOL   H334 3708   5.523   1.886   2.565  1.3272  0.2174 -0.1683
    8MOL   H335 3709   5.402   1.796   2.467 -0.2320 -1.3896 -0.5564
    8MOL   H336 3710   5.564   1.846   2.259 -1.4020  1.0357 -1.4033
    8MOL   H337 3711   5.445   1.959   2.313  0.2582  1.1454  0.6742
    8MOL   O338 3712   5.762   1.967   2.383 -0.2488  0.0101  0.6170
    8MOL   C339 3713   5.869   2.058   2.415 -0.3114  0.5573 -0.4118
    8MOL   C340 3714   5.996   1.977   2.453 -0.4249 -0.5539  0.8375
    8MOL   C341 3715   6.117   2.051   2.406  0.5265 -0.7548  0.2922
    8MOL   C342 3716   6.247   1.972   2.403  0.8204  0.2769 -0.4245
    8MOL   O343 3717   6.288   1.926   2.529 -0.0986  0.2144 -0.2711
    8MOL   C344 3718   6.409   1.869   2.530 -0.1089  0.0465 -0.0306
    8MOL   O345 3719   6.492   1.883   2.438  0.7840  0.8147 -0.2620
    8MOL   C346 3720   6.452   1.795   2.658  0.5552  0.1804  0.2106
    8MOL   C347 3721   6.576   1.855   2.721 -0.2430  0.7616 -0.3402
    8MOL   C348 3722   6.661   1.745   2.792  0.1138 -0.2078 -0.5586
    8MOL   O349 3723   6.678   1.753   2.914 -0.5602  0.0926 -0.7439
    8MOL   H350 3724   5.883   2.106   2.318  4.2096 -1.1116 -0.6976
    8MOL   H351 3725   5.846   2.131   2.493  3.2342 -0.7393  1.9511
    8MOL   H352 3726   5.998   1.883   2.398 -0.2620 -0.4204  0.6109
    8MOL   H353 3727   5.989   1.947   2.557 -1.3021 -0.7164  0.7286
    8MOL   H354 3728   6.118   2.145   2.461 -0.3848 -0.6934  0.2090
    8MOL   H355 3729   6.095   2.093   2.308 -0.5847 -0.7914  0.5175
    8MOL   H356 3730   6.247   1.894   2.327 -0.4679 -0.2612  0.1073
    8MOL   H357 3731   6.315   2.052   2.375 -0.9735  2.1466  0.4418
    8MOL   H358 3732   6.483   1.695   2.630 -1.4234 -0.1541 -0.8600
    8MOL   H359 3733   6.369   1.791   2.729  1.4659  0.6857  1.3367
    8MOL   H360 3734   6.639   1.900   2.644 -1.8387 -0.2929 -2.3007
    8MOL   H361 3735   6.543   1.923   2.800 -0.4381 -0.0458  0.2826
    8MOL   O362 3736   6.699   1.646   2.714 -0.0660 -0.8382  0.2168
    8MOL   C363 3737   6.780   1.546   2.771 -0.3037 -0.1244 -0.4237
    8MOL   C364 3738   6.816   1.439   2.666 -0.3856  0.1424  0.9344
    8MOL   C365 3739   6.952   1.476   2.606  0.2512  0.7277 -0.4320
    8MOL   C366 3740   7.005   1.390   2.485  0.2350 -0.1232 -0.2916
    8MOL   O367 3741   6.916   1.401   2.376 -0.3855 -0.2568 -0.1713
    8MOL   C368 3742   6.848   1.298   2.319 -0.6182 -0.3227  0.1155
    8MOL   O369 3743   6.850   1.178   2.358 -0.1195  0.1933  0.4940
    8MOL   C370 3744   6.759   1.354   2.208 -0.7503  0.3585  0.4820
    8MOL   C371 3745   6.676   1.473   2.253 -0.5822 -0.2148 -0.6594
    8MOL   C372 3746   6.727   1.607   2.201 -0.4952  0.5580  0.5062
    8MOL   O373 3747   6.802   1.683   2.265  0.2894 -0.1602  0.0196
    8MOL   H374 3748   6.868   1.586   2.820 -0.7312  1.4157 -0.8869
    8MOL   H375 3749   6.727   1.492   2.849 -0.4127 -0.5100 -0.7623
    8MOL   H376 3750   6.745   1.434   2.583 -1.7126 -0.9108  2.1109
    8MOL   H377 3751   6.829   1.340   2.708 -3.4725 -0.5431  0.4118
    8MOL   H378 3752   7.029   1.468   2.683  0.0926  1.9249 -0.1494
    8MOL   H379 3753   6.953   1.579   2.573  1.2987  0.5021 -1.1247
    8MOL   H380 3754   7.092   1.444   2.449  0.3650 -0.4225 -0.4293
    8MOL   H381 3755   7.022   1.284   2.503  1.9932  0.2470  0.3105
    8MOL   H382 3756   6.680   1.285   2.177 -1.4657  1.5685 -0.3919
    8MOL   H383 3757   6.813   1.375   2.116 -2.0164 -0.1289 -0.3836
    8MOL   H384 3758   6.571   1.451   2.233 -0.3815 -0.0238 -1.9169
    8MOL   H385 3759   6.681   1.469   2.362  2.1166 -1.8124 -0.7916
    8MOL   O386 3760   6.690   1.624   2.069 -0.0645  0.1815 -0.4633
    8MOL   C387 3761   6.743   1.736   1.997  0.4322 -0.0240  0.0366
    8MOL   C388 3762   6.829   1.700   1.877 -0.0706 -0.0424  0.1156
    8MOL   C389 3763   6.901   1.825   1.822  0.1576 -0.1977 -0.2666
    8MOL   C390 3764   6.828   1.881   1.695  0.1510 -0.3213 -0.2165
    8MOL   O391 3765   6.714   1.952   1.735 -0.4050 -0.6192  0.4462
    8MOL   C392 3766   6.592   1.896   1.700  0.1166  0.6440 -0.3814
    8MOL   O393 3767   6.579   1.790   1.640  0.1276  0.6988  0.0146
    8MOL   C394 3768   6.464   1.974   1.738 -0.5948  0.0977  0.3947
    8MOL   C395 3769   6.394   1.927   1.865 -0.2463 -0.5748  0.1463
    8MOL   C396 3770   6.402   2.025   1.982  0.1534  0.6075  0.3303
    8MOL   O397 3771   6.299   2.063   2.034 -0.2336 -0.2543  0.0854
    8MOL   H398 3772   6.656   1.786   1.954  0.6509 -0.1139 -0.5156
    8MOL   H399 3773   6.792   1.812   2.059 -1.9583  3.1829 -1.8213
    8MOL   H400 3774   6.751   1.651   1.818  0.3248 -1.2930  0.6227
    8MOL   H401 3775   6.894   1.618   1.906 -0.9011  0.0839  2.4821
    8MOL   H402 3776   7.003   1.798   1.796 -0.1260 -1.7013  0.1395
    8MOL   H403 3777   6.898   1.914   1.885 -0.5731  0.5367 -1.3146
    8MOL   H404 3778   6.885   1.962   1.650 -1.0574  1.6308  1.6418
    8MOL   H405 3779   6.813   1.804   1.620 -0.2805 -0.0856 -0.3761
    8MOL   H406 3780   6.394   1.970   1.654  0.3233  0.5315 -0.4053
    8MOL   H407 3781   6.492   2.076   1.765  0.2852 -0.5841  2.0762
    8MOL   H408 3782   6.290   1.909   1.837 -0.6159  2.0360 -0.2570
    8MOL   H409 3783   6.442   1.832   1.890  1.5936  0.1391 -0.6395
    8MOL   O410 3784   6.523   2.051   2.020  0.0641  0.2490 -0.3570
    8MOL   C411 3785   6.544   2.140   2.136  0.0714  0.2287  0.2536
    8MOL   C412 3786   6.664   2.072   2.207 -0.7902 -0.4329  0.2158
    8MOL   C413 3787   6.697   2.131   2.347  0.0759 -0.0605 -0.0611
    8MOL   C414 3788   6.760   2.275   2.331  0.3983  0.1480 -0.0998
    8MOL   O415 3789   6.902   2.271   2.312  0.7004  0.3372  0.0912
    8MOL   C416 3790   6.951   2.276   2.187  0.0187  0.4785  0.6258
    8MOL   O417 3791   6.890   2.285   2.082  0.2157  0.3898 -0.2291
    8MOL   C418 3792   7.107   2.270   2.177  0.2280 -0.3568 -0.0771
    8MOL   C419 3793   7.162   2.281   2.032 -0.2999 -0.4994 -0.5553
    8MOL   C420 3794   7.210   2.149   1.974 -0.1440  0.2335  0.4853
    8MOL   O421 3795   7.131   2.055   1.962 -0.1960  0.0356 -0.2745
    8MOL   H422 3796   6.584   2.230   2.090  1.6593  0.3124  1.7310
    8MOL   H423 3797   6.451   2.152   2.191 -1.1318  0.1593 -1.7003
    8MOL   H424 3798   6.749   2.072   2.139 -1.6963 -1.4083 -0.9340
    8MOL   H425 3799   6.646   1.967   2.226 -0.7068 -0.8481 -1.8959
    8MOL   H426 3800   6.770   2.061   2.389 -0.8940 -0.3670  1.1669
    8MOL   H427 3801   6.619   2.128   2.423 -1.0522  0.2956 -1.2068
    8MOL   H428 3802   6.717   2.331   2.248 -0.6090 -1.4656 -0.6784
    8MOL   H429 3803   6.749   2.327   2.426  3.6292 -1.2656  1.1371
    8MOL   H430 3804   7.130   2.172   2.219  1.9396  0.1986  0.3385
    8MOL   H431 3805   7.142   2.352   2.240  2.3051 -1.8368  0.7879
    8MOL   H432 3806   7.112   2.350   1.963  1.1040 -0.5417 -1.6436
    8MOL   H433 3807   7.250   2.344   2.044 -1.5715  1.2601 -0.2416
    8MOL   O434 3808   7.331   2.154   1.921 -0.4612  0.5461 -0.4204
    8MOL   C435 3809   7.393   2.037   1.860 -0.5795  0.7105  0.3881
    8MOL   C436 3810   7.517   2.081   1.780 -0.1368  0.7476  0.2539
    8MOL   C437 3811   7.618   2.165   1.866 -0.8382  0.0776 -0.0561
    8MOL   C438 3812   7.718   2.083   1.949 -0.3833 -0.2803  0.4121
    8MOL   O439 3813   7.811   2.184   1.990  0.8436 -0.1028 -0.1832
    8MOL   C440 3814   0.052   2.147   2.061 -0.5201  0.1012  0.3039
    8MOL   O441 3815   0.080   2.036   2.098 -0.5018 -0.3934  0.3165
    8MOL   C442 3816   0.162   2.259   2.062  0.3410 -0.7028  0.1836
    8MOL   C443 3817   0.310   2.204   2.085  0.4773 -0.0683  0.9434
    8MOL   C444 3818   0.419   2.300   2.048  0.0584 -0.2515  0.2535
    8MOL   O445 3819   0.388   2.414   2.015  0.1026 -0.5178 -0.6302
    8MOL   H446 3820   7.428   1.978   1.945  1.4394  0.5432 -0.5474
    8MOL   H447 3821   7.318   1.985   1.800  0.9131  1.0147 -1.7983
    8MOL   H448 3822   7.484   2.135   1.691 -0.7665  0.1926  0.1374
    8MOL   H449 3823   7.573   1.993   1.748 -0.8036  0.2361  0.4633
    8MOL   H450 3824   7.569   2.221   1.946  0.8377 -1.3960  2.0828
    8MOL   H451 3825   7.667   2.243   1.808  0.0255  1.0269  1.8732
    8MOL   H452 3826   7.671   2.022   2.027  1.7066 -1.8389  0.4978
    8MOL   H453 3827   7.773   2.009   1.892  0.2071 -0.8075  1.6510
    8MOL   H454 3828   0.146   2.322   2.149  0.8556 -0.6612  0.2502
    8MOL   H455 3829   0.160   2.327   1.977  1.9589 -0.7395  0.0904
    8MOL   H456 3830   0.337   2.162   2.182 -1.0446 -1.6118  0.7174
    8MOL   H457 3831   0.332   2.122   2.017  0.3501  0.6229  0.0573
    8MOL   O458 3832   0.547   2.251   2.052  0.0004 -0.0998 -0.3487
    8MOL   C459 3833   0.657   2.349   2.038 -0.1077 -0.0803 -0.1765
    8MOL   C460 3834   0.782   2.300   1.964 -0.3651  0.2064 -0.4240
    8MOL   C461 3835   0.890   2.399   1.966 -0.1846  0.3381 -0.0247
    8MOL   C462 3836   1.029   2.340   1.947  0.1014  0.2393 -0.0086
    8MOL   O463 3837   1.135   2.441   1.940  0.2498  0.4432  0.2273
    8MOL   C464 3838   1.247   2.394   1.883  0.3158  0.0898 -0.1831
    8MOL   O465 3839   1.276   2.282   1.834  0.9240 -0.4084  0.1107
    8MOL   C466 3840   1.348   2.510   1.871 -0.5540  1.0993 -1.0265
    8MOL   C467 3841   1.417   2.500   1.733  0.3796  0.2261  0.3074
    8MOL   C468 3842   1.383   2.612   1.639  0.0964 -0.1283 -0.6102
    8MOL   O469 3843   1.265   2.622   1.601 -0.8847  0.1311 -0.4399
    8MOL   H470 3844   0.622   2.447   2.006  1.1813 -0.2575 -2.2106
    8MOL   H471 3845   0.681   2.367   2.142  1.9208  0.4678 -0.7283
    8MOL   H472 3846   0.763   2.268   1.861  1.8839 -0.6499 -0.6019
    8MOL   H473 3847   0.823   2.209   2.009 -0.3435  1.4863  2.1943
    8MOL   H474 3848   0.884   2.439   2.067 -2.7255  1.1869 -0.4655
    8MOL   H475 3849   0.875   2.477   1.891 -0.0493 -1.7604 -2.3176
    8MOL   H476 3850   1.056   2.265   2.022 -1.7867 -1.5142 -1.0167
    8MOL   H477 3851   1.030   2.300   1.846  0.4912  0.8291 -0.2390
    8MOL   H478 3852   1.422   2.502   1.951 -1.0266  1.4207 -0.5530
    8MOL   H479 3853   1.289   2.600   1.889 -1.3412  0.5813 -0.9502
    8MOL   H480 3854   1.526   2.506   1.740  0.3600  1.9504 -0.7491
    8MOL   H481 3855   1.383   2.416   1.672  1.4797  0.2080 -0.3006
    8MOL   H482 3856   1.471   2.667   1.607  0.8743 -0.8390  0.2793
    9MOL     O1 3857   3.225   1.709   5.939 -0.1615 -0.3402  0.3597
    9MOL     C2 3858   3.315   1.642   5.849 -0.2513  0.6087  0.1350
    9MOL     C3 3859   3.356   1.747   5.742 -0.1481 -0.1019 -0.5596
    9MOL     C4 3860   3.453   1.861   5.789  0.2515 -0.1033  0.0363
    9MOL     C5 3861   3.603   1.823   5.798  0.1173 -0.4831  0.1527
    9MOL     O6 3862   3.654   1.777   5.672  0.2665 -0.3762 -0.0749
    9MOL     C7 3863   3.781   1.739   5.662 -0.2152  0.2066  0.2515
    9MOL     O8 3864   3.865   1.726   5.756  0.4412  0.0407  0.4687
    9MOL     C9 3865   3.815   1.710   5.518 -0.1827  0.1765  1.0237
    9MOL    C10 3866   3.961   1.709   5.484 -0.0386 -0.5992 -0.2306
    9MOL    C11 3867   4.015   1.844   5.435  0.0790 -1.0196  0.1280
    9MOL    O12 3868   3.948   1.920   5.367 -0.0455 -0.2683 -0.8090
    9MOL    H13 3869   3.399   1.591   5.896 -0.7372 -0.2933  0.0221
    9MOL    H14 3870   3.258   1.565   5.798  0.8954  0.9272 -1.6561
    9MOL    H15 3871   3.269   1.800   5.704  0.2091  0.7437 -0.1998
    9MOL    H16 3872   3.387   1.689   5.655 -0.6170 -2.3306  0.7205
    9MOL    H17 3873   3.420   1.890   5.889  1.2134 -0.4672  0.4749
    9MOL    H18 3874   3.440   1.950   5.729  3.1450  0.8683  0.7884
    9MOL    H19 3875   3.651   1.912   5.838 -1.1064 -0.1128  0.8161
    9MOL    H20 3876   3.615   1.748   5.877  2.9606  1.1223  1.3172
    9MOL    H21 3877   3.757   1.776   5.452 -0.4521 -2.0183 -1.0051
    9MOL    H22 3878   3.788   1.606   5.497  0.0110  0.0339  1.4797
    9MOL    H23 3879   4.022   1.683   5.571  0.8290 -0.6176 -0.8454
    9MOL    H24 3880   3.987   1.632   5.411 -1.9141  0.0848 -1.6591
    9MOL    H25 3881   3.157   1.650   5.968  0.2152 -2.6569 -3.1753
    9MOL    O26 3882   4.138   1.866   5.473 -0.5709 -0.2049 -0.2518
    9MOL    C27 3883   4.205   1.987   5.442  0.4977 -0.0111 -0.4472
    9MOL    C28 3884   4.358   1.959   5.441  0.4820  0.5405 -0.4232
    9MOL    C29 3885   4.402   1.847   5.342  0.6421 -0.2600 -0.0162
    9MOL    C30 3886   4.556   1.856   5.329 -0.6986 -0.1165 -0.9149
    9MOL    O31 3887   4.613   1.811   5.455  0.0554 -0.3612 -0.0686
    9MOL    C32 3888   4.740   1.777   5.457 -0.0348 -0.1506  0.1353
    9MOL    O33 3889   4.825   1.802   5.366  0.3392  0.0369  0.1459
    9MOL    C34 3890   4.780   1.694   5.585  0.1243  0.0668 -0.1144
    9MOL    C35 3891   4.742   1.549   5.579 -0.3226 -0.0872  0.2803
    9MOL    C36 3892   4.601   1.516   5.516  1.0853  0.5657  0.3559
    9MOL    O37 3893   4.581   1.474   5.400 -0.0293  0.6046 -0.2640
    9MOL    H38 3894   4.161   2.037   5.356 -0.2060  2.0525  1.0649
    9MOL    H39 3895   4.172   2.054   5.522  1.2380 -0.8299  0.5545
    9MOL    H40 3896   4.395   1.921   5.536  0.8192  1.2810 -0.2568
    9MOL    H41 3897   4.405   2.055   5.418  1.8061  0.7853  3.0130
    9MOL    H42 3898   4.352   1.872   5.248  0.3332 -1.1307 -0.0900
    9MOL    H43 3899   4.375   1.745   5.367  0.2294  0.0037  0.6116
    9MOL    H44 3900   4.595   1.803   5.243  2.0951  1.2124 -0.5255
    9MOL    H45 3901   4.568   1.965   5.323 -1.7889  0.1996  1.8119
    9MOL    H46 3902   4.725   1.737   5.669  2.3057 -0.5183  1.6525
    9MOL    H47 3903   4.888   1.696   5.595  0.1905  0.9542 -0.9534
    9MOL    H48 3904   4.809   1.488   5.518 -1.1139 -1.5974  0.8709
    9MOL    H49 3905   4.738   1.502   5.677 -0.1358  4.4895  2.6036
    9MOL    O50 3906   4.501   1.540   5.609  0.5831  0.4989  0.4702
    9MOL    C51 3907   4.364   1.527   5.570 -0.5603 -0.0092 -0.0720
    9MOL    C52 3908   4.307   1.406   5.631  0.9554  0.1586 -0.2088
    9MOL    C53 3909   4.182   1.434   5.720 -0.0613  0.0202  0.8476
    9MOL    C54 3910   4.106   1.303   5.745 -0.6339  0.2215  0.9604
    9MOL    O55 3911   4.053   1.244   5.630 -0.6082  0.1306  0.1619
    9MOL    C56 3912   3.937   1.298   5.591  0.5520 -0.0302 -0.0833
    9MOL    O57 3913   3.878   1.389   5.653  0.1031 -0.1988  0.0144
    9MOL    C58 3914   3.872   1.244   5.466 -0.4261 -0.5400 -0.6002
    9MOL    C59 3915   3.900   1.333   5.344 -0.9007  0.3651 -0.2908
    9MOL    C60 3916   3.782   1.384   5.265  0.1241 -1.1268 -0.2978
    9MOL    O61 3917   3.678   1.323   5.243  0.0387 -0.0387 -0.5213
    9MOL    H62 3918   4.323   1.622   5.605 -0.1304 -0.5546  1.9977
    9MOL    H63 3919   4.348   1.525   5.462 -1.3036  0.6484  0.0185
    9MOL    H64 3920   4.374   1.335   5.680  0.5225  0.2168  0.4701
    9MOL    H65 3921   4.279   1.349   5.543 -1.2328 -1.1828  1.3223
    9MOL    H66 3922   4.115   1.493   5.657  0.0315 -0.7807 -0.0022
    9MOL    H67 3923   4.204   1.484   5.814  1.6247 -1.9816  1.5540
    9MOL    H68 3924   4.179   1.232   5.786  0.3440  0.4618 -0.3325
    9MOL    H69 3925   4.028   1.309   5.821  0.7598  0.2838  2.4323
    9MOL    H70 3926   3.763   1.231   5.467 -0.4817 -0.1229  0.9806
    9MOL    H71 3927   3.908   1.143   5.445 -1.7021 -0.3532 -3.9042
    9MOL    H72 3928   3.955   1.418   5.383 -1.2243  0.8444 -0.8593
    9MOL    H73 3929   3.954   1.280   5.266 -1.4834 -1.0543  0.2431
    9MOL    O74 3930   3.810   1.508   5.217 -0.0675  0.3322 -0.0386
    9MOL    C75 3931   3.722   1.570   5.126 -0.0172 -0.6395  0.2053
    9MOL    C76 3932   3.788   1.559   4.993  0.5790  0.2476 -0.2971
    9MOL    C77 3933   3.888   1.673   4.964  0.3544  0.4003  0.4074
    9MOL    C78 3934   4.017   1.674   5.052  0.2907  0.0592  0.0472
    9MOL    O79 3935   4.104   1.580   4.998 -0.5849 -0.7461  0.3495
    9MOL    C80 3936   4.152   1.481   5.064  0.5492 -0.0010 -0.4905
    9MOL    O81 3937   4.153   1.465   5.189  0.4007  0.5811 -0.4121
    9MOL    C82 3938   4.213   1.373   4.975  0.6397 -0.0258  0.5017
    9MOL    C83 3939   4.101   1.285   4.908  0.6756  0.1092  0.0292
    9MOL    C84 3940   4.054   1.333   4.768 -0.0087 -0.1671 -0.6066
    9MOL    O85 3941   4.051   1.453   4.733 -0.3444  0.2485  0.4317
    9MOL    H86 3942   3.623   1.525   5.125 -0.8943  1.2198  1.5797
    9MOL    H87 3943   3.722   1.674   5.159 -1.1654 -0.2169 -1.0924
    9MOL    H88 3944   3.709   1.560   4.918 -1.0658  1.2787  1.4170
    9MOL    H89 3945   3.837   1.465   4.968 -1.2280 -1.0186  0.7914
    9MOL    H90 3946   3.831   1.765   4.973  0.2505  0.4179 -0.4022
    9MOL    H91 3947   3.924   1.677   4.862 -0.7739  0.0051 -0.0061
    9MOL    H92 3948   4.059   1.774   5.063 -0.4654  0.0856  3.0367
    9MOL    H93 3949   3.987   1.658   5.156  0.8849  1.4372  0.4459
    9MOL    H94 3950   4.286   1.319   5.036  0.3143 -0.5746  0.4105
    9MOL    H95 3951   4.266   1.417   4.891  0.0123 -0.6863 -0.2461
    9MOL    H96 3952   4.154   1.189   4.910  0.7080  0.1363  0.3853
    9MOL    H97 3953   4.014   1.269   4.971 -0.3971  1.1820 -1.1565
    9MOL    O98 3954   3.992   1.238   4.700  0.4563  0.0874 -0.4819
    9MOL    C99 3955   3.947   1.267   4.566  0.2436 -0.7549  0.5830
    9MOL   C100 3956   4.043   1.191   4.481 -0.1924 -0.9064 -0.1137
    9MOL   C101 3957   3.990   1.173   4.337  0.6967 -0.2971 -0.2919
    9MOL   C102 3958   4.094   1.107   4.256  0.0668  0.4167  0.2556
    9MOL   O103 3959   4.037   1.068   4.128  0.8102  0.5536  0.2030
    9MOL   C104 3960   4.000   0.940   4.115  0.1140 -1.0133  0.4550
    9MOL   O105 3961   3.998   0.856   4.207 -0.1953  0.3528  0.1599
    9MOL   C106 3962   3.950   0.912   3.977  0.2178 -0.3058 -0.0576
    9MOL   C107 3963   4.054   0.877   3.874 -0.3483 -0.3524 -0.1403
    9MOL   C108 3964   4.115   1.003   3.814 -0.2045 -0.2630  0.1104
    9MOL   O109 3965   4.064   1.040   3.707 -0.0332 -0.3001 -0.1651
    9MOL   H110 3966   3.848   1.225   4.549  0.5147 -0.1491 -2.8204
    9MOL   H111 3967   3.946   1.371   4.536  1.8738 -0.9283 -0.1220
    9MOL   H112 3968   4.066   1.092   4.521 -1.6973 -1.1093  0.3126
    9MOL   H113 3969   4.133   1.250   4.466 -0.8585 -0.1834 -1.3412
    9MOL   H114 3970   3.973   1.277   4.309  2.0545  0.0635  0.2117
    9MOL   H115 3971   3.897   1.115   4.332 -0.1596  0.9113  1.0875
    9MOL   H116 3972   4.177   1.175   4.237 -0.6481  0.8600 -1.3811
    9MOL   H117 3973   4.147   1.025   4.303  1.4076  2.4657  2.4227
    9MOL   H118 3974   3.884   0.993   3.944  0.7339 -0.1277 -0.6686
    9MOL   H119 3975   3.892   0.820   3.987 -0.9756  0.3742 -0.6219
    9MOL   H120 3976   4.133   0.811   3.911 -2.8255 -1.3335  3.6989
    9MOL   H121 3977   4.010   0.813   3.798 -0.0289 -0.0789 -0.5542
    9MOL   O122 3978   4.218   1.057   3.878 -0.3623 -0.1287  0.1899
    9MOL   C123 3979   4.303   1.154   3.818  0.2746  0.5214 -0.0031
    9MOL   C124 3980   4.342   1.254   3.928 -0.1839  0.3319  0.2423
    9MOL   C125 3981   4.456   1.194   4.015 -0.4058 -0.0033  0.0196
    9MOL   C126 3982   4.507   1.303   4.113 -0.1073 -0.7988 -0.5233
    9MOL   O127 3983   4.588   1.241   4.206  0.0522 -0.0107 -0.4199
    9MOL   C128 3984   4.545   1.213   4.327  0.5486 -0.7310  0.1955
    9MOL   O129 3985   4.430   1.230   4.370  0.0292  0.1988 -0.1593
    9MOL   C130 3986   4.651   1.159   4.421  0.3039 -0.5503  0.0160
    9MOL   C131 3987   4.755   1.071   4.352  0.1476 -0.0828 -0.0272
    9MOL   C132 3988   4.891   1.135   4.346  0.3707  0.3328 -0.6001
    9MOL   O133 3989   4.938   1.173   4.236 -0.1611 -0.3094  0.2359
    9MOL   H134 3990   4.377   1.097   3.762 -0.7876 -0.4437 -0.4457
    9MOL   H135 3991   4.244   1.203   3.740 -1.4970 -0.4820  0.6774
    9MOL   H136 3992   4.254   1.278   3.988 -0.4502 -1.2454  0.5041
    9MOL   H137 3993   4.370   1.349   3.882  0.1334  0.0485 -0.1499
    9MOL   H138 3994   4.531   1.138   3.957 -1.7092 -1.5084 -0.2467
    9MOL   H139 3995   4.414   1.113   4.075  0.0216  0.4422  0.9253
    9MOL   H140 3996   4.563   1.384   4.067  1.2291 -0.1367  2.1607
    9MOL   H141 3997   4.418   1.349   4.156  0.0289 -1.6139  0.6493
    9MOL   H142 3998   4.611   1.114   4.511  0.3690  0.8161  0.7500
    9MOL   H143 3999   4.701   1.244   4.468  0.9596 -1.3891  0.8597
    9MOL   H144 4000   4.761   0.975   4.402  0.4833  0.9858  2.0518
    9MOL   H145 4001   4.735   1.043   4.249  0.3609 -2.8937  0.6655
    9MOL   O146 4002   4.952   1.136   4.460  0.3026 -0.1915  0.6829
    9MOL   C147 4003   5.081   1.196   4.469 -0.9659 -0.4305  0.5813
    9MOL   C148 4004   5.160   1.129   4.586 -0.3302 -0.7308  0.1145
    9MOL   C149 4005   5.259   1.222   4.658 -0.4654  0.4459 -0.1641
    9MOL   C150 4006   5.366   1.285   4.566  0.8901 -0.7582 -0.1096
    9MOL   O151 4007   5.447   1.183   4.515 -0.4842 -0.7122 -0.0422
    9MOL   C152 4008   5.563   1.220   4.447  0.2682 -0.2493 -0.0919
    9MOL   O153 4009   5.605   1.335   4.433 -0.0861 -0.2029  0.0812
    9MOL   C154 4010   5.645   1.100   4.411  0.3497 -0.6806 -0.3464
    9MOL   C155 4011   5.797   1.130   4.448 -0.9848 -0.6076 -0.1159
    9MOL   C156 4012   5.821   1.065   4.579 -0.2948 -0.0834 -0.4962
    9MOL   O157 4013   5.852   0.947   4.587 -0.1073  0.0497  0.0030
    9MOL   H158 4014   5.134   1.196   4.374  0.6313  1.9908  1.4068
    9MOL   H159 4015   5.082   1.304   4.486 -0.1131 -0.8342  3.3225
    9MOL   H160 4016   5.207   1.040   4.545  0.3462  0.5937 -2.0791
    9MOL   H161 4017   5.092   1.083   4.657 -2.3160  2.7476  0.5874
    9MOL   H162 4018   5.297   1.163   4.741 -0.0970  1.8167  0.6594
    9MOL   H163 4019   5.205   1.307   4.700  0.4917  1.8153 -1.6660
    9MOL   H164 4020   5.318   1.348   4.491 -2.8483 -2.5216  0.6721
    9MOL   H165 4021   5.439   1.345   4.620 -0.5245 -0.4093  1.4414
    9MOL   H166 4022   5.625   1.081   4.306  0.0777 -0.1251 -0.3994
    9MOL   H167 4023   5.604   1.014   4.463  0.6051 -0.3007  0.4881
    9MOL   H168 4024   5.865   1.088   4.373 -1.1319 -0.9588 -0.0538
    9MOL   H169 4025   5.835   1.233   4.448 -0.1014 -0.9269 -0.0441
    9MOL   O170 4026   5.803   1.151   4.680  0.1981 -0.2611 -0.4102
    9MOL   C171 4027   5.797   1.105   4.813 -0.3358 -0.3283  0.4752
    9MOL   C172 4028   5.772   1.219   4.909  0.1307  0.2349  0.0815
    9MOL   C173 4029   5.633   1.274   4.888  1.1530 -0.2653 -0.5260
    9MOL   C174 4030   5.564   1.357   4.997 -0.0403 -0.4154  0.6883
    9MOL   O175 4031   5.432   1.390   4.965  0.2468 -0.1312 -0.4612
    9MOL   C176 4032   5.397   1.504   4.892  0.3887  0.5247 -0.0991
    9MOL   O177 4033   5.478   1.569   4.835 -0.2019 -0.3529  0.3109
    9MOL   C178 4034   5.247   1.519   4.889 -0.3890 -1.0223 -0.6054
    9MOL   C179 4035   5.198   1.630   4.790  0.5255 -0.8202  0.7022
    9MOL   C180 4036   5.096   1.572   4.701 -0.7748  0.3532 -0.5252
    9MOL   O181 4037   5.113   1.537   4.585  0.0214  0.6067 -0.4008
    9MOL   H182 4038   5.740   1.014   4.831 -1.8623  0.6162  0.5681
    9MOL   H183 4039   5.898   1.067   4.829  0.7998  3.0995  1.9677
    9MOL   H184 4040   5.851   1.294   4.905  0.3011  0.0478 -0.1045
    9MOL   H185 4041   5.771   1.183   5.012 -0.0323  2.0483  0.7206
    9MOL   H186 4042   5.578   1.181   4.877  0.7544 -0.0847 -0.0994
    9MOL   H187 4043   5.627   1.334   4.797  1.2002 -1.3347 -1.2392
    9MOL   H188 4044   5.562   1.297   5.088  1.1305 -0.7845  0.4818
    9MOL   H189 4045   5.635   1.438   5.014  0.8997 -0.8418 -1.0903
    9MOL   H190 4046   5.215   1.543   4.990 -0.3382 -0.1525 -0.7920
    9MOL   H191 4047   5.206   1.425   4.851 -1.3510 -0.4098 -1.1162
    9MOL   H192 4048   5.165   1.720   4.840 -1.5302  0.0709 -2.1112
    9MOL   H193 4049   5.282   1.656   4.726 -1.2546  2.1163 -0.5426
    9MOL   O194 4050   4.979   1.564   4.755  0.4651  0.0791 -0.8262
    9MOL   C195 4051   4.872   1.494   4.684  0.1172 -0.0300  0.2239
    9MOL   C196 4052   4.797   1.600   4.613  0.1504  0.3949 -0.2139
    9MOL   C197 4053   4.700   1.518   4.525  0.2545 -0.4761  0.0490
    9MOL   C198 4054   4.583   1.587   4.459 -0.0063  0.0462 -0.0650
    9MOL   O199 4055   4.503   1.664   4.551  0.0588  0.4923  0.1783
    9MOL   C200 4056   4.416   1.589   4.627  0.5357 -0.4685  0.3486
    9MOL   O201 4057   4.406   1.466   4.623 -0.6645 -0.0053  0.0113
    9MOL   C202 4058   4.328   1.669   4.721 -0.2448 -0.4873  0.1073
    9MOL   C203 4059   4.421   1.752   4.816 -0.1253  0.4136  0.8240
    9MOL   C204 4060   4.433   1.701   4.956 -0.4269  0.8194 -0.2525
    9MOL   O205 4061   4.365   1.746   5.043  0.1521  0.0229 -0.1200
    9MOL   H206 4062   4.920   1.419   4.621 -0.4574 -0.7200  0.6047
    9MOL   H207 4063   4.804   1.455   4.760  1.3460 -0.8434  0.9290
    9MOL   H208 4064   4.861   1.654   4.543 -0.5528  1.7487  0.1756
    9MOL   H209 4065   4.749   1.672   4.679  0.5404  0.8275 -0.3978
    9MOL   H210 4066   4.655   1.441   4.587  0.8794 -1.1712 -0.3517
    9MOL   H211 4067   4.759   1.457   4.457  0.7867  0.5583 -0.4421
    9MOL   H212 4068   4.612   1.660   4.384  1.4658  0.6382  1.0780
    9MOL   H213 4069   4.532   1.510   4.400  0.5506  0.1198 -0.6428
    9MOL   H214 4070   4.257   1.609   4.777 -1.0269 -0.2666 -0.6463
    9MOL   H215 4071   4.258   1.737   4.672 -0.9102 -1.7433 -0.7009
    9MOL   H216 4072   4.521   1.772   4.776  0.1263 -1.0870  0.6656
    9MOL   H217 4073   4.368   1.846   4.828 -2.0319 -0.6995  1.2076
    9MOL   O218 4074   4.520   1.605   4.970 -0.7367 -0.1512  0.6648
    9MOL   C219 4075   4.532   1.528   5.087  1.4591  0.2963  0.2996
    9MOL   C220 4076   4.663   1.455   5.088 -0.6797 -0.9929  0.3509
    9MOL   C221 4077   4.778   1.558   5.108  0.0413  0.2641  0.6964
    9MOL   C222 4078   4.920   1.513   5.127 -0.1565 -0.4752  0.6718
    9MOL   O223 4079   5.000   1.628   5.125  0.3307  0.1927  0.0012
    9MOL   C224 4080   5.087   1.658   5.226  0.5963  0.8491  0.1974
    9MOL   O225 4081   5.099   1.597   5.333  0.5449  0.5214  0.0946
    9MOL   C226 4082   5.180   1.782   5.194 -0.2196  0.5380  0.0320
    9MOL   C227 4083   5.144   1.896   5.291 -0.4362 -0.1456 -0.3249
    9MOL   C228 4084   5.257   1.915   5.389  0.2869  0.1712 -0.5135
    9MOL   O229 4085   5.254   1.877   5.511 -0.1799 -0.0697 -0.1450
    9MOL   H230 4086   4.514   1.586   5.178 -0.4099  0.1455  0.0514
    9MOL   H231 4087   4.449   1.459   5.072  1.9795 -0.1054 -0.7809
    9MOL   H232 4088   4.689   1.394   5.001  0.0977  2.2626 -1.8099
    9MOL   H233 4089   4.669   1.379   5.166  0.9563 -1.3463 -0.0867
    9MOL   H234 4090   4.751   1.626   5.190  1.7553  2.7969 -0.7761
    9MOL   H235 4091   4.784   1.627   5.024  0.3724 -0.2938  0.2570
    9MOL   H236 4092   4.929   1.449   5.215 -1.4562 -2.5992 -0.7135
    9MOL   H237 4093   4.952   1.461   5.037 -0.4319 -0.2538  0.4475
    9MOL   H238 4094   5.166   1.803   5.089  0.2892  0.2462 -0.0966
    9MOL   H239 4095   5.285   1.754   5.208 -0.1707  0.3926 -0.6346
    9MOL   H240 4096   5.151   1.984   5.228  0.3933 -0.4274 -0.6279
    9MOL   H241 4097   5.047   1.893   5.341  0.9636  2.1075  2.6850
    9MOL   O242 4098   5.356   1.979   5.332  0.4561 -0.7714  0.4774
    9MOL   C243 4099   5.446   2.040   5.418  0.3498  0.8701 -0.2380
    9MOL   C244 4100   5.522   2.148   5.337 -0.1690 -0.1134 -0.4743
    9MOL   C245 4101   5.643   2.225   5.396  0.3869  0.3918  0.3931
    9MOL   C246 4102   5.689   2.335   5.307 -0.1180  0.2872  1.0162
    9MOL   O247 4103   5.821   2.384   5.333 -0.1758 -0.4429  0.1643
    9MOL   C248 4104   5.841   2.486   5.416 -0.5710  0.2598 -0.0080
    9MOL   O249 4105   5.755   2.548   5.474 -0.1428  0.5952 -0.1167
    9MOL   C250 4106   5.993   2.508   5.448  0.7124 -0.3695 -0.5874
    9MOL   C251 4107   6.053   2.407   5.555  0.1962 -0.1537  0.7660
    9MOL   C252 4108   6.198   2.361   5.518  0.7112 -0.4469  0.9280
    9MOL   O253 4109   6.259   2.394   5.415 -0.6243 -0.0212 -0.2106
    9MOL   H254 4110   5.405   2.099   5.500  0.3370  1.0885 -0.4020
    9MOL   H255 4111   5.507   1.960   5.460 -1.2761  0.1828  0.8549
    9MOL   H256 4112   5.453   2.225   5.302 -1.2438 -1.4462 -1.3247
    9MOL   H257 4113   5.556   2.085   5.256  1.9721 -0.8106  0.9168
    9MOL   H258 4114   5.734   2.164   5.396  0.6085  0.7163 -0.1958
    9MOL   H259 4115   5.632   2.263   5.497 -0.1098 -1.0216  0.8852
    9MOL   H260 4116   5.689   2.309   5.202 -0.8595 -0.0361  1.0946
    9MOL   H261 4117   5.609   2.408   5.322 -0.3608  0.5747 -1.4855
    9MOL   H262 4118   5.994   2.611   5.485 -1.2003  0.1467 -1.9081
    9MOL   H263 4119   6.036   2.508   5.348  0.1099  0.1537 -0.8491
    9MOL   H264 4120   6.062   2.453   5.653  1.4247  1.5104 -0.1007
    9MOL   H265 4121   5.991   2.317   5.564  1.7033 -1.2485  0.3374
    9MOL   O266 4122   6.246   2.283   5.609 -0.4026  0.0957  0.1347
    9MOL   C267 4123   6.378   2.233   5.599  0.6627 -0.3199  0.4755
    9MOL   C268 4124   6.406   2.128   5.708  0.3787  0.2733  0.1126
    9MOL   C269 4125   6.369   1.987   5.675 -0.9865  0.5913 -0.5914
    9MOL   C270 4126   6.409   1.897   5.793 -0.0416 -0.3295  0.0068
    9MOL   O271 4127   6.331   1.907   5.909 -0.0766  0.2920  0.1317
    9MOL   C272 4128   6.220   1.836   5.929  0.4485  0.6226 -0.1208
    9MOL   O273 4129   6.171   1.755   5.850  0.0258  0.8052 -0.0835
    9MOL   C274 4130   6.159   1.857   6.066  0.1951  0.1170 -0.5561
    9MOL   C275 4131   6.049   1.761   6.101 -0.0921  0.3201 -1.0340
    9MOL   C276 4132   5.912   1.803   6.057 -0.3752  0.1091 -0.2731
    9MOL   O277 4133   5.856   1.903   6.103 -0.5640  0.5336 -0.5106
    9MOL   H278 4134   6.392   2.192   5.499 -0.3729 -0.8225  0.5312
    9MOL   H279 4135   6.438   2.323   5.608 -1.4621  1.2267 -0.5622
    9MOL   H280 4136   6.348   2.158   5.795 -0.1048 -2.8581  0.9300
    9MOL   H281 4137   6.509   2.123   5.743 -0.2052 -4.8214  1.3865
    9MOL   H282 4138   6.423   1.948   5.589 -1.9322 -1.6442 -0.2232
    9MOL   H283 4139   6.264   1.988   5.645 -1.4918  1.7205  1.1488
    9MOL   H284 4140   6.415   1.791   5.768  0.6548 -0.4737  0.7625
    9MOL   H285 4141   6.512   1.905   5.828  0.0982 -1.9689  0.0373
    9MOL   H286 4142   6.126   1.961   6.066 -0.5724 -0.1274 -1.6585
    9MOL   H287 4143   6.239   1.859   6.140  1.0637  0.5382 -1.4914
    9MOL   H288 4144   6.071   1.661   6.062 -0.1440  0.1226 -0.5592
    9MOL   H289 4145   6.053   1.762   6.210 -1.8411  0.0445 -0.9433
    9MOL   O290 4146   5.867   1.721   5.966 -0.3663  0.2572  0.4204
    9MOL   C291 4147   5.740   1.726   5.919  0.3998 -0.0058 -0.0063
    9MOL   C292 4148   5.627   1.659   6.009 -0.9013  0.5925 -0.3477
    9MOL   C293 4149   5.616   1.502   5.980 -0.2271  0.2968  0.6220
    9MOL   C294 4150   5.516   1.423   6.065  0.2439 -0.2096  0.2364
    9MOL   O295 4151   5.386   1.459   6.019  0.3266 -0.1317 -0.4822
    9MOL   C296 4152   5.281   1.410   6.096  0.3364 -0.4142  0.9902
    9MOL   O297 4153   5.296   1.323   6.181  0.0184  0.5668  0.3347
    9MOL   C298 4154   5.139   1.462   6.059  0.0371 -0.1418  0.3292
    9MOL   C299 4155   5.074   1.367   5.949  0.1489  0.0661  0.8224
    9MOL   C300 4156   5.056   1.445   5.816  0.0736 -0.0017 -0.0102
    9MOL   O301 4157   4.950   1.456   5.761 -0.5529  0.3288  0.3020
    9MOL   H302 4158   5.715   1.831   5.907 -1.6383 -0.5312 -0.4827
    9MOL   H303 4159   5.737   1.684   5.818 -3.0768  0.5464 -0.1870
    9MOL   H304 4160   5.534   1.705   5.976 -0.4480  1.1677 -0.8252
    9MOL   H305 4161   5.631   1.691   6.113  1.4161 -0.5477 -0.0539
    9MOL   H306 4162   5.714   1.459   6.004  0.2434 -0.6799 -2.8772
    9MOL   H307 4163   5.598   1.470   5.878 -2.1955  1.6247  0.5187
    9MOL   H308 4164   5.521   1.315   6.057 -0.5957 -0.1739 -0.8239
    9MOL   H309 4165   5.521   1.458   6.169  0.9635  3.2916 -0.8940
    9MOL   H310 4166   5.149   1.567   6.030  0.7813  0.4471  2.5701
    9MOL   H311 4167   5.086   1.476   6.154  2.8399  1.5401  1.7362
    9MOL   H312 4168   5.118   1.270   5.927  0.8524  0.7739 -1.0071
    9MOL   H313 4169   4.980   1.330   5.988  1.1322 -3.5740 -0.0407
    9MOL   O314 4170   5.170   1.487   5.769  0.5952 -0.5120  0.3227
    9MOL   C315 4171   5.181   1.563   5.654 -0.6444 -0.1018 -0.4318
    9MOL   C316 4172   5.318   1.531   5.594 -0.5680  0.1336  0.1701
    9MOL   C317 4173   5.428   1.595   5.667 -0.8857  0.0842  0.0961
    9MOL   C318 4174   5.573   1.578   5.609  0.4213  0.1566  0.3066
    9MOL   O319 4175   5.605   1.650   5.496 -0.4530  0.1607 -0.0777
    9MOL   C320 4176   5.621   1.604   5.378  0.4913  0.0263  0.0784
    9MOL   O321 4177   5.597   1.495   5.335  0.2667 -0.3964 -0.3646
    9MOL   C322 4178   5.663   1.714   5.279  0.6399  0.1124 -0.3773
    9MOL   C323 4179   5.551   1.749   5.181  0.0941 -0.7522  0.3783
    9MOL   C324 4180   5.611   1.778   5.043  0.3285 -0.1738  0.5580
    9MOL   O325 4181   5.563   1.868   4.981 -0.9075 -0.0438 -0.3102
    9MOL   H326 4182   5.110   1.527   5.579 -0.3291 -0.1201 -0.7169
    9MOL   H327 4183   5.177   1.670   5.672 -0.3994 -0.1745  0.0695
    9MOL   H328 4184   5.319   1.577   5.496 -1.3184 -0.7815 -0.2742
    9MOL   H329 4185   5.322   1.424   5.573  0.2413 -0.1025  1.4579
    9MOL   H330 4186   5.427   1.558   5.770  1.5929 -2.9742 -0.9069
    9MOL   H331 4187   5.407   1.701   5.680 -1.8130 -0.3534  2.6382
    9MOL   H332 4188   5.643   1.586   5.692  0.4423 -0.7126  0.3764
    9MOL   H333 4189   5.573   1.474   5.579 -2.1564  0.3661 -0.5023
    9MOL   H334 4190   5.746   1.668   5.226 -0.6858 -1.5108 -1.0897
    9MOL   H335 4191   5.704   1.801   5.329  1.2340  0.4487 -1.4461
    9MOL   H336 4192   5.474   1.673   5.168 -0.6845  0.1013 -0.0561
    9MOL   H337 4193   5.487   1.829   5.219 -0.6730 -1.0266 -0.3293
    9MOL   O338 4194   5.717   1.696   5.008 -0.2238  0.5911 -0.3141
    9MOL   C339 4195   5.796   1.716   4.889  0.2409 -0.4481  0.6223
    9MOL   C340 4196   5.823   1.580   4.828  0.0114  0.6761 -0.2329
    9MOL   C341 4197   5.901   1.589   4.695  0.1094  0.0944 -0.3721
    9MOL   C342 4198   5.947   1.454   4.640 -0.8472 -0.1413 -0.2949
    9MOL   O343 4199   6.045   1.394   4.727  0.6088  0.3202  0.1016
    9MOL   C344 4200   6.154   1.331   4.672  0.1184 -0.8614  0.6490
    9MOL   O345 4201   6.173   1.314   4.550 -0.8177  0.7732 -0.1949
    9MOL   C346 4202   6.252   1.268   4.774 -0.2945  0.5707 -0.0756
    9MOL   C347 4203   6.181   1.180   4.879 -0.4269 -0.1011  0.6391
    9MOL   C348 4204   6.267   1.154   5.004  0.7142  0.0344  0.2504
    9MOL   O349 4205   6.234   1.219   5.099 -0.6828  0.0926  0.0015
    9MOL   H350 4206   5.750   1.795   4.829  3.6513  2.3957  1.5889
    9MOL   H351 4207   5.893   1.757   4.915 -0.5841  1.9462  0.1019
    9MOL   H352 4208   5.726   1.541   4.798  0.2112 -1.0922  1.3374
    9MOL   H353 4209   5.876   1.515   4.898 -1.2458 -0.9362 -0.7519
    9MOL   H354 4210   5.986   1.656   4.707 -0.3680  0.6595 -0.1376
    9MOL   H355 4211   5.829   1.632   4.625 -2.1719  1.1949  2.5627
    9MOL   H356 4212   5.860   1.390   4.625 -0.5509 -0.9887  1.4142
    9MOL   H357 4213   5.982   1.485   4.542  0.5067  1.4969  0.6928
    9MOL   H358 4214   6.291   1.351   4.832  1.9052 -2.0619  2.3317
    9MOL   H359 4215   6.331   1.214   4.722  0.9804  1.7472  0.6158
    9MOL   H360 4216   6.097   1.233   4.922  0.3288  1.6472  0.0055
    9MOL   H361 4217   6.150   1.084   4.837  0.0758  0.6131 -1.4562
    9MOL   O362 4218   6.362   1.063   4.994  0.0318  0.0357 -0.0380
    9MOL   C363 4219   6.440   1.031   5.106  0.2830  0.5438 -0.3083
    9MOL   C364 4220   6.572   1.113   5.097  0.2569 -0.8118 -0.8165
    9MOL   C365 4221   6.662   1.078   5.215 -0.1563  0.3718 -0.1686
    9MOL   C366 4222   6.785   1.160   5.225 -0.6789 -0.4573  0.0862
    9MOL   O367 4223   6.755   1.288   5.294 -0.0238  0.0639 -0.7572
    9MOL   C368 4224   6.744   1.295   5.430 -0.0779 -0.8199 -0.2954
    9MOL   O369 4225   6.758   1.197   5.510 -0.3413  0.5544 -0.0566
    9MOL   C370 4226   6.701   1.434   5.479  0.0052 -0.1057 -0.2420
    9MOL   C371 4227   6.652   1.429   5.621  0.2030  0.2087 -0.1767
    9MOL   C372 4228   6.764   1.463   5.714  0.0641 -0.6213 -0.5167
    9MOL   O373 4229   6.746   1.551   5.798 -0.3707 -0.2362 -0.1321
    9MOL   H374 4230   6.376   1.043   5.193 -1.1755 -0.0552 -1.2687
    9MOL   H375 4231   6.472   0.926   5.100  0.5721  0.6148 -0.0002
    9MOL   H376 4232   6.559   1.220   5.084  0.7345 -0.5743  0.6521
    9MOL   H377 4233   6.622   1.077   5.006  1.8652 -2.3724  0.6455
    9MOL   H378 4234   6.688   0.973   5.199 -0.2724  0.3221 -0.0371
    9MOL   H379 4235   6.624   1.066   5.316  0.7617 -0.3397  0.1017
    9MOL   H380 4236   6.862   1.102   5.277 -0.6707 -1.2030 -0.7496
    9MOL   H381 4237   6.827   1.186   5.127  0.6016  1.4488  1.1114
    9MOL   H382 4238   6.623   1.467   5.411 -1.3549 -2.1687  0.2746
    9MOL   H383 4239   6.784   1.504   5.467 -0.4620  0.5318  0.2276
    9MOL   H384 4240   6.558   1.479   5.642  1.2722  2.6295 -0.9401
    9MOL   H385 4241   6.628   1.325   5.646  0.3862 -0.2453 -1.8007
    9MOL   O386 4242   6.869   1.381   5.709  0.9884  0.1310 -0.0904
    9MOL   C387 4243   6.989   1.398   5.776 -0.1378  0.2242  0.1579
    9MOL   C388 4244   7.100   1.418   5.681 -0.5333  0.3975 -0.7711
    9MOL   C389 4245   7.139   1.296   5.591 -0.6947 -0.6371 -0.0520
    9MOL   C390 4246   7.261   1.324   5.504  1.0173 -0.0993  0.2010
    9MOL   O391 4247   7.226   1.422   5.402 -0.0108  0.3861  0.1948
    9MOL   C392 4248   7.154   1.396   5.299  0.0027  0.1084  0.3781
    9MOL   O393 4249   7.086   1.294   5.270 -0.5751 -0.0359  0.8381
    9MOL   C394 4250   7.152   1.523   5.210  0.4263 -0.1298  0.1820
    9MOL   C395 4251   7.051   1.506   5.093  0.2091 -0.2973  0.1951
    9MOL   C396 4252   7.068   1.610   4.990 -0.3351  0.0018 -0.0672
    9MOL   O397 4253   6.995   1.707   4.971 -0.3019 -0.0325 -0.4187
    9MOL   H398 4254   6.986   1.480   5.848  1.7505  0.9281 -0.5156
    9MOL   H399 4255   6.998   1.314   5.845 -0.1605  0.0085 -0.1013
    9MOL   H400 4256   7.191   1.448   5.733 -0.0253 -0.8105 -0.9579
    9MOL   H401 4257   7.079   1.501   5.613 -0.5280  0.2747 -0.9213
    9MOL   H402 4258   7.052   1.267   5.532 -1.6302  0.8389  0.5813
    9MOL   H403 4259   7.151   1.202   5.646 -0.1231 -1.3095 -1.3036
    9MOL   H404 4260   7.344   1.369   5.559 -0.4114  2.4402  0.3633
    9MOL   H405 4261   7.291   1.230   5.458  3.2368 -0.2771  1.9200
    9MOL   H406 4262   7.256   1.526   5.179  0.8964 -1.8799  1.5234
    9MOL   H407 4263   7.150   1.619   5.260  0.8998 -1.1267  2.1580
    9MOL   H408 4264   7.045   1.408   5.046  0.6398 -1.1050  1.7948
    9MOL   H409 4265   6.949   1.524   5.123  0.3057  0.7080 -0.0731
    9MOL   O410 4266   7.184   1.591   4.920  0.4102  0.3177 -0.4504
    9MOL   C411 4267   7.218   1.682   4.811 -0.6267 -0.4530 -0.0932
    9MOL   C412 4268   7.358   1.651   4.762 -0.2332  0.4264 -0.0001
    9MOL   C413 4269   7.468   1.658   4.871  0.0182 -0.5193  0.2407
    9MOL   C414 4270   7.598   1.566   4.841  0.4019 -0.2305 -0.1299
    9MOL   O415 4271   7.576   1.428   4.881  0.0480 -0.1017 -0.0686
    9MOL   C416 4272   7.597   1.394   5.004  0.2187 -0.3005 -0.9105
    9MOL   O417 4273   7.654   1.450   5.093  0.2076 -0.2850 -0.2895
    9MOL   C418 4274   7.535   1.258   5.031 -0.5614 -0.1014 -0.3382
    9MOL   C419 4275   7.519   1.224   5.184 -0.2426 -0.1232 -0.2004
    9MOL   C420 4276   7.641   1.135   5.213  0.0982 -0.3158 -0.7375
    9MOL   O421 4277   7.664   1.027   5.159  0.0653 -0.2879  0.4281
    9MOL   H422 4278   7.145   1.674   4.731 -1.7795 -0.5551  0.9509
    9MOL   H423 4279   7.211   1.790   4.827 -0.3025 -0.7737  2.4273
    9MOL   H424 4280   7.384   1.724   4.685  0.4637  0.2290  0.0534
    9MOL   H425 4281   7.366   1.560   4.702 -0.1257  1.1726 -1.1375
    9MOL   H426 4282   7.433   1.638   4.972  0.8064 -0.6098  0.4982
    9MOL   H427 4283   7.494   1.764   4.869 -1.8798 -0.0369 -0.5164
    9MOL   H428 4284   7.614   1.561   4.734  1.2068 -0.8266  0.0107
    9MOL   H429 4285   7.689   1.598   4.893  0.1850 -1.4189  1.0311
    9MOL   H430 4286   7.580   1.180   4.969  1.3180  0.1715  0.6476
    9MOL   H431 4287   7.432   1.252   4.995 -0.3317  0.7178 -1.1200
    9MOL   H432 4288   7.498   1.310   5.247  0.5950  1.2993 -1.8145
    9MOL   H433 4289   7.434   1.160   5.210  0.3506  0.0449  2.2406
    9MOL   O434 4290   7.729   1.204   5.285  0.0443 -0.3206 -0.7904
    9MOL   C435 4291   7.847   1.139   5.331  0.1104 -0.0301 -0.1391
    9MOL   C436 4292   0.077   1.129   5.219  0.0728 -0.9181 -0.4585
    9MOL   C437 4293   0.121   1.267   5.172 -0.1154 -0.2553  0.8357
    9MOL   C438 4294   0.245   1.272   5.075 -0.1642 -0.9032 -0.5450
    9MOL   O439 4295   0.289   1.406   5.054 -0.0642  0.2423 -0.2192
    9MOL   C440 4296   0.385   1.437   4.970  0.5987 -0.4092 -0.2204
    9MOL   O441 4297   0.451   1.356   4.904  1.2094  0.0626  0.2874
    9MOL   C442 4298   0.407   1.586   4.966 -0.3540 -0.2339 -0.0499
    9MOL   C443 4299   0.459   1.638   5.101  0.7440  0.0069  0.0534
    9MOL   C444 4300   0.604   1.628   5.137 -0.6392  0.6321 -0.4064
    9MOL   O445 4301   0.671   1.533   5.092  0.8606  0.3011 -0.1857
    9MOL   H446 4302   0.025   1.187   5.413  1.3883  1.0600 -1.5721
    9MOL   H447 4303   7.821   1.036   5.355  1.0209 -0.4668 -0.9865
    9MOL   H448 4304   0.046   1.070   5.133 -2.5483  2.0128 -1.6101
    9MOL   H449 4305   0.161   1.065   5.249  1.2089  0.5918 -0.3579
    9MOL   H450 4306   0.139   1.323   5.263  2.1663  1.2577 -0.5009
    9MOL   H451 4307   0.042   1.327   5.127 -0.5236 -0.0417  1.8214
    9MOL   H452 4308   0.318   1.203   5.116  0.4604 -0.4536 -0.8823
    9MOL   H453 4309   0.209   1.229   4.981 -0.4060 -3.2258  0.5937
    9MOL   H454 4310   0.318   1.640   4.934  0.4459  0.5575 -0.9544
    9MOL   H455 4311   0.486   1.605   4.894  0.4057  1.6758  1.2847
    9MOL   H456 4312   0.436   1.745   5.097  1.0718  0.0360 -1.1995
    9MOL   H457 4313   0.403   1.602   5.187  1.9897  0.6463  1.1314
    9MOL   O458 4314   0.648   1.717   5.228 -0.0780  0.1151  0.6106
    9MOL   C459 4315   0.783   1.724   5.272  0.1673  0.2264  0.8359
    9MOL   C460 4316   0.899   1.764   5.168 -0.1179 -0.5332  0.1751
    9MOL   C461 4317   1.029   1.787   5.244 -0.1854 -0.7952 -0.2700
    9MOL   C462 4318   1.141   1.814   5.136  0.6432 -0.1071 -0.1082
    9MOL   O463 4319   1.148   1.734   5.016 -0.0441  0.2074 -0.0335
    9MOL   C464 4320   1.211   1.615   5.020  0.1852 -0.4552  0.5548
    9MOL   O465 4321   1.264   1.562   5.119  0.1489  0.0903 -0.2693
    9MOL   C466 4322   1.219   1.550   4.886 -0.5636 -0.3839  0.3773
    9MOL   C467 4323   1.217   1.394   4.901 -0.7334  0.7368 -0.0911
    9MOL   C468 4324   1.367   1.346   4.889 -0.0114  0.0979 -0.1987
    9MOL   O469 4325   1.451   1.419   4.841  0.1694 -0.5452  0.7995
    9MOL   H470 4326   0.796   1.800   5.349  2.5613  0.4856  0.2416
    9MOL   H471 4327   0.805   1.630   5.322 -1.1952 -0.8140 -0.4803
    9MOL   H472 4328   0.865   1.844   5.102 -0.9509 -0.0230  1.1931
    9MOL   H473 4329   0.905   1.676   5.105  3.6596 -0.4394  0.2796
    9MOL   H474 4330   1.060   1.709   5.314 -0.1204  1.6545  2.5257
    9MOL   H475 4331   1.024   1.879   5.301 -0.5901  0.7855 -2.7757
    9MOL   H476 4332   1.119   1.916   5.102 -0.3053  0.0026  0.8381
    9MOL   H477 4333   1.243   1.819   5.173  0.4876 -0.5162  0.3646
    9MOL   H478 4334   1.307   1.590   4.837 -0.1774  0.0688  1.4222
    9MOL   H479 4335   1.135   1.587   4.828 -1.5668 -2.5486  0.3724
    9MOL   H480 4336   1.182   1.362   4.999  0.8260  1.1298  0.6014
    9MOL   H481 4337   1.161   1.353   4.817  0.4874 -2.4462  0.5886
    9MOL   H482 4338   1.383   1.245   4.925  1.7867 -0.5026 -2.5476
   10MOL     O1 4339   3.690   6.628   4.348  0.2267  0.1536  0.6102
   10MOL     C2 4340   3.754   6.568   4.458 -0.6429 -0.5211 -0.1708
   10MOL     C3 4341   3.675   6.444   4.492  0.2034  0.4420 -0.0122
   10MOL     C4 4342   3.726   6.375   4.620 -0.6679  0.3351 -0.1263
   10MOL     C5 4343   3.651   6.245   4.642  1.3915 -0.2411  0.0483
   10MOL     O6 4344   3.679   6.197   4.768 -0.1452  0.6301 -0.5013
   10MOL     C7 4345   3.611   6.248   4.878 -0.2414 -1.2051 -0.0169
   10MOL     O8 4346   3.514   6.325   4.878 -0.3576  0.2284  0.0144
   10MOL     C9 4347   3.665   6.196   5.016  0.2479  0.2745  0.6770
   10MOL    C10 4348   3.631   6.278   5.140  0.5671 -0.0227  0.4256
   10MOL    C11 4349   3.747   6.305   5.235 -0.0343  0.1470 -0.1246
   10MOL    O12 4350   3.794   6.417   5.256  0.6398  0.1225 -0.0210
   10MOL    H13 4351   3.857   6.539   4.441  0.1099  1.9059  0.0074
   10MOL    H14 4352   3.754   6.638   4.542 -1.2397 -0.5411 -0.1519
   10MOL    H15 4353   3.668   6.387   4.400  0.0205  1.4252 -0.6234
   10MOL    H16 4354   3.573   6.476   4.511  0.3314  1.2658 -0.6774
   10MOL    H17 4355   3.724   6.436   4.710  0.8997 -0.7640  0.6644
   10MOL    H18 4356   3.829   6.349   4.598 -0.2495  0.1217  2.0025
   10MOL    H19 4357   3.547   6.274   4.627  0.8771  0.7076  4.6863
   10MOL    H20 4358   3.673   6.170   4.567  0.3993  0.8446 -1.3737
   10MOL    H21 4359   3.773   6.181   5.013  0.1238 -0.4479 -0.8043
   10MOL    H22 4360   3.624   6.098   5.043 -2.3419  0.4045 -2.4974
   10MOL    H23 4361   3.614   6.377   5.097  0.2798 -1.1391 -2.1007
   10MOL    H24 4362   3.542   6.250   5.195  0.7488  0.8218  1.1515
   10MOL    H25 4363   3.737   6.707   4.328  0.7027 -0.0518  0.8989
   10MOL    O26 4364   3.788   6.186   5.298 -0.2143 -0.6424  0.4028
   10MOL    C27 4365   3.901   6.203   5.385 -0.3704 -0.7633 -0.0469
   10MOL    C28 4366   3.955   6.063   5.408 -0.2632  0.0306  0.0145
   10MOL    C29 4367   4.051   6.038   5.524 -0.4421  0.1332  0.7708
   10MOL    C30 4368   4.109   5.897   5.539  0.7349  0.4675  0.5988
   10MOL    O31 4369   4.210   5.882   5.644 -0.0969 -0.0353 -0.1868
   10MOL    C32 4370   4.181   5.844   5.773  0.4851  0.1615  1.2973
   10MOL    O33 4371   4.070   5.807   5.814 -0.0615 -0.3775 -0.4272
   10MOL    C34 4372   4.308   5.844   5.863 -0.0440  1.2379 -0.2348
   10MOL    C35 4373   4.428   5.770   5.805 -0.5612  0.0868 -0.0766
   10MOL    C36 4374   4.546   5.867   5.772  0.0422  0.0068 -0.1041
   10MOL    O37 4375   4.660   5.841   5.800  0.1960  1.1458  0.6884
   10MOL    H38 4376   3.969   6.273   5.335 -0.8882 -0.6115 -0.5450
   10MOL    H39 4377   3.874   6.251   5.479  2.5719  0.6214  0.1742
   10MOL    H40 4378   4.011   6.043   5.317  0.1132 -1.9488  0.6665
   10MOL    H41 4379   3.882   5.982   5.413  0.6386 -0.7365  1.1435
   10MOL    H42 4380   4.005   6.054   5.622  0.1378 -0.5162  1.1586
   10MOL    H43 4381   4.134   6.108   5.522 -1.1979  1.0280  0.6388
   10MOL    H44 4382   4.027   5.825   5.541  0.8405  0.3440  0.4830
   10MOL    H45 4383   4.158   5.877   5.444  1.0564  0.4334  0.7707
   10MOL    H46 4384   4.275   5.794   5.954  0.3519  0.2015 -0.6508
   10MOL    H47 4385   4.335   5.947   5.885 -1.5581  1.3645  1.0608
   10MOL    H48 4386   4.468   5.703   5.880 -1.9371  0.0398  0.6425
   10MOL    H49 4387   4.398   5.722   5.712 -0.2199  1.1038 -0.7270
   10MOL    O50 4388   4.505   5.965   5.699 -0.0221 -0.4695  0.1275
   10MOL    C51 4389   4.601   6.050   5.640 -0.7791 -0.6006  0.4193
   10MOL    C52 4390   4.522   6.177   5.593  0.1855  0.2937  0.2811
   10MOL    C53 4391   4.611   6.288   5.525  0.8300  0.3193  0.1489
   10MOL    C54 4392   4.703   6.216   5.422 -0.1491  0.4633 -0.1670
   10MOL    O55 4393   4.820   6.153   5.471 -0.0738 -0.0260  0.8286
   10MOL    C56 4394   4.870   6.053   5.401 -0.0454  0.4010 -0.2313
   10MOL    O57 4395   4.811   5.997   5.312  0.5735  0.1614  0.1507
   10MOL    C58 4396   5.020   6.029   5.435 -0.4727 -0.3459  0.2676
   10MOL    C59 4397   5.113   6.137   5.370 -0.6977  0.2539 -0.2058
   10MOL    C60 4398   5.172   6.247   5.465  0.0999 -0.1748  0.0882
   10MOL    O61 4399   5.190   6.229   5.583  0.3152 -0.0607  0.6383
   10MOL    H62 4400   4.675   6.071   5.717 -0.2290  2.6877 -0.9015
   10MOL    H63 4401   4.651   5.998   5.558  2.2950  0.1976  1.7070
   10MOL    H64 4402   4.461   6.230   5.666 -0.8956  0.0019 -0.3977
   10MOL    H65 4403   4.451   6.146   5.516 -3.1509  0.9224  2.9717
   10MOL    H66 4404   4.666   6.349   5.597  1.1652 -0.0008  0.1640
   10MOL    H67 4405   4.541   6.349   5.468 -0.7815 -2.5507 -1.0489
   10MOL    H68 4406   4.638   6.147   5.369  1.3633 -1.5352  0.5075
   10MOL    H69 4407   4.729   6.286   5.342  1.0423  1.2394  0.8747
   10MOL    H70 4408   5.067   5.939   5.393  1.2012  0.8391 -0.4513
   10MOL    H71 4409   5.033   6.020   5.543 -1.6086 -0.5994  0.3835
   10MOL    H72 4410   5.200   6.084   5.331  0.3688  0.8577  1.3217
   10MOL    H73 4411   5.062   6.172   5.280  0.6398  1.0609 -0.6610
   10MOL    O74 4412   5.205   6.354   5.387  0.5554  0.5448  0.6458
   10MOL    C75 4413   5.222   6.478   5.449 -0.0053 -0.5026 -0.4520
   10MOL    C76 4414   5.226   6.592   5.346 -0.5625 -0.6505  0.5100
   10MOL    C77 4415   5.322   6.576   5.231 -0.0306  0.0829  0.7413
   10MOL    C78 4416   5.460   6.513   5.258  0.0687 -0.8261 -0.2874
   10MOL    O79 4417   5.535   6.508   5.139  0.0427  0.1666  0.0966
   10MOL    C80 4418   5.639   6.588   5.117 -0.2339 -0.7544  0.2575
   10MOL    O81 4419   5.671   6.685   5.188 -0.3536  0.3975  0.1371
   10MOL    C82 4420   5.714   6.552   4.990 -0.3984 -0.3889  0.4934
   10MOL    C83 4421   5.654   6.576   4.849 -0.1947  0.7895  0.0452
   10MOL    C84 4422   5.729   6.670   4.762  0.3206  0.6609 -0.1786
   10MOL    O85 4423   5.720   6.786   4.783  1.0093 -0.4461 -0.6271
   10MOL    H86 4424   5.151   6.508   5.525  3.0775  1.6955  1.6622
   10MOL    H87 4425   5.317   6.475   5.501  1.1783  2.1992 -2.3398
   10MOL    H88 4426   5.249   6.683   5.402 -1.0404 -0.5003  0.4647
   10MOL    H89 4427   5.122   6.602   5.315 -1.1504  0.8152  2.7728
   10MOL    H90 4428   5.335   6.669   5.176 -1.6203 -1.0813 -1.6920
   10MOL    H91 4429   5.265   6.522   5.156 -0.5042  1.8117 -0.1813
   10MOL    H92 4430   5.514   6.575   5.330  0.8031 -2.6561  0.7737
   10MOL    H93 4431   5.463   6.416   5.307  1.9664 -1.6097 -1.8648
   10MOL    H94 4432   5.744   6.448   5.004  0.5388 -0.1020  0.6615
   10MOL    H95 4433   5.813   6.599   4.988 -0.5120 -0.1554  0.3955
   10MOL    H96 4434   5.633   6.483   4.796  1.6467  0.6014 -0.3780
   10MOL    H97 4435   5.554   6.617   4.865 -0.5310 -0.2915  0.7680
   10MOL    O98 4436   5.808   6.611   4.671 -0.7513 -0.2626  0.1985
   10MOL    C99 4437   5.900   6.704   4.604  0.2673  0.1513  0.3540
   10MOL   C100 4438   6.035   6.682   4.678 -0.6814 -0.2891  0.2743
   10MOL   C101 4439   6.050   6.747   4.818 -0.1249  0.2234 -0.4427
   10MOL   C102 4440   6.190   6.708   4.884  0.3512 -0.2404 -0.7695
   10MOL   O103 4441   6.205   6.573   4.917  0.2588  0.1427  0.0914
   10MOL   C104 4442   6.330   6.511   4.928  0.2686 -0.7983  0.1594
   10MOL   O105 4443   6.437   6.574   4.928  0.1098  0.6359  0.2300
   10MOL   C106 4444   6.316   6.364   4.930 -0.1505  0.5994  0.4013
   10MOL   C107 4445   6.190   6.324   4.849 -0.3431  0.2412  0.0006
   10MOL   C108 4446   6.084   6.264   4.935 -0.1946 -0.0174  0.0650
   10MOL   O109 4447   5.976   6.317   4.957  1.2507  0.4165 -0.2208
   10MOL   H110 4448   5.920   6.672   4.501 -0.1352  0.4730  0.1745
   10MOL   H111 4449   5.865   6.807   4.598  0.5517  0.2866  1.0473
   10MOL   H112 4450   6.119   6.710   4.613 -0.4677  0.6772  0.9547
   10MOL   H113 4451   6.046   6.575   4.695 -2.2635 -0.4124  0.5295
   10MOL   H114 4452   5.971   6.734   4.892 -0.2821 -1.2962 -0.8568
   10MOL   H115 4453   6.044   6.855   4.803 -0.6296  0.4472  1.2564
   10MOL   H116 4454   6.269   6.734   4.814 -0.0150 -1.2828 -1.5825
   10MOL   H117 4455   6.204   6.771   4.972  1.5022  1.7368 -2.3060
   10MOL   H118 4456   6.323   6.328   5.032 -0.0594  0.6427  0.4099
   10MOL   H119 4457   6.405   6.322   4.884  0.2420  2.6270 -0.7881
   10MOL   H120 4458   6.147   6.398   4.781 -1.5604  0.2265  0.7545
   10MOL   H121 4459   6.225   6.235   4.796  1.3366 -0.3906  2.1105
   10MOL   O122 4460   6.128   6.149   4.999  0.0989 -0.7929 -0.3450
   10MOL   C123 4461   6.038   6.080   5.087  0.2343 -0.3622 -0.3366
   10MOL   C124 4462   6.134   6.006   5.184  0.3604  0.2070  0.6225
   10MOL   C125 4463   6.247   5.924   5.125 -0.2088 -0.3946 -0.0105
   10MOL   C126 4464   6.319   5.832   5.219 -0.1800  0.0941 -0.2789
   10MOL   O127 4465   6.407   5.753   5.140 -0.0387 -1.0997 -0.0858
   10MOL   C128 4466   6.485   5.670   5.200  0.7994 -0.0901 -0.6623
   10MOL   O129 4467   6.499   5.657   5.322 -1.0013 -0.5555  0.1852
   10MOL   C130 4468   6.569   5.590   5.106 -0.3518  0.9449  0.4315
   10MOL   C131 4469   6.692   5.665   5.057 -0.2583  0.5463 -0.3782
   10MOL   C132 4470   6.684   5.696   4.906 -0.1999 -0.5587 -0.0623
   10MOL   O133 4471   6.575   5.733   4.860 -0.0952  0.2764 -0.0987
   10MOL   H134 4472   5.969   6.150   5.134 -0.4908 -0.4675 -1.2347
   10MOL   H135 4473   5.993   6.001   5.027 -1.7706  2.2457 -2.3970
   10MOL   H136 4474   6.078   5.950   5.259 -0.5981 -0.2779 -0.4463
   10MOL   H137 4475   6.186   6.082   5.243  1.8437 -0.0747 -0.3186
   10MOL   H138 4476   6.319   5.988   5.075 -0.7653  0.0470 -0.2459
   10MOL   H139 4477   6.204   5.864   5.045 -1.0729  2.1877 -1.5150
   10MOL   H140 4478   6.369   5.885   5.300  1.4940 -0.7214 -0.7548
   10MOL   H141 4479   6.253   5.762   5.270  2.2615 -1.9128  0.2394
   10MOL   H142 4480   6.507   5.542   5.031  0.2486  0.4448  0.2568
   10MOL   H143 4481   6.598   5.501   5.162 -0.7551  0.8520  0.4965
   10MOL   H144 4482   6.701   5.760   5.111 -1.2291  0.5021 -0.1335
   10MOL   H145 4483   6.788   5.617   5.079 -1.3268 -1.2679  0.3749
   10MOL   O146 4484   6.802   5.692   4.849 -0.7099 -0.0641  0.1795
   10MOL   C147 4485   6.818   5.713   4.705 -0.1450  0.9806 -0.4653
   10MOL   C148 4486   6.950   5.783   4.680 -0.3256  0.1208  0.3486
   10MOL   C149 4487   7.060   5.685   4.659 -0.2871  0.4092 -0.1380
   10MOL   C150 4488   7.047   5.591   4.538  0.6366  0.6139  0.6573
   10MOL   O151 4489   7.160   5.512   4.529 -0.4789  0.1760 -0.8212
   10MOL   C152 4490   7.164   5.412   4.442 -0.1108 -0.3778  0.4676
   10MOL   O153 4491   7.069   5.381   4.369 -0.2623  0.2888 -0.0663
   10MOL   C154 4492   7.294   5.326   4.452 -0.4102  0.0018 -1.0289
   10MOL   C155 4493   7.288   5.215   4.346 -0.1181 -0.1267 -0.1313
   10MOL   C156 4494   7.371   5.254   4.220  0.5242 -0.2503  0.0807
   10MOL   O157 4495   7.438   5.356   4.219 -0.0475  0.0840 -0.3405
   10MOL   H158 4496   6.811   5.620   4.648 -1.0944  0.8314 -0.1256
   10MOL   H159 4497   6.736   5.776   4.670 -0.8021  0.3300 -0.1223
   10MOL   H160 4498   6.973   5.846   4.766 -1.8059 -0.7662  1.4045
   10MOL   H161 4499   6.943   5.854   4.597 -1.0108 -0.4271 -0.0745
   10MOL   H162 4500   7.077   5.626   4.749 -0.3379  2.6599  1.3863
   10MOL   H163 4501   7.150   5.745   4.662 -0.0859  0.0931  0.3604
   10MOL   H164 4502   6.961   5.528   4.564  0.0772  1.9526  2.1250
   10MOL   H165 4503   7.032   5.651   4.448 -0.8791  1.5790  1.5264
   10MOL   H166 4504   7.303   5.277   4.549 -1.9787 -0.4198 -1.0893
   10MOL   H167 4505   7.382   5.391   4.450 -0.5011  0.1591 -0.1430
   10MOL   H168 4506   7.334   5.127   4.389  2.6208  1.5444  0.4529
   10MOL   H169 4507   7.188   5.182   4.316 -1.3054  0.6784  2.7021
   10MOL   O170 4508   7.370   5.168   4.121  0.8425 -0.3025 -0.2084
   10MOL   C171 4509   7.426   5.208   3.994 -0.0559 -0.0260  0.0640
   10MOL   C172 4510   7.442   5.076   3.919  0.0291 -0.2387 -0.4134
   10MOL   C173 4511   7.574   5.008   3.974  0.0794  0.0495  0.1836
   10MOL   C174 4512   7.588   4.864   3.921  0.7536 -0.6994  0.2142
   10MOL   O175 4513   7.569   4.859   3.781 -0.0751  0.5736  0.4564
   10MOL   C176 4514   7.538   4.741   3.723 -0.1875  1.1673  0.1133
   10MOL   O177 4515   7.509   4.635   3.773  0.3895  0.7378  0.0176
   10MOL   C178 4516   7.526   4.750   3.573  0.2637 -1.0554 -0.4183
   10MOL   C179 4517   7.392   4.813   3.531 -0.4817 -0.1902 -0.2387
   10MOL   C180 4518   7.405   4.954   3.476 -0.2445 -0.2160 -0.0905
   10MOL   O181 4519   7.325   5.035   3.522  0.2227  0.2650 -0.4858
   10MOL   H182 4520   7.357   5.267   3.934  2.0320  1.6341 -0.7827
   10MOL   H183 4521   7.522   5.259   4.005  0.0818 -0.7510  2.5947
   10MOL   H184 4522   7.459   5.088   3.812  0.4053  1.9200 -0.1240
   10MOL   H185 4523   7.355   5.013   3.936  1.4352 -2.1285 -0.0766
   10MOL   H186 4524   7.584   5.000   4.083 -0.4020 -0.3229  0.2016
   10MOL   H187 4525   7.664   5.065   3.950  1.0749 -1.8807 -0.7227
   10MOL   H188 4526   7.691   4.835   3.941  0.9305 -0.6503 -0.6278
   10MOL   H189 4527   7.520   4.801   3.979  0.9436  0.1831  1.4217
   10MOL   H190 4528   7.548   4.663   3.512 -2.2477 -2.3109  0.4031
   10MOL   H191 4529   7.613   4.815   3.557  0.7708 -1.1255  1.8671
   10MOL   H192 4530   7.345   4.746   3.459  3.1013 -1.1782 -1.7682
   10MOL   H193 4531   7.324   4.830   3.614 -1.6117 -0.2740 -1.1386
   10MOL   O194 4532   7.497   4.970   3.379  0.5256  0.3377  0.5108
   10MOL   C195 4533   7.545   5.095   3.338  0.2576 -0.3157 -0.1975
   10MOL   C196 4534   7.666   5.146   3.422 -0.3800  0.3103 -0.5166
   10MOL   C197 4535   7.793   5.062   3.394  0.3272 -0.1122  0.7270
   10MOL   C198 4536   0.030   5.086   3.489  0.4709 -0.0995 -0.0982
   10MOL   O199 4537   0.004   5.004   3.600 -0.1840  0.4713  0.2466
   10MOL   C200 4538   0.110   4.966   3.680  0.2103 -1.1077  0.0228
   10MOL   O201 4539   0.225   4.997   3.663 -0.1113 -0.2735 -0.3947
   10MOL   C202 4540   0.069   4.870   3.794  0.1199  0.8369  1.1209
   10MOL   C203 4541   0.170   4.753   3.795 -0.4543  0.3558 -0.1779
   10MOL   C204 4542   0.268   4.772   3.901 -0.4290 -0.1217 -0.4415
   10MOL   O205 4543   0.300   4.881   3.936 -0.5121 -0.7773 -0.1000
   10MOL   H206 4544   7.568   5.086   3.232  0.1394 -0.9387 -0.1766
   10MOL   H207 4545   7.462   5.165   3.341  1.1079  0.6830  0.2607
   10MOL   H208 4546   7.656   5.139   3.531 -1.1642  4.3449 -0.2507
   10MOL   H209 4547   7.668   5.254   3.406 -0.2761 -0.0484 -3.0390
   10MOL   H210 4548   7.819   5.081   3.290  1.9804  0.1952  1.1895
   10MOL   H211 4549   7.772   4.955   3.388 -0.5931  0.1507 -0.8883
   10MOL   H212 4550   0.125   5.060   3.444  0.3099  0.1047 -0.5514
   10MOL   H213 4551   0.051   5.190   3.514 -1.5335 -0.0412  1.5112
   10MOL   H214 4552   7.846   4.831   3.765  0.8594 -0.9952  1.0344
   10MOL   H215 4553   0.051   4.921   3.889  1.9165 -0.6934  2.3089
   10MOL   H216 4554   0.107   4.667   3.821 -0.9847  1.0578  0.8934
   10MOL   H217 4555   0.220   4.740   3.699  1.8369  3.3236  0.5385
   10MOL   O218 4556   0.304   4.660   3.957 -0.3432  0.0567 -0.5337
   10MOL   C219 4557   0.425   4.664   4.041  0.2781  0.6109  0.4104
   10MOL   C220 4558   0.406   4.573   4.165 -0.6994 -0.2133 -0.5099
   10MOL   C221 4559   0.375   4.426   4.124 -0.5315  0.8571 -0.0108
   10MOL   C222 4560   0.403   4.310   4.223  1.4231 -0.1318 -0.7085
   10MOL   O223 4561   0.299   4.287   4.326 -0.0109  0.7578 -0.6205
   10MOL   C224 4562   0.304   4.341   4.444 -0.0833 -0.5585 -0.2805
   10MOL   O225 4563   0.407   4.397   4.484 -0.5240 -0.3601  0.2073
   10MOL   C226 4564   0.180   4.312   4.526  0.1664 -0.3410  0.0634
   10MOL   C227 4565   0.065   4.234   4.473  0.5720  0.4595 -0.4430
   10MOL   C228 4566   7.824   4.198   4.558 -0.5918  0.3633  0.1893
   10MOL   O229 4567   7.779   4.280   4.637  0.1990 -0.6367 -0.0510
   10MOL   H230 4568   0.509   4.630   3.980 -0.1389  0.4996 -0.1172
   10MOL   H231 4569   0.448   4.765   4.072 -2.7017  1.6357 -0.5413
   10MOL   H232 4570   0.349   4.633   4.235  0.8089  1.1563 -0.4048
   10MOL   H233 4571   0.507   4.571   4.207 -0.9291  1.3407  0.1341
   10MOL   H234 4572   0.433   4.398   4.035  0.5421  0.7417  0.7084
   10MOL   H235 4573   0.273   4.418   4.087 -0.5960 -0.3436  0.4169
   10MOL   H236 4574   0.420   4.218   4.167 -0.8459 -0.0154 -1.6497
   10MOL   H237 4575   0.495   4.345   4.268  1.7378  0.9455 -2.1476
   10MOL   H238 4576   0.150   4.408   4.567  1.0683  0.3183 -0.7859
   10MOL   H239 4577   0.213   4.257   4.615  1.4684  0.0604 -0.1515
   10MOL   H240 4578   0.030   4.275   4.379  0.2934 -1.7893 -1.3452
   10MOL   H241 4579   0.109   4.140   4.438 -0.7536  0.4055 -1.9830
   10MOL   O242 4580   7.780   4.069   4.552 -0.0611  0.1356 -0.5753
   10MOL   C243 4581   7.688   4.023   4.653 -0.3913  0.7445 -0.0105
   10MOL   C244 4582   7.605   3.897   4.617  0.3675 -0.6462  0.4002
   10MOL   C245 4583   7.698   3.776   4.608  0.3253 -0.5164  0.1230
   10MOL   C246 4584   7.704   3.714   4.751 -0.6092 -0.5510  0.1682
   10MOL   O247 4585   7.828   3.649   4.766  0.4610 -0.0938  0.3121
   10MOL   C248 4586   7.839   3.543   4.845 -0.0015  0.5659  0.6157
   10MOL   O249 4587   7.743   3.484   4.895  0.1718  0.2115 -0.4371
   10MOL   C250 4588   0.108   3.511   4.880 -0.0469  0.2691 -0.6464
   10MOL   C251 4589   0.132   3.480   5.028  0.1348  0.0560  0.6236
   10MOL   C252 4590   0.201   3.600   5.101  0.7431 -0.0759  0.7245
   10MOL   O253 4591   0.319   3.615   5.101  0.2742  0.1529 -0.1034
   10MOL   H254 4592   7.732   4.003   4.751  1.7135 -1.8671 -1.4281
   10MOL   H255 4593   7.612   4.097   4.674 -1.2899 -0.5746  1.4942
   10MOL   H256 4594   7.569   3.925   4.518  0.8863 -0.4452  0.2674
   10MOL   H257 4595   7.519   3.878   4.681  0.5277 -1.1221  0.4722
   10MOL   H258 4596   7.792   3.806   4.561  0.2797 -1.9389 -0.9387
   10MOL   H259 4597   7.659   3.695   4.545 -0.7783  0.1744 -0.0798
   10MOL   H260 4598   7.694   3.794   4.824 -1.2072  0.6482 -1.2019
   10MOL   H261 4599   7.620   3.645   4.748 -2.8711  2.1020  1.3057
   10MOL   H262 4600   0.162   3.603   4.859  1.4882 -0.2225  1.0325
   10MOL   H263 4601   0.145   3.431   4.816  0.3475  1.2411 -1.6575
   10MOL   H264 4602   0.042   3.454   5.083  0.6505 -2.2269  0.4659
   10MOL   H265 4603   0.197   3.393   5.040  0.5649  0.3218  0.2544
   10MOL   O266 4604   0.109   3.681   5.163  0.2482  0.4349  0.5375
   10MOL   C267 4605   0.152   3.794   5.235 -0.5300  0.2925 -0.2372
   10MOL   C268 4606   0.031   3.858   5.294 -0.0549 -0.2013  0.0158
   10MOL   C269 4607   0.068   3.983   5.374  0.2196 -0.1210 -0.2620
   10MOL   C270 4608   7.818   4.060   5.415  0.2674  0.3495 -0.4873
   10MOL   O271 4609   7.835   4.176   5.496 -0.3450  0.3546  0.0048
   10MOL   C272 4610   7.801   4.303   5.451  0.2040 -0.3177 -0.4136
   10MOL   O273 4611   7.731   4.327   5.354 -0.3425 -0.1811  0.3195
   10MOL   C274 4612   7.868   4.414   5.539 -0.3957  0.2145 -0.1743
   10MOL   C275 4613   7.843   4.401   5.687 -1.0952  0.2379 -0.6036
   10MOL   C276 4614   7.698   4.379   5.711 -0.3991 -0.0524  0.4857
   10MOL   O277 4615   7.664   4.279   5.773 -0.3461  0.6710  0.4474
   10MOL   H278 4616   0.229   3.766   5.307 -0.1602 -1.7087 -1.3658
   10MOL   H279 4617   0.204   3.856   5.162 -1.8178  0.2124 -1.2434
   10MOL   H280 4618   7.871   3.790   5.371  0.9179 -0.5185  0.1767
   10MOL   H281 4619   7.826   3.879   5.222  1.1081 -1.2096 -1.6027
   10MOL   H282 4620   0.142   4.040   5.318  1.7713 -1.3038  0.5623
   10MOL   H283 4621   0.123   3.947   5.461 -0.7091 -0.9384 -0.0020
   10MOL   H284 4622   7.738   4.082   5.344 -0.9821 -0.0123  0.7645
   10MOL   H285 4623   7.759   3.996   5.481  2.1929 -0.1987  0.7263
   10MOL   H286 4624   7.841   4.514   5.507  1.0632  0.5376 -0.4057
   10MOL   H287 4625   0.101   4.401   5.527 -0.1072  0.6308  1.7869
   10MOL   H288 4626   0.010   4.307   5.723  0.7510  1.5215  0.7314
   10MOL   H289 4627   0.013   4.479   5.749  2.0938 -1.1975 -0.9577
   10MOL   O290 4628   7.616   4.487   5.683 -0.6254 -0.0269 -0.6381
   10MOL   C291 4629   7.484   4.487   5.719  0.2193 -0.2661  0.1577
   10MOL   C292 4630   7.403   4.524   5.599  0.2863 -0.1444 -0.0262
   10MOL   C293 4631   7.251   4.537   5.640 -0.5744  0.1507 -0.0653
   10MOL   C294 4632   7.180   4.397   5.653  0.5331 -0.2618  0.0618
   10MOL   O295 4633   7.238   4.319   5.756  0.0263 -0.2047  0.0710
   10MOL   C296 4634   7.203   4.187   5.778 -0.6951 -0.2609 -0.1482
   10MOL   O297 4635   7.110   4.124   5.727  0.2313 -0.1968  0.3081
   10MOL   C298 4636   7.295   4.129   5.884 -0.0189 -0.3536 -0.3880
   10MOL   C299 4637   7.272   3.982   5.923 -0.2624  0.4174  0.4678
   10MOL   C300 4638   7.340   3.886   5.824 -0.1460  0.0456 -0.3533
   10MOL   O301 4639   7.442   3.917   5.761 -0.5338  0.3879  0.3907
   10MOL   H302 4640   7.458   4.395   5.772 -0.3803  1.9124  3.7701
   10MOL   H303 4641   7.482   4.571   5.787  0.4958  1.1272 -1.5171
   10MOL   H304 4642   7.408   4.450   5.519 -1.6707  0.0302 -0.3504
   10MOL   H305 4643   7.429   4.623   5.560  0.6848  1.1738  3.4133
   10MOL   H306 4644   7.198   4.589   5.560  0.5437  0.2031 -0.7790
   10MOL   H307 4645   7.236   4.584   5.737  0.3573  0.9406 -0.2940
   10MOL   H308 4646   7.074   4.408   5.676  0.3687  1.4896 -1.3938
   10MOL   H309 4647   7.188   4.338   5.562  1.2684  0.0457 -0.0750
   10MOL   H310 4648   7.296   4.201   5.965  2.2216  0.7618 -1.3706
   10MOL   H311 4649   7.396   4.141   5.845  0.4590 -3.0965 -0.1185
   10MOL   H312 4650   7.325   3.963   6.016  1.1186 -1.3544 -0.6489
   10MOL   H313 4651   7.166   3.959   5.939 -0.1037 -0.7035 -0.0463
   10MOL   O314 4652   7.285   3.765   5.821  0.4033  0.4513  0.0956
   10MOL   C315 4653   7.312   3.676   5.707  0.0334 -0.8894  0.6710
   10MOL   C316 4654   7.420   3.569   5.722 -0.8188  0.0163  0.2754
   10MOL   C317 4655   7.435   3.466   5.615 -0.0721  0.4965 -0.9649
   10MOL   C318 4656   7.544   3.365   5.642 -0.1334  0.0111 -0.9771
   10MOL   O319 4657   7.509   3.285   5.750  0.0403  0.5585 -0.0750
   10MOL   C320 4658   7.585   3.170   5.772 -0.1888 -0.2152  0.6758
   10MOL   O321 4659   7.680   3.135   5.702 -0.2762  0.0811  0.5510
   10MOL   C322 4660   7.549   3.093   5.895 -0.5097  0.6578 -0.3169
   10MOL   C323 4661   7.443   2.981   5.866 -0.1820  0.0679  0.4243
   10MOL   C324 4662   7.489   2.838   5.885 -0.0830  0.5746 -0.2812
   10MOL   O325 4663   7.485   2.750   5.797 -0.1984  0.0236  0.2450
   10MOL   H326 4664   7.223   3.616   5.688 -1.4207  1.4957 -0.2454
   10MOL   H327 4665   7.334   3.734   5.617 -1.5671 -1.7379 -0.2933
   10MOL   H328 4666   7.409   3.514   5.815  1.5596  0.8495  1.0847
   10MOL   H329 4667   7.514   3.619   5.743  0.0753 -2.4179  2.2768
   10MOL   H330 4668   7.449   3.522   5.522  0.3408  1.5624 -0.2723
   10MOL   H331 4669   7.345   3.406   5.602  1.4478 -2.1624  0.4098
   10MOL   H332 4670   7.553   3.304   5.552 -0.2054 -1.1390 -0.2038
   10MOL   H333 4671   7.634   3.415   5.677 -0.4576 -1.0670  1.5096
   10MOL   H334 4672   7.516   3.162   5.972  1.0415  1.6492 -0.5208
   10MOL   H335 4673   7.634   3.047   5.945 -1.6815 -0.8794  0.3465
   10MOL   H336 4674   7.359   2.994   5.935 -0.2704 -1.1217  0.5524
   10MOL   H337 4675   7.400   2.998   5.767  0.1539  0.7903  0.3968
   10MOL   O338 4676   7.525   2.820   6.012 -0.3010 -0.6893 -0.2224
   10MOL   C339 4677   7.560   2.692   6.060  0.2076  0.1304 -0.0832
   10MOL   C340 4678   7.639   2.716   6.188  0.4570 -0.1865  0.3788
   10MOL   C341 4679   7.555   2.765   6.309 -0.2951 -0.1099  0.2344
   10MOL   C342 4680   7.641   2.820   6.422  0.5181 -0.8602  0.3568
   10MOL   O343 4681   7.560   2.893   6.515 -0.4630  0.4438 -0.2513
   10MOL   C344 4682   7.622   2.981   6.595  0.1829  0.1513  0.1281
   10MOL   O345 4683   7.740   3.016   6.597  0.1964 -0.0109 -0.4550
   10MOL   C346 4684   7.519   3.043   6.688  0.7075 -0.2408  0.7238
   10MOL   C347 4685   7.482   2.941   6.800 -0.8834  0.6732 -0.1150
   10MOL   C348 4686   7.357   2.863   6.762 -0.3082  0.5287  0.2302
   10MOL   O349 4687   7.357   2.742   6.754  0.5985  0.4095 -0.8739
   10MOL   H350 4688   7.478   2.623   6.078  1.7170 -1.4758  0.8007
   10MOL   H351 4689   7.630   2.649   5.989  0.2854 -0.2543  0.2251
   10MOL   H352 4690   7.730   2.773   6.171  1.6481 -1.6142  1.7427
   10MOL   H353 4691   7.678   2.620   6.224  3.2285  0.6857 -0.1956
   10MOL   H354 4692   7.490   2.686   6.345 -0.7040 -0.5841 -1.5051
   10MOL   H355 4693   7.487   2.844   6.276 -0.9277 -0.2581  1.1774
   10MOL   H356 4694   7.689   2.738   6.475  0.0078 -1.6307 -0.3596
   10MOL   H357 4695   7.707   2.895   6.379  0.4013  0.0706  1.7870
   10MOL   H358 4696   7.431   3.063   6.628  0.3643 -1.1826  0.8901
   10MOL   H359 4697   7.560   3.126   6.745 -0.2100  1.3034 -0.8472
   10MOL   H360 4698   7.563   2.869   6.814 -2.8577 -1.0293  3.2176
   10MOL   H361 4699   7.469   2.997   6.892  0.7638  0.9965 -0.0633
   10MOL   O362 4700   7.244   2.946   6.756  0.8614 -0.3481 -0.3389
   10MOL   C363 4701   7.115   2.892   6.743  0.0003  0.3355  0.3428
   10MOL   C364 4702   7.014   2.965   6.652 -0.5548 -0.3452  0.1368
   10MOL   C365 4703   6.999   3.112   6.692  0.9373 -1.3227 -0.3905
   10MOL   C366 4704   6.911   3.205   6.606  0.3056  0.3002 -0.2539
   10MOL   O367 4705   6.972   3.239   6.485  0.2055 -0.7840  0.4322
   10MOL   C368 4706   6.909   3.301   6.385 -0.2803 -0.5858 -0.8553
   10MOL   O369 4707   6.789   3.337   6.377 -0.0523 -0.4615 -0.7021
   10MOL   C370 4708   6.993   3.306   6.258 -0.6812 -0.6090 -0.1115
   10MOL   C371 4709   7.025   3.156   6.212 -0.2785 -0.2085  0.4041
   10MOL   C372 4710   7.120   3.170   6.089  0.9275  0.1105 -0.2428
   10MOL   O373 4711   7.242   3.152   6.103 -0.5319 -0.3753  0.4235
   10MOL   H374 4712   7.124   2.791   6.703  1.1219  0.4686  0.2529
   10MOL   H375 4713   7.078   2.888   6.846  0.6277 -1.5011  0.5018
   10MOL   H376 4714   6.915   2.922   6.664 -0.5957 -0.0116  1.0596
   10MOL   H377 4715   7.045   2.964   6.547  0.8513  0.9717  0.5146
   10MOL   H378 4716   7.095   3.162   6.695  0.7831 -1.0556  0.4292
   10MOL   H379 4717   6.947   3.115   6.788 -0.1417 -0.8882 -0.9745
   10MOL   H380 4718   6.814   3.160   6.589  1.0175 -0.9213 -1.2203
   10MOL   H381 4719   6.905   3.302   6.655 -0.6466  0.0405  0.1520
   10MOL   H382 4720   7.078   3.367   6.287 -1.1098 -0.2051  0.3077
   10MOL   H383 4721   6.936   3.350   6.176  3.4452  3.4578 -1.0198
   10MOL   H384 4722   7.080   3.102   6.289 -2.2493 -1.4926  0.9440
   10MOL   H385 4723   6.931   3.109   6.184 -1.2840  1.8395  0.1764
   10MOL   O386 4724   7.062   3.212   5.978 -0.0224  0.5702  0.3904
   10MOL   C387 4725   7.142   3.252   5.873  0.0433 -0.0550  0.4985
   10MOL   C388 4726   7.070   3.359   5.789  0.4659 -0.4626 -0.3336
   10MOL   C389 4727   7.020   3.494   5.862  0.0729  0.1981 -0.0990
   10MOL   C390 4728   6.933   3.580   5.771 -0.0686  0.0190 -1.2320
   10MOL   O391 4729   6.896   3.695   5.842  0.7411 -0.8040 -0.0456
   10MOL   C392 4730   6.876   3.806   5.768  0.8699 -0.6595 -0.1264
   10MOL   O393 4731   6.875   3.815   5.646 -0.2230  0.0898 -0.8347
   10MOL   C394 4732   6.842   3.936   5.852  0.3377  0.5753  0.3928
   10MOL   C395 4733   6.697   3.956   5.898 -0.4046 -0.0054 -0.3045
   10MOL   C396 4734   6.676   4.092   5.963 -0.6575 -0.4866 -0.2018
   10MOL   O397 4735   6.730   4.129   6.067  0.2199 -0.1795  0.5000
   10MOL   H398 4736   7.239   3.292   5.905 -1.4177  2.7508  1.6040
   10MOL   H399 4737   7.152   3.166   5.807 -1.5414  0.6780 -0.7161
   10MOL   H400 4738   6.989   3.310   5.735 -0.3924 -0.1567  0.6582
   10MOL   H401 4739   7.148   3.382   5.716  0.1721  2.2811  0.1726
   10MOL   H402 4740   7.112   3.544   5.890 -0.6480  1.5762 -0.1880
   10MOL   H403 4741   6.972   3.471   5.957  0.2735 -0.2205 -0.0961
   10MOL   H404 4742   7.003   3.592   5.688 -0.4873  1.6260 -1.3670
   10MOL   H405 4743   6.841   3.530   5.744 -0.4059  1.0461 -2.0152
   10MOL   H406 4744   6.870   4.021   5.790 -1.3338  0.7738 -0.1110
   10MOL   H407 4745   6.902   3.938   5.943  0.0919  1.3616  0.5454
   10MOL   H408 4746   6.638   3.965   5.807 -1.9640 -3.9130  0.2106
   10MOL   H409 4747   6.653   3.874   5.956 -0.1207 -0.9385 -1.4040
   10MOL   O410 4748   6.574   4.151   5.897 -0.1060  0.6407 -0.2756
   10MOL   C411 4749   6.523   4.279   5.924 -0.3506  0.2173 -0.1661
   10MOL   C412 4750   6.384   4.251   5.993 -0.8235 -0.2311  0.1484
   10MOL   C413 4751   6.395   4.180   6.131  0.5190 -0.8921  0.0552
   10MOL   C414 4752   6.259   4.170   6.199  0.5017  0.3913  0.8312
   10MOL   O415 4753   6.274   4.078   6.307  0.6448 -0.4891  0.2976
   10MOL   C416 4754   6.174   4.057   6.384 -0.6409 -0.6156  0.1865
   10MOL   O417 4755   6.055   4.084   6.371 -0.0258  0.5673  0.3107
   10MOL   C418 4756   6.221   3.993   6.516  0.0116 -0.0098 -0.3251
   10MOL   C419 4757   6.117   3.948   6.618  0.0185 -0.3751 -0.7936
   10MOL   C420 4758   6.073   3.810   6.589  0.7761  0.2059  1.0446
   10MOL   O421 4759   6.118   3.747   6.496 -0.0020  0.3676 -0.2769
   10MOL   H422 4760   6.595   4.339   5.979  0.3004 -1.2218  0.5770
   10MOL   H423 4761   6.518   4.332   5.829 -2.8593 -0.9888 -0.7548
   10MOL   H424 4762   6.317   4.194   5.928  2.1623 -1.8097 -1.6590
   10MOL   H425 4763   6.332   4.346   5.999 -1.3699 -0.5332  0.3329
   10MOL   H426 4764   6.476   4.217   6.194  0.5519 -0.3888 -0.2814
   10MOL   H427 4765   6.436   4.079   6.121 -0.0642 -1.0596 -0.6582
   10MOL   H428 4766   6.197   4.253   6.235 -0.1137  1.6197 -2.8881
   10MOL   H429 4767   6.187   4.130   6.127 -0.4695  0.7759  1.5671
   10MOL   H430 4768   6.277   4.077   6.557  0.4222 -0.7216  0.6134
   10MOL   H431 4769   6.292   3.911   6.504 -2.1574 -1.8650 -0.7891
   10MOL   H432 4770   6.148   3.951   6.722  1.2622  1.1662 -1.1908
   10MOL   H433 4771   6.029   4.013   6.623 -0.2446 -0.8391  1.0029
   10MOL   O434 4772   5.977   3.774   6.674 -0.1312  0.3472  0.1360
   10MOL   C435 4773   5.920   3.650   6.671  0.1367 -0.0392 -0.2278
   10MOL   C436 4774   5.795   3.656   6.576  0.4817 -0.0352  0.0904
   10MOL   C437 4775   5.729   3.521   6.528 -0.7727  0.6653  0.3446
   10MOL   C438 4776   5.607   3.529   6.430  0.2666  0.1028 -0.0872
   10MOL   O439 4777   5.518   3.633   6.461  0.1864 -0.5591 -0.2042
   10MOL   C440 4778   5.423   3.604   6.545  0.1204 -0.2222  0.3330
   10MOL   O441 4779   5.386   3.492   6.578 -0.5755 -0.1225  0.1277
   10MOL   C442 4780   5.337   3.723   6.575  0.8294 -0.8077  0.1328
   10MOL   C443 4781   5.243   3.769   6.455 -1.1590 -0.0958 -0.4201
   10MOL   C444 4782   5.220   3.915   6.442 -0.3571 -0.9667  0.1620
   10MOL   O445 4783   5.301   3.995   6.483 -0.3732  0.0240 -0.5970
   10MOL   H446 4784   5.988   3.570   6.643  0.5367  0.2565 -0.1156
   10MOL   H447 4785   5.888   3.629   6.773 -0.4997 -0.4869 -0.5207
   10MOL   H448 4786   5.819   3.706   6.482  2.6090  0.6251  0.9489
   10MOL   H449 4787   5.725   3.725   6.622  1.4359  0.1455  1.2895
   10MOL   H450 4788   5.705   3.453   6.610 -1.8254  0.1635 -0.3743
   10MOL   H451 4789   5.808   3.467   6.475 -0.9689  0.7726 -0.0591
   10MOL   H452 4790   5.633   3.544   6.325 -0.7581 -1.1835 -0.5304
   10MOL   H453 4791   5.551   3.437   6.440  0.2590  0.0596 -0.4996
   10MOL   H454 4792   5.404   3.808   6.584 -0.1688  0.2316 -2.0067
   10MOL   H455 4793   5.277   3.712   6.666  0.7291 -0.7264  0.0753
   10MOL   H456 4794   5.283   3.741   6.357  1.6424  3.2499 -0.3252
   10MOL   H457 4795   5.145   3.722   6.453 -1.1015 -0.2212 -3.7586
   10MOL   O458 4796   5.118   3.940   6.368  0.0462  0.5824  0.4916
   10MOL   C459 4797   5.086   4.082   6.353  0.1557  0.2096 -0.2441
   10MOL   C460 4798   4.958   4.110   6.425  0.7452  0.5128 -0.3413
   10MOL   C461 4799   4.960   4.103   6.578  0.3592 -0.6242 -0.7945
   10MOL   C462 4800   4.818   4.108   6.629  0.6063  0.0176 -0.1943
   10MOL   O463 4801   4.819   4.122   6.771 -0.2104 -0.0748 -0.3618
   10MOL   C464 4802   4.711   4.087   6.840 -0.1961 -0.5623  0.9024
   10MOL   O465 4803   4.605   4.051   6.789 -0.0903 -0.1151  0.2714
   10MOL   C466 4804   4.731   4.111   6.988  0.4647  0.2695 -0.5902
   10MOL   C467 4805   4.623   4.075   7.095  1.0485 -0.1988  0.1977
   10MOL   C468 4806   4.640   3.938   7.155 -0.3432  0.4872  0.4460
   10MOL   O469 4807   4.564   3.890   7.237 -0.0409  0.1164  0.3950
   10MOL   H470 4808   5.163   4.153   6.383  0.6078 -0.7593  0.9435
   10MOL   H471 4809   5.061   4.101   6.249  1.2444  0.6180 -0.4398
   10MOL   H472 4810   4.880   4.043   6.388  0.7474 -0.4136  1.2835
   10MOL   H473 4811   4.916   4.210   6.408 -1.2813  0.3664  3.2844
   10MOL   H474 4812   5.024   4.185   6.611  3.2154 -2.5127 -1.4185
   10MOL   H475 4813   5.003   4.009   6.616 -0.5772 -0.4039  0.8627
   10MOL   H476 4814   4.759   4.184   6.578  0.6968  1.6660  2.0487
   10MOL   H477 4815   4.776   4.010   6.607 -0.1206  0.1812  0.4035
   10MOL   H478 4816   4.721   4.219   6.985  1.1432  0.3129 -1.2315
   10MOL   H479 4817   4.835   4.097   7.018  0.0286  0.9526  1.3618
   10MOL   H480 4818   4.620   4.146   7.177  0.3097 -0.5143  0.4521
   10MOL   H481 4819   4.530   4.074   7.038  1.0624  0.9675  0.1452
   10MOL   H482 4820   4.730   3.888   7.116 -0.2615  0.4293  0.7095
   11MOL     O1 4821   6.592   3.355   1.635 -0.0969 -0.0968  0.2194
   11MOL     C2 4822   6.588   3.267   1.522 -0.1875  0.5965 -0.2911
   11MOL     C3 4823   6.471   3.306   1.430  0.2659  0.0805  0.4827
   11MOL     C4 4824   6.428   3.198   1.333 -0.0306  0.2530 -0.0869
   11MOL     C5 4825   6.290   3.241   1.262  0.2809  0.4092 -0.2106
   11MOL     O6 4826   6.182   3.235   1.352  0.1017  0.4924  0.2926
   11MOL     C7 4827   6.086   3.151   1.323  0.5654 -0.0124 -0.2840
   11MOL     O8 4828   6.086   3.067   1.230  0.3104  0.4258  0.2050
   11MOL     C9 4829   5.969   3.145   1.427  0.3359 -0.1031 -0.0173
   11MOL    C10 4830   5.835   3.169   1.358  0.2095 -0.2561  0.4798
   11MOL    C11 4831   5.741   3.057   1.379  0.5110 -0.5032 -0.0093
   11MOL    O12 4832   5.729   2.958   1.309  0.3724 -0.1420  0.2698
   11MOL    H13 4833   6.678   3.275   1.460  0.0498  2.1956  0.2265
   11MOL    H14 4834   6.581   3.165   1.561  0.3077  0.8406  0.4529
   11MOL    H15 4835   6.502   3.391   1.369 -1.6342  1.6098  1.5905
   11MOL    H16 4836   6.379   3.338   1.480 -0.0393 -1.7863  1.1520
   11MOL    H17 4837   6.429   3.095   1.367 -3.0302 -0.0008 -0.6706
   11MOL    H18 4838   6.506   3.202   1.256 -0.4291  2.0953 -0.4314
   11MOL    H19 4839   6.292   3.346   1.234 -0.7690  0.7893  1.0905
   11MOL    H20 4840   6.267   3.188   1.169 -0.5444  0.4297 -0.0162
   11MOL    H21 4841   5.972   3.227   1.498 -0.4588 -2.4673  2.8758
   11MOL    H22 4842   5.967   3.049   1.480  2.2307 -1.3699 -2.1725
   11MOL    H23 4843   5.785   3.263   1.379 -1.2837 -0.6619 -1.1095
   11MOL    H24 4844   5.850   3.178   1.250 -0.7440  0.7300  0.4257
   11MOL    H25 4845   6.675   3.350   1.679 -0.9297  0.3260  1.8758
   11MOL    O26 4846   5.668   3.081   1.491 -0.4858  0.5946 -0.2437
   11MOL    C27 4847   5.600   2.978   1.567 -0.3346 -0.5649 -0.6091
   11MOL    C28 4848   5.456   2.946   1.519  0.2357 -0.3575 -0.0782
   11MOL    C29 4849   5.368   2.874   1.625 -0.3905 -0.1665  0.7676
   11MOL    C30 4850   5.230   2.924   1.644  0.6248 -0.1694  0.7584
   11MOL    O31 4851   5.145   2.933   1.528  0.5838 -0.4329  0.8718
   11MOL    C32 4852   5.072   2.823   1.498 -1.2799  0.8228 -0.0141
   11MOL    O33 4853   5.094   2.705   1.539 -0.1696 -0.4362 -0.0585
   11MOL    C34 4854   4.954   2.846   1.412  0.2795 -0.3776  0.4940
   11MOL    C35 4855   4.984   2.874   1.272 -0.2264 -0.5137 -0.0588
   11MOL    C36 4856   5.024   2.744   1.205 -0.2113 -0.7752 -0.3371
   11MOL    O37 4857   5.135   2.724   1.168  0.0526  0.1015  0.1260
   11MOL    H38 4858   5.663   2.888   1.567 -0.1271 -0.4761  2.5515
   11MOL    H39 4859   5.594   3.019   1.667  0.0199 -0.6394 -0.5544
   11MOL    H40 4860   5.455   2.875   1.436  0.9321 -1.9898  1.2976
   11MOL    H41 4861   5.409   3.037   1.481 -1.2380 -1.6084 -1.3264
   11MOL    H42 4862   5.416   2.871   1.723  2.2394  0.2697 -0.4498
   11MOL    H43 4863   5.370   2.770   1.592  0.9006  0.5882 -1.6881
   11MOL    H44 4864   5.180   2.848   1.704 -0.1583 -1.6189 -1.6493
   11MOL    H45 4865   5.242   3.023   1.687  0.4267  0.2457 -0.1334
   11MOL    H46 4866   4.898   2.932   1.450  1.8437  1.1609 -0.6165
   11MOL    H47 4867   4.891   2.757   1.417  0.5843 -0.6978 -1.1055
   11MOL    H48 4868   4.914   2.933   1.213 -0.0108 -0.0982  0.0895
   11MOL    H49 4869   5.065   2.948   1.266 -0.7686  0.2162  1.3978
   11MOL    O50 4870   4.920   2.660   1.197 -0.3047 -0.3734 -0.7115
   11MOL    C51 4871   4.936   2.543   1.117 -0.7486 -0.1273  0.1815
   11MOL    C52 4872   4.830   2.556   1.002 -0.8735 -0.5667  0.0736
   11MOL    C53 4873   4.692   2.551   1.060  0.3838 -0.0559 -0.4534
   11MOL    C54 4874   4.586   2.524   0.950 -0.3121  0.9556  0.5690
   11MOL    O55 4875   4.455   2.515   0.995 -0.0223 -0.0421  0.4405
   11MOL    C56 4876   4.357   2.497   0.906  0.0542 -0.0367 -0.1106
   11MOL    O57 4877   4.370   2.490   0.785 -0.1797 -0.1502 -0.1698
   11MOL    C58 4878   4.217   2.504   0.962 -0.6176  0.7308  0.5397
   11MOL    C59 4879   4.155   2.364   0.952 -0.6094 -0.2506  1.0326
   11MOL    C60 4880   4.215   2.271   1.053 -0.1810  0.7219 -0.0822
   11MOL    O61 4881   4.269   2.167   1.018 -0.4053 -0.2669  0.6491
   11MOL    H62 4882   5.033   2.525   1.071 -0.8817  2.1398 -1.0973
   11MOL    H63 4883   4.929   2.451   1.174 -1.7902 -0.9977 -1.3039
   11MOL    H64 4884   4.847   2.472   0.934  2.5746  1.1564 -1.3232
   11MOL    H65 4885   4.849   2.643   0.939 -0.5143 -1.0705 -0.5239
   11MOL    H66 4886   4.665   2.643   1.113 -0.3496 -0.8306  0.5322
   11MOL    H67 4887   4.682   2.470   1.131 -2.2290  0.4324 -0.2082
   11MOL    H68 4888   4.590   2.612   0.886  3.3681 -0.2527 -1.0005
   11MOL    H69 4889   4.611   2.427   0.906 -1.1820  1.3365 -0.8022
   11MOL    H70 4890   4.148   2.571   0.910 -2.9077 -1.2856  0.9142
   11MOL    H71 4891   4.218   2.541   1.064  0.8478 -1.6766  1.4348
   11MOL    H72 4892   4.046   2.358   0.949 -0.4467 -2.6294 -1.5961
   11MOL    H73 4893   4.171   2.322   0.853 -2.3805  2.8318 -0.6467
   11MOL    O74 4894   4.183   2.307   1.178  0.0774 -0.2366  0.0582
   11MOL    C75 4895   4.247   2.246   1.284  1.2878 -0.1344 -0.2123
   11MOL    C76 4896   4.131   2.206   1.384 -0.6578 -0.6730  0.4575
   11MOL    C77 4897   4.052   2.088   1.332  0.1479 -0.5725 -0.1410
   11MOL    C78 4898   4.138   1.960   1.333  0.1472 -0.4669 -0.9120
   11MOL    O79 4899   4.184   1.937   1.468 -0.1966 -0.6663 -0.0480
   11MOL    C80 4900   4.102   1.900   1.565  0.0969 -0.4338 -0.4368
   11MOL    O81 4901   3.987   1.860   1.551  0.0574 -0.4340 -0.4723
   11MOL    C82 4902   4.167   1.911   1.702  0.5342 -0.0604  0.6467
   11MOL    C83 4903   4.224   1.781   1.767  0.7256 -0.4505 -0.0303
   11MOL    C84 4904   4.329   1.798   1.872  0.2993  0.4133 -0.1639
   11MOL    O85 4905   4.378   1.906   1.905  0.1357  0.0465  0.4971
   11MOL    H86 4906   4.303   2.156   1.259  0.0008 -0.5549 -1.6774
   11MOL    H87 4907   4.315   2.324   1.317 -1.7164  2.4757  0.0654
   11MOL    H88 4908   4.063   2.287   1.409  0.0989 -0.8786  3.2861
   11MOL    H89 4909   4.181   2.187   1.479  2.4135  1.7136 -0.5788
   11MOL    H90 4910   4.009   2.113   1.235 -0.1776 -2.2347 -0.4478
   11MOL    H91 4911   3.972   2.081   1.406  0.9961  0.0428  0.8374
   11MOL    H92 4912   4.090   1.872   1.289  2.8594 -1.3302 -2.2146
   11MOL    H93 4913   4.220   1.974   1.263 -2.1914 -0.6255 -3.8160
   11MOL    H94 4914   4.096   1.949   1.775 -0.2941 -1.2723  0.4849
   11MOL    H95 4915   4.252   1.980   1.698 -0.8531  1.6883  0.9137
   11MOL    H96 4916   4.137   1.729   1.806  0.3643  0.2831  0.1655
   11MOL    H97 4917   4.252   1.719   1.682 -0.3939 -2.0074  0.7236
   11MOL    O98 4918   4.371   1.675   1.920 -1.3735 -0.1473 -0.5007
   11MOL    C99 4919   4.485   1.680   2.002  0.3013 -0.3179 -0.3135
   11MOL   C100 4920   4.511   1.531   2.027  0.0140 -0.0164  0.3753
   11MOL   C101 4921   4.627   1.508   2.128  1.3134 -0.5617 -0.4072
   11MOL   C102 4922   4.657   1.362   2.145 -0.1464  0.1707 -0.4960
   11MOL   O103 4923   4.702   1.335   2.279  0.3391 -0.0283  0.6394
   11MOL   C104 4924   4.833   1.359   2.295 -0.3257 -0.4432 -0.2091
   11MOL   O105 4925   4.923   1.383   2.215 -0.0512  0.0805 -0.8011
   11MOL   C106 4926   4.857   1.347   2.441 -0.6325  0.3532  0.6195
   11MOL   C107 4927   4.917   1.474   2.491 -0.7416 -0.3759  0.0601
   11MOL   C108 4928   4.815   1.584   2.505 -1.4247  0.3232 -0.9057
   11MOL   O109 4929   4.733   1.578   2.588  0.1341  0.3325 -0.3507
   11MOL   H110 4930   4.571   1.722   1.950  0.2531  1.7552  1.2124
   11MOL   H111 4931   4.476   1.726   2.101 -1.1539  1.1369 -1.0919
   11MOL   H112 4932   4.531   1.481   1.932 -1.1624 -1.7388  1.0132
   11MOL   H113 4933   4.421   1.492   2.075  0.9351 -0.7185  1.5554
   11MOL   H114 4934   4.597   1.552   2.223 -1.0369 -0.6151 -1.1018
   11MOL   H115 4935   4.709   1.570   2.092  0.5305  2.6685  3.1222
   11MOL   H116 4936   4.566   1.308   2.117 -1.0341  1.9321 -1.0651
   11MOL   H117 4937   4.731   1.340   2.069 -0.0979 -0.1237 -0.3645
   11MOL   H118 4938   4.919   1.258   2.453  0.5541  0.6681 -2.7843
   11MOL   H119 4939   4.759   1.323   2.484  0.4447 -0.9177  2.4565
   11MOL   H120 4940   4.974   1.456   2.582  0.2292 -1.4215 -0.7267
   11MOL   H121 4941   4.991   1.515   2.422 -1.4350  2.9419  1.2241
   11MOL   O122 4942   4.839   1.698   2.427 -0.6292  0.2039 -0.3421
   11MOL   C123 4943   4.747   1.804   2.437 -0.4041  0.0381 -0.0498
   11MOL   C124 4944   4.720   1.858   2.289  0.6764  0.1466  0.3307
   11MOL   C125 4945   4.606   1.966   2.271 -0.2781  0.3275  0.2502
   11MOL   C126 4946   4.638   2.109   2.303 -0.2690  0.1175  0.3619
   11MOL   O127 4947   4.745   2.148   2.216 -0.4131  0.6145  0.1475
   11MOL   C128 4948   4.797   2.273   2.236  0.5472 -0.7203 -0.1240
   11MOL   O129 4949   4.753   2.353   2.317  0.6018  0.3841 -0.2194
   11MOL   C130 4950   4.931   2.297   2.161 -0.6769 -0.2885  0.2107
   11MOL   C131 4951   4.979   2.448   2.164  0.6093  0.6963  0.6850
   11MOL   C132 4952   4.997   2.510   2.027 -0.1975  0.4714 -0.1686
   11MOL   O133 4953   5.076   2.456   1.950  0.7948  0.0725  0.0519
   11MOL   H134 4954   4.654   1.754   2.463 -0.2565  0.0970  0.5855
   11MOL   H135 4955   4.788   1.877   2.506  0.3956 -0.2699 -0.1915
   11MOL   H136 4956   4.688   1.782   2.218  2.0063 -0.4141  0.3201
   11MOL   H137 4957   4.810   1.893   2.240  0.4664 -1.1709 -1.0351
   11MOL   H138 4958   4.524   1.930   2.333 -1.7141  1.9196 -0.6804
   11MOL   H139 4959   4.563   1.964   2.171  0.2754 -0.2074  0.0204
   11MOL   H140 4960   4.557   2.178   2.279 -0.0905  0.5119  0.8692
   11MOL   H141 4961   4.639   2.136   2.409  0.2699  0.2598  0.3196
   11MOL   H142 4962   4.912   2.263   2.059  2.3490 -1.4073 -0.0133
   11MOL   H143 4963   5.012   2.238   2.203 -0.7488 -1.6683 -1.5135
   11MOL   H144 4964   4.938   2.519   2.235 -2.0334 -0.2040  0.1095
   11MOL   H145 4965   5.083   2.445   2.197  1.0389 -2.7429 -0.7593
   11MOL   O146 4966   4.920   2.617   1.998 -0.1937 -0.4533  0.1101
   11MOL   C147 4967   4.907   2.665   1.860 -0.5011  0.3349  0.8171
   11MOL   C148 4968   4.840   2.811   1.860 -0.2503 -0.8240 -0.0156
   11MOL   C149 4969   4.924   2.919   1.927  0.2085  0.1141  0.3752
   11MOL   C150 4970   4.876   3.061   1.904 -0.5717  0.1683 -0.2684
   11MOL   O151 4971   4.744   3.072   1.959  0.6374 -0.3322 -0.0149
   11MOL   C152 4972   4.693   3.203   1.954  1.0166 -0.1751  0.3698
   11MOL   O153 4973   4.739   3.304   1.900 -0.5573 -0.0016  0.4399
   11MOL   C154 4974   4.565   3.211   2.035  0.0404 -0.5868 -0.6254
   11MOL   C155 4975   4.564   3.341   2.119 -0.1910 -1.1798  0.4727
   11MOL   C156 4976   4.447   3.432   2.106 -0.0364  0.1969 -0.3242
   11MOL   O157 4977   4.338   3.382   2.121 -0.1057 -0.0875  0.1800
   11MOL   H158 4978   5.000   2.667   1.803 -0.5455  1.0467  0.7695
   11MOL   H159 4979   4.845   2.587   1.817  2.1540 -1.6254  0.3776
   11MOL   H160 4980   4.736   2.803   1.890 -0.4506 -0.1436 -0.5159
   11MOL   H161 4981   4.827   2.831   1.753  0.5926  2.0438  0.3771
   11MOL   H162 4982   5.026   2.909   1.892 -0.4599 -1.5839 -1.1368
   11MOL   H163 4983   4.932   2.896   2.033 -1.6464  0.4608  0.6118
   11MOL   H164 4984   4.941   3.139   1.944 -1.0681  0.1887  0.5131
   11MOL   H165 4985   4.863   3.077   1.797 -3.2173 -1.5485 -0.2417
   11MOL   H166 4986   4.561   3.130   2.108 -3.7934  1.1488  1.2870
   11MOL   H167 4987   4.468   3.207   1.985 -0.4691 -3.1518  0.4668
   11MOL   H168 4988   4.549   3.318   2.224  1.1533  2.4212  1.5545
   11MOL   H169 4989   4.665   3.383   2.114 -0.8411  0.2778 -0.6781
   11MOL   O170 4990   4.481   3.552   2.060  0.5363  0.1531  0.8665
   11MOL   C171 4991   4.382   3.646   2.015  0.5354  0.3387  0.2149
   11MOL   C172 4992   4.438   3.736   1.905  0.7975  0.1035  0.3651
   11MOL   C173 4993   4.560   3.824   1.935 -0.2271  0.5179  0.3272
   11MOL   C174 4994   4.606   3.904   1.810 -0.2528 -0.0754 -0.4895
   11MOL   O175 4995   4.662   3.806   1.724  0.5913 -0.2523  0.4162
   11MOL   C176 4996   4.696   3.841   1.598  0.7861 -0.5932  0.6866
   11MOL   O177 4997   4.667   3.951   1.544 -0.4690 -0.5805 -0.8097
   11MOL   C178 4998   4.757   3.729   1.526 -0.8892  0.0149  0.4184
   11MOL   C179 4999   4.664   3.646   1.442 -0.1387  0.2214 -0.6100
   11MOL   C180 5000   4.626   3.518   1.521 -0.4609 -0.4866  0.4970
   11MOL   O181 5001   4.658   3.410   1.479  0.0958 -0.5486 -0.6634
   11MOL   H182 5002   4.293   3.592   1.981 -0.6209  1.3041  1.5975
   11MOL   H183 5003   4.338   3.711   2.091  0.3574  1.4512 -0.8103
   11MOL   H184 5004   4.367   3.807   1.864  0.4009 -0.0766  0.7412
   11MOL   H185 5005   4.449   3.673   1.817 -1.4069 -1.1092  0.9414
   11MOL   H186 5006   4.642   3.768   1.980 -0.6574  0.8515  1.5648
   11MOL   H187 5007   4.540   3.882   2.026  0.2061  0.0087  0.7496
   11MOL   H188 5008   4.528   3.956   1.755  0.1369  3.3572  2.0588
   11MOL   H189 5009   4.687   3.964   1.852 -0.8543  0.4862 -0.1283
   11MOL   H190 5010   4.805   3.670   1.604 -1.2793 -2.2914 -1.0265
   11MOL   H191 5011   4.844   3.766   1.472  0.4930 -1.0807  1.8158
   11MOL   H192 5012   4.573   3.702   1.425 -0.2760  0.4338  0.8157
   11MOL   H193 5013   4.705   3.621   1.344  0.7211 -1.2426  0.0910
   11MOL   O194 5014   4.567   3.548   1.633  0.7813 -0.0291 -0.3031
   11MOL   C195 5015   4.550   3.450   1.727  0.4046 -0.0008 -0.1333
   11MOL   C196 5016   4.406   3.403   1.739 -0.2403  0.0700 -0.0987
   11MOL   C197 5017   4.353   3.342   1.610  0.5671  0.1387 -0.2068
   11MOL   C198 5018   4.200   3.317   1.610 -1.0265  0.4674 -0.4595
   11MOL   O199 5019   4.151   3.302   1.476  0.2647 -0.4905  0.0571
   11MOL   C200 5020   4.092   3.194   1.424  0.2790 -0.0771 -0.2522
   11MOL   O201 5021   4.072   3.094   1.489  0.2851 -0.2292 -0.1705
   11MOL   C202 5022   4.054   3.201   1.279 -0.2536  0.1297  1.6646
   11MOL   C203 5023   3.921   3.123   1.246  0.3234 -0.0837 -0.1585
   11MOL   C204 5024   3.951   3.015   1.147  0.1284  0.5106  0.0970
   11MOL   O205 5025   4.017   3.028   1.045 -0.5496  0.5967  0.1186
   11MOL   H206 5026   4.618   3.367   1.707 -0.3978 -0.5928 -0.4319
   11MOL   H207 5027   4.579   3.488   1.825 -0.4708 -2.2468  1.0431
   11MOL   H208 5028   4.346   3.488   1.771  0.5210  0.1516  1.1528
   11MOL   H209 5029   4.416   3.332   1.821 -4.2924 -0.5305 -0.0046
   11MOL   H210 5030   4.398   3.243   1.620  0.7117  0.2259  0.0125
   11MOL   H211 5031   4.385   3.394   1.520 -0.2091 -1.4783 -1.4319
   11MOL   H212 5032   4.176   3.232   1.674  0.6398  1.9104  2.1702
   11MOL   H213 5033   4.156   3.410   1.646  0.4933  0.8419  0.4865
   11MOL   H214 5034   4.148   3.172   1.230 -0.8135  0.6420  0.2563
   11MOL   H215 5035   4.046   3.309   1.272  0.5457  0.0648 -1.2231
   11MOL   H216 5036   3.869   3.078   1.331 -2.1280  1.4691 -0.7956
   11MOL   H217 5037   3.846   3.193   1.210 -1.8788 -2.6833 -0.8064
   11MOL   O218 5038   3.888   2.905   1.181 -0.4040  0.2185  0.0673
   11MOL   C219 5039   3.872   2.801   1.088 -0.1305 -0.5911  0.0608
   11MOL   C220 5040   3.922   2.665   1.145  0.4713 -0.5123  0.2911
   11MOL   C221 5041   3.809   2.563   1.165 -0.5076 -0.4576 -0.7544
   11MOL   C222 5042   3.865   2.421   1.187  0.0789 -0.0732 -0.0833
   11MOL   O223 5043   3.757   2.319   1.198  0.3564 -0.1519  0.5612
   11MOL   C224 5044   3.698   2.313   1.318 -0.1648 -0.9266  0.0622
   11MOL   O225 5045   3.716   2.392   1.414  0.4081  0.0395  0.1385
   11MOL   C226 5046   3.606   2.195   1.337 -0.6876 -0.4686 -0.4414
   11MOL   C227 5047   3.676   2.101   1.439  0.7299 -0.2123  0.0234
   11MOL   C228 5048   3.711   1.961   1.381  0.5630  0.0683  0.1018
   11MOL   O229 5049   3.679   1.854   1.437  0.4288  0.0709  0.1163
   11MOL   H230 5050   3.768   2.791   1.060 -0.6560 -0.3184  1.8252
   11MOL   H231 5051   3.924   2.819   0.994  0.1018 -1.6806 -0.0218
   11MOL   H232 5052   3.970   2.700   1.237 -0.9647 -0.5938  1.0785
   11MOL   H233 5053   3.988   2.624   1.069  1.2206 -0.3414  0.8467
   11MOL   H234 5054   3.742   2.577   1.080 -0.3216 -1.0270 -0.9980
   11MOL   H235 5055   3.745   2.579   1.251 -0.2500 -2.1869 -0.2210
   11MOL   H236 5056   3.930   2.402   1.101  1.9646  1.7355  0.9132
   11MOL   H237 5057   3.936   2.409   1.268  1.0054  0.0511 -0.8677
   11MOL   H238 5058   3.579   2.148   1.242 -1.4810  1.2046 -1.0708
   11MOL   H239 5059   3.511   2.235   1.372 -0.0532  0.2819  0.4453
   11MOL   H240 5060   3.760   2.153   1.485 -0.2993  2.4816 -1.0683
   11MOL   H241 5061   3.601   2.075   1.514 -0.4052 -1.1856 -1.4210
   11MOL   O242 5062   3.781   1.964   1.261  0.7050 -0.1084  0.5871
   11MOL   C243 5063   3.818   1.847   1.193  0.2002  0.5055 -0.0859
   11MOL   C244 5064   3.869   1.881   1.055 -0.3941 -0.0912 -0.2718
   11MOL   C245 5065   3.771   1.963   0.972  0.1790 -0.6410 -1.0858
   11MOL   C246 5066   3.837   2.053   0.863 -0.2661 -0.2824  0.3352
   11MOL   O247 5067   3.743   2.102   0.764 -0.3044  0.2746  0.7405
   11MOL   C248 5068   3.740   2.046   0.639  0.2568  0.1708 -0.1381
   11MOL   O249 5069   3.802   1.949   0.597  0.0889 -0.1369  0.9600
   11MOL   C250 5070   3.640   2.133   0.563  0.4220 -0.7343 -0.1634
   11MOL   C251 5071   3.498   2.112   0.621  0.2402  0.2513  0.8484
   11MOL   C252 5072   3.420   2.035   0.508 -0.2256 -0.1305  0.6698
   11MOL   O253 5073   3.473   1.953   0.433 -0.3164 -0.2945 -0.0225
   11MOL   H254 5074   3.886   1.789   1.256 -2.0244 -1.6672  0.3854
   11MOL   H255 5075   3.728   1.793   1.164  1.3478 -0.7395 -1.3909
   11MOL   H256 5076   3.882   1.787   1.000 -0.2064  0.4881 -1.2187
   11MOL   H257 5077   3.961   1.936   1.073  0.0848 -1.1394  0.5563
   11MOL   H258 5078   3.708   2.031   1.028 -0.4624 -4.0255  2.5042
   11MOL   H259 5079   3.699   1.893   0.930 -1.1047  1.2138 -2.0552
   11MOL   H260 5080   3.888   2.139   0.907  0.6917 -0.9203  0.4803
   11MOL   H261 5081   3.911   1.985   0.822  0.8665 -0.8296  3.1740
   11MOL   H262 5082   3.650   2.126   0.455  1.2508  0.0599 -0.1529
   11MOL   H263 5083   3.665   2.237   0.587 -1.2737 -0.4879  0.5940
   11MOL   H264 5084   3.487   2.065   0.719  0.8852  1.3697  1.4660
   11MOL   H265 5085   3.441   2.205   0.623 -0.0156  0.0921  0.9455
   11MOL   O266 5086   3.286   2.051   0.519  0.4219 -0.4075 -0.1779
   11MOL   C267 5087   3.204   1.982   0.432 -0.1562 -0.0024  0.3694
   11MOL   C268 5088   3.059   2.020   0.461 -0.6217  0.4744  0.6600
   11MOL   C269 5089   3.021   2.159   0.408  0.1843 -0.5229 -0.6627
   11MOL   C270 5090   2.871   2.183   0.446  0.1105 -0.1474  0.1553
   11MOL   O271 5091   2.827   2.305   0.389  0.6140  0.2538 -0.4420
   11MOL   C272 5092   2.845   2.422   0.444 -0.8515 -0.5737 -0.0729
   11MOL   O273 5093   2.915   2.450   0.545  0.0161  0.2352  0.2408
   11MOL   C274 5094   2.781   2.536   0.360 -0.7466  0.9265  0.0455
   11MOL   C275 5095   2.631   2.517   0.328 -0.4001  0.9579 -0.1437
   11MOL   C276 5096   2.536   2.552   0.442  0.4487  1.5974 -0.2272
   11MOL   O277 5097   2.455   2.473   0.494 -0.1151  0.6937 -0.4148
   11MOL   H278 5098   3.231   2.005   0.329 -1.8253  1.5200  0.2561
   11MOL   H279 5099   3.223   1.875   0.441 -0.2430 -0.0732 -0.2323
   11MOL   H280 5100   3.057   2.021   0.570 -0.1729  1.7191  0.6667
   11MOL   H281 5101   2.994   1.940   0.424  0.8322 -1.2574  1.7888
   11MOL   H282 5102   3.019   2.172   0.300 -0.3881  0.6100 -0.5276
   11MOL   H283 5103   3.083   2.230   0.461  0.6120 -0.0882 -1.7349
   11MOL   H284 5104   2.804   2.102   0.414  1.4749 -0.7454 -1.3144
   11MOL   H285 5105   2.868   2.185   0.554 -1.6851  1.4089  0.1031
   11MOL   H286 5106   2.848   2.526   0.275 -1.5856 -0.0572 -0.5019
   11MOL   H287 5107   2.793   2.630   0.414  2.2260 -0.4586  1.9323
   11MOL   H288 5108   2.598   2.582   0.246 -3.3730  0.8157  0.8813
   11MOL   H289 5109   2.617   2.420   0.282 -2.9390  0.6479  1.2022
   11MOL   O290 5110   2.564   2.673   0.488  0.1491 -0.2891  0.1297
   11MOL   C291 5111   2.505   2.714   0.609  0.5101  0.1429 -0.1595
   11MOL   C292 5112   2.575   2.849   0.634  0.2835 -0.6517  0.0903
   11MOL   C293 5113   2.714   2.837   0.695 -0.3844  0.2898 -0.4766
   11MOL   C294 5114   2.761   2.960   0.770  0.0151  0.0210  0.2722
   11MOL   O295 5115   2.863   2.915   0.859  0.8054  0.7994 -0.1259
   11MOL   C296 5116   2.933   3.002   0.928  0.3582 -0.1363  0.4649
   11MOL   O297 5117   2.910   3.126   0.944 -0.0737 -0.1449 -0.0169
   11MOL   C298 5118   3.049   2.935   0.993 -0.1064 -0.5299 -0.3767
   11MOL   C299 5119   3.006   2.864   1.121  0.4844  0.4428 -0.1307
   11MOL   C300 5120   2.952   2.719   1.106  1.3249 -0.5857 -0.7995
   11MOL   O301 5121   2.966   2.660   1.004 -0.9351  0.4125  0.7316
   11MOL   H302 5122   2.400   2.739   0.595 -0.0177 -1.4297  0.8771
   11MOL   H303 5123   2.508   2.642   0.690 -0.3064  1.9508  1.5210
   11MOL   H304 5124   2.507   2.896   0.705 -0.8316  0.0671 -1.4269
   11MOL   H305 5125   2.575   2.919   0.551 -1.5509 -0.7398 -0.0164
   11MOL   H306 5126   2.791   2.801   0.626 -1.7312 -1.9809 -0.8673
   11MOL   H307 5127   2.708   2.753   0.765  0.8558 -0.1640 -0.8993
   11MOL   H308 5128   2.806   3.025   0.695  0.6612  0.8726  1.3817
   11MOL   H309 5129   2.681   3.025   0.805  1.0100  1.8399 -0.7766
   11MOL   H310 5130   3.125   3.012   1.010 -0.8914 -0.0598  1.1152
   11MOL   H311 5131   3.096   2.857   0.934  0.3493 -0.9069  0.4672
   11MOL   H312 5132   3.093   2.862   1.185  0.7184 -0.8851 -0.4889
   11MOL   H313 5133   2.927   2.911   1.180  0.4515 -0.2960  0.4124
   11MOL   O314 5134   2.902   2.663   1.228 -0.2093 -0.2423 -0.1646
   11MOL   C315 5135   2.859   2.533   1.241 -0.9030 -0.1829  0.2155
   11MOL   C316 5136   2.870   2.481   1.381  0.0384 -0.1217 -0.0552
   11MOL   C317 5137   2.790   2.555   1.496  0.6142  0.0756  0.3390
   11MOL   C318 5138   2.645   2.511   1.501  0.1914  0.6681 -0.7808
   11MOL   O319 5139   2.584   2.569   1.615  0.6510 -0.0267 -0.3580
   11MOL   C320 5140   2.535   2.690   1.593  0.2845 -0.1763  0.0937
   11MOL   O321 5141   2.550   2.766   1.497 -0.1763  0.0433 -0.0113
   11MOL   C322 5142   2.454   2.723   1.716 -0.3111  0.0888 -0.2583
   11MOL   C323 5143   2.310   2.676   1.706 -0.0221  0.0240 -0.1056
   11MOL   C324 5144   2.207   2.789   1.673 -0.2695  0.5941  0.2491
   11MOL   O325 5145   2.113   2.805   1.752  0.1178  0.1755 -0.7127
   11MOL   H326 5146   2.752   2.532   1.223 -0.9879 -1.3356  0.7297
   11MOL   H327 5147   2.906   2.467   1.168 -3.4061 -0.7660 -0.9141
   11MOL   H328 5148   2.976   2.466   1.401  0.5518  0.3634 -2.2996
   11MOL   H329 5149   2.830   2.379   1.383  0.9787 -0.4981  0.0488
   11MOL   H330 5150   2.786   2.659   1.462  2.5596 -0.5853 -2.0845
   11MOL   H331 5151   2.840   2.543   1.592  0.3978  0.8515  0.5537
   11MOL   H332 5152   2.590   2.541   1.412 -0.3795  0.1742 -0.5985
   11MOL   H333 5153   2.629   2.405   1.517  0.2054  0.9207  1.0389
   11MOL   H334 5154   2.462   2.830   1.736 -0.6555 -0.1350  1.1385
   11MOL   H335 5155   2.500   2.666   1.796 -1.2509 -1.7128 -0.9817
   11MOL   H336 5156   2.304   2.591   1.638 -2.1322  0.7507 -0.8940
   11MOL   H337 5157   2.274   2.632   1.799 -1.1565  0.0205 -0.5281
   11MOL   O338 5158   2.232   2.852   1.560 -0.3042  0.3632 -0.3295
   11MOL   C339 5159   2.162   2.964   1.528 -0.9226  0.6316  0.0443
   11MOL   C340 5160   2.248   3.045   1.431 -0.5379  0.3874  0.2192
   11MOL   C341 5161   2.216   3.193   1.412  0.0158 -0.1397  0.5585
   11MOL   C342 5162   2.302   3.261   1.299 -0.6616  0.9709 -0.5390
   11MOL   O343 5163   2.257   3.211   1.172 -0.0024 -0.2833 -0.2765
   11MOL   C344 5164   2.177   3.283   1.095 -0.1479  0.3534 -0.6618
   11MOL   O345 5165   2.128   3.391   1.126  0.2046 -0.4875  0.0797
   11MOL   C346 5166   2.132   3.210   0.966  0.1004  0.1998  0.1720
   11MOL   C347 5167   2.073   3.073   0.992 -0.4483  0.1102 -0.3642
   11MOL   C348 5168   2.124   2.955   0.911  0.2261 -0.4981 -0.8698
   11MOL   O349 5169   2.232   2.965   0.854 -0.0174 -0.4135  0.6094
   11MOL   H350 5170   2.071   2.925   1.484 -1.1706  0.0774  1.0380
   11MOL   H351 5171   2.141   3.022   1.618 -0.5732 -0.8288  1.0963
   11MOL   H352 5172   2.228   2.986   1.342  0.8555 -2.4992  1.7216
   11MOL   H353 5173   2.351   3.029   1.464 -1.4270 -1.5958  2.2402
   11MOL   H354 5174   2.244   3.247   1.502  1.2183  1.0240 -0.4923
   11MOL   H355 5175   2.109   3.199   1.392 -0.1029 -1.1885  0.8724
   11MOL   H356 5176   2.287   3.369   1.298 -0.2178  1.0294 -0.8795
   11MOL   H357 5177   2.407   3.240   1.316 -0.5806  1.1591 -0.8142
   11MOL   H358 5178   2.218   3.200   0.901 -0.0617 -4.5482  0.5311
   11MOL   H359 5179   2.064   3.282   0.919  2.5743  0.8625 -2.4985
   11MOL   H360 5180   2.084   3.058   1.100  1.0522  2.2332 -0.2119
   11MOL   H361 5181   1.966   3.084   0.973 -0.8353  0.8724  2.0376
   11MOL   O362 5182   2.040   2.850   0.925 -0.6518  0.2163 -0.0445
   11MOL   C363 5183   2.073   2.727   0.866 -0.0877  0.7361  0.1148
   11MOL   C364 5184   1.981   2.616   0.927 -0.0936  0.2704  0.3554
   11MOL   C365 5185   1.854   2.607   0.849  0.7069  0.1151  0.0358
   11MOL   C366 5186   1.759   2.484   0.890  0.0113  0.8863 -0.0668
   11MOL   O367 5187   1.711   2.497   1.024  0.3241  0.3819  0.3842
   11MOL   C368 5188   1.751   2.405   1.108  0.4526 -1.2243 -0.2750
   11MOL   O369 5189   1.829   2.314   1.086  0.0035 -0.0373 -0.0073
   11MOL   C370 5190   1.686   2.422   1.248  0.0942 -0.0990  0.0203
   11MOL   C371 5191   1.544   2.357   1.259 -0.0440 -0.9466  0.2310
   11MOL   C372 5192   1.438   2.433   1.176  0.6995  0.4539  1.2174
   11MOL   O373 5193   1.389   2.387   1.074 -0.0035 -0.3199  0.2823
   11MOL   H374 5194   2.066   2.734   0.758  0.8553 -0.4587 -0.0304
   11MOL   H375 5195   2.177   2.704   0.888  0.1204  2.0994  0.5936
   11MOL   H376 5196   1.966   2.610   1.035 -1.2956 -1.0952  0.1239
   11MOL   H377 5197   2.028   2.518   0.917 -1.2061 -0.3888  1.5076
   11MOL   H378 5198   1.870   2.606   0.741  2.2041  0.2262  0.2452
   11MOL   H379 5199   1.788   2.690   0.874 -3.6829 -3.1778 -0.0097
   11MOL   H380 5200   1.671   2.466   0.828 -0.7530 -1.6839  1.7051
   11MOL   H381 5201   1.817   2.393   0.877  1.7402  1.8276  0.8768
   11MOL   H382 5202   1.681   2.531   1.248  0.6858 -0.0715  0.3691
   11MOL   H383 5203   1.749   2.379   1.326  1.6213 -0.9098 -1.6131
   11MOL   H384 5204   1.551   2.254   1.223 -1.5000 -0.4733 -1.4945
   11MOL   H385 5205   1.500   2.362   1.359 -0.5190  1.6836 -0.0721
   11MOL   O386 5206   1.398   2.544   1.239  0.3348  0.0691  0.4009
   11MOL   C387 5207   1.312   2.628   1.166 -0.2940  0.2022  0.3712
   11MOL   C388 5208   1.258   2.724   1.273  0.0806  0.1164  0.0947
   11MOL   C389 5209   1.368   2.816   1.327 -0.2155 -0.4335 -0.2515
   11MOL   C390 5210   1.307   2.921   1.423  0.4810  0.3405  0.1072
   11MOL   O391 5211   1.414   3.004   1.480 -0.2385 -0.1763  0.3850
   11MOL   C392 5212   1.384   3.078   1.588 -0.3654 -0.4083 -0.1817
   11MOL   O393 5213   1.275   3.068   1.646 -0.0103 -0.3291  0.3653
   11MOL   C394 5214   1.492   3.179   1.642 -0.0671  0.1002  0.3123
   11MOL   C395 5215   1.609   3.205   1.544 -0.6488  0.3720  0.5020
   11MOL   C396 5216   1.728   3.262   1.618 -0.8168  0.2543 -0.2239
   11MOL   O397 5217   1.821   3.192   1.648 -0.1373 -0.2566  0.0705
   11MOL   H398 5218   1.371   2.687   1.095  0.8573 -1.6305 -0.2355
   11MOL   H399 5219   1.234   2.576   1.110 -0.7568 -0.2797  1.4644
   11MOL   H400 5220   1.198   2.667   1.345 -1.9621  0.9443 -0.9128
   11MOL   H401 5221   1.185   2.788   1.224  2.1041  1.0894 -1.7273
   11MOL   H402 5222   1.416   2.868   1.244 -0.0653  0.2724  0.2710
   11MOL   H403 5223   1.433   2.756   1.389 -1.4280 -1.9916 -0.4738
   11MOL   H404 5224   1.223   2.971   1.375 -0.4446 -3.2949 -2.2908
   11MOL   H405 5225   1.260   2.864   1.503 -0.3716  0.0539 -0.5963
   11MOL   H406 5226   1.531   3.136   1.735  2.4308  1.3964 -0.1169
   11MOL   H407 5227   1.441   3.269   1.675  0.6641  0.3603  0.7396
   11MOL   H408 5228   1.641   3.109   1.503  1.5350  1.6308 -0.8301
   11MOL   H409 5229   1.589   3.274   1.462  1.6430 -0.5477 -0.8811
   11MOL   O410 5230   1.718   3.390   1.659  0.1431  0.2151 -0.1531
   11MOL   C411 5231   1.825   3.441   1.743 -0.2805 -0.4508  0.8008
   11MOL   C412 5232   1.932   3.508   1.658  0.2076  0.1955 -0.3114
   11MOL   C413 5233   1.882   3.632   1.580  0.5295 -0.0211  0.8455
   11MOL   C414 5234   1.997   3.706   1.508 -0.0115 -0.0029 -0.1237
   11MOL   O415 5235   1.945   3.813   1.435  0.3524 -0.3953 -0.1137
   11MOL   C416 5236   2.029   3.924   1.406 -0.3289  0.2839  0.1751
   11MOL   O417 5237   2.145   3.936   1.435 -0.3208 -0.8043  0.2086
   11MOL   C418 5238   1.967   4.034   1.322 -0.0982  0.8725  0.2500
   11MOL   C419 5239   1.978   4.008   1.165  0.2280  0.0359  0.8525
   11MOL   C420 5240   1.889   4.114   1.096  0.1520  0.2595  0.2128
   11MOL   O421 5241   1.869   4.221   1.147  0.0432  0.4448  0.4794
   11MOL   H422 5242   1.784   3.496   1.827 -1.6630 -0.9600  0.4764
   11MOL   H423 5243   1.875   3.357   1.791  2.5267  0.1685 -0.9015
   11MOL   H424 5244   1.971   3.442   1.581  3.7998 -1.4199  2.7245
   11MOL   H425 5245   2.019   3.527   1.721  0.2178  0.5157 -0.4180
   11MOL   H426 5246   1.827   3.706   1.638 -0.0069 -0.1384  0.4941
   11MOL   H427 5247   1.818   3.597   1.498 -0.3364 -0.7371  1.8148
   11MOL   H428 5248   2.069   3.750   1.578  0.8385  0.6126 -1.3668
   11MOL   H429 5249   2.059   3.648   1.440  2.3030  1.5186  0.6008
   11MOL   H430 5250   1.993   4.138   1.342 -3.5423  1.7277  0.6616
   11MOL   H431 5251   1.863   4.044   1.354  0.0189 -1.2386  1.3575
   11MOL   H432 5252   2.077   4.023   1.121  0.5611  0.7365  1.8307
   11MOL   H433 5253   1.947   3.906   1.139  0.1667  0.2654  0.0042
   11MOL   O434 5254   1.852   4.070   0.978  0.7491 -0.5235  0.1832
   11MOL   C435 5255   1.766   4.154   0.904  0.3595  0.3019 -1.0361
   11MOL   C436 5256   1.760   4.101   0.755 -0.8808 -0.2787 -0.2265
   11MOL   C437 5257   1.899   4.097   0.692 -0.1899  0.1504  0.3951
   11MOL   C438 5258   1.905   4.034   0.555  0.0372 -0.1102  0.2082
   11MOL   O439 5259   1.864   3.897   0.570  0.6737  0.3283  0.8706
   11MOL   C440 5260   1.802   3.834   0.465 -0.2901  0.3428  0.4642
   11MOL   O441 5261   1.776   3.885   0.355  0.2371 -0.2490  0.3118
   11MOL   C442 5262   1.766   3.688   0.499  0.2628  0.3208  0.2330
   11MOL   C443 5263   1.793   3.600   0.377  0.3039  0.3606 -0.1787
   11MOL   C444 5264   1.926   3.532   0.378 -0.5048 -0.4755  0.0393
   11MOL   O445 5265   2.020   3.592   0.319  1.1161 -0.3644 -0.1691
   11MOL   H446 5266   1.664   4.148   0.942  1.3652 -1.5080  1.5644
   11MOL   H447 5267   1.789   4.260   0.918  0.6078  0.0940  0.2664
   11MOL   H448 5268   1.700   4.159   0.684  1.0119 -0.4838 -2.0521
   11MOL   H449 5269   1.716   4.002   0.761  0.8904 -1.1448 -1.4207
   11MOL   H450 5270   1.955   4.026   0.753 -2.3497 -1.4578  0.5732
   11MOL   H451 5271   1.954   4.190   0.675  0.3498 -0.4592 -1.1967
   11MOL   H452 5272   1.846   4.091   0.484  0.6626  0.3572  0.0624
   11MOL   H453 5273   2.007   4.030   0.518 -0.5640  2.7624 -1.8971
   11MOL   H454 5274   1.663   3.672   0.532 -0.6733 -0.1428 -2.7353
   11MOL   H455 5275   1.834   3.649   0.574 -0.8422 -2.0181  0.0596
   11MOL   H456 5276   1.717   3.522   0.375  0.5004  0.1836 -1.4719
   11MOL   H457 5277   1.788   3.650   0.280  2.6488 -0.5060 -0.7866
   11MOL   O458 5278   1.919   3.412   0.428 -0.1117 -0.5216 -0.4690
   11MOL   C459 5279   2.027   3.321   0.424 -0.2118 -0.1091 -0.6245
   11MOL   C460 5280   2.007   3.196   0.508  0.7606  0.9190  0.2757
   11MOL   C461 5281   2.106   3.076   0.478  1.0145  0.3914 -0.2106
   11MOL   C462 5282   2.048   2.963   0.384 -0.3155  0.1850 -0.5610
   11MOL   O463 5283   2.149   2.871   0.350 -0.0473  0.0960  0.3073
   11MOL   C464 5284   2.114   2.744   0.314 -0.2681 -0.3178 -0.1198
   11MOL   O465 5285   2.002   2.710   0.300 -0.0405 -0.3232 -0.1368
   11MOL   C466 5286   2.226   2.645   0.283  0.3565  0.2236 -0.3145
   11MOL   C467 5287   2.286   2.654   0.137  0.4097  0.1211  0.2315
   11MOL   C468 5288   2.221   2.555   0.044  0.1711  0.2607  0.3265
   11MOL   O469 5289   2.100   2.532   0.039  0.3540  0.1770 -0.2959
   11MOL   H470 5290   2.041   3.290   0.320 -1.8030  0.2409 -0.9663
   11MOL   H471 5291   2.118   3.369   0.459  0.0223  0.2838 -1.7609
   11MOL   H472 5292   1.904   3.160   0.517  1.7807 -1.4231  3.3707
   11MOL   H473 5293   2.022   3.223   0.612 -0.2111 -0.5619  0.8289
   11MOL   H474 5294   2.130   3.029   0.574 -0.7281 -2.3585 -1.0640
   11MOL   H475 5295   2.201   3.108   0.436  0.5012  1.5780 -0.4695
   11MOL   H476 5296   1.962   2.912   0.429 -0.4109 -0.3080 -1.3034
   11MOL   H477 5297   2.001   2.999   0.292  2.2952  1.1528 -1.5713
   11MOL   H478 5298   2.200   2.540   0.289  2.3005 -0.2119  1.1200
   11MOL   H479 5299   2.298   2.654   0.365  0.1630 -0.8371 -0.0206
   11MOL   H480 5300   2.288   2.756   0.099  2.7845  1.8075  4.5284
   11MOL   H481 5301   2.390   2.623   0.136  0.1724 -0.6923  0.2593
   11MOL   H482 5302   2.283   2.494   7.853  1.8254  0.3916  1.7303
   12MOL     O1 5303   4.337   3.989   6.759  0.0482  0.5301  0.5869
   12MOL     C2 5304   4.291   3.878   6.821  0.1292  0.2827 -0.7008
   12MOL     C3 5305   4.323   3.885   6.975 -0.3142  0.3889  0.3105
   12MOL     C4 5306   4.257   3.771   7.041  0.5031  0.3089 -0.4882
   12MOL     C5 5307   4.243   3.796   7.189  0.1196 -0.0226  0.1603
   12MOL     O6 5308   4.262   3.676   7.266 -0.1668 -0.7484 -0.6463
   12MOL     C7 5309   4.221   3.678   7.392 -0.4050  0.6342  0.1904
   12MOL     O8 5310   4.165   3.770   7.451  0.7300  0.3527 -0.0723
   12MOL     C9 5311   4.253   3.542   7.462  0.4719  0.2240 -0.1440
   12MOL    C10 5312   4.393   3.539   7.534  0.1424 -0.4838 -0.0536
   12MOL    C11 5313   4.384   3.502   7.682  0.3081 -0.0162  0.5326
   12MOL    O12 5314   4.453   3.561   7.764  0.3837 -0.2374  0.2831
   12MOL    H13 5315   4.184   3.862   6.809 -0.0756 -0.7058  2.0043
   12MOL    H14 5316   4.339   3.794   6.770  1.5166 -0.2783  1.4539
   12MOL    H15 5317   4.290   3.984   7.006 -1.7465  0.5081 -1.5182
   12MOL    H16 5318   4.430   3.871   6.993 -0.1061  2.1693  0.5036
   12MOL    H17 5319   4.309   3.677   7.022 -0.5220 -0.6536  1.3219
   12MOL    H18 5320   4.156   3.755   7.004  0.0411 -0.4021  1.0446
   12MOL    H19 5321   4.319   3.871   7.211  0.5579 -0.5401  0.4511
   12MOL    H20 5322   4.145   3.841   7.202  0.9395  1.4168  1.5882
   12MOL    H21 5323   4.250   3.459   7.392  0.1040 -1.4180  1.7947
   12MOL    H22 5324   4.179   3.519   7.538 -1.7977  0.7461 -2.1273
   12MOL    H23 5325   4.453   3.464   7.483  0.7621  0.7372 -1.1381
   12MOL    H24 5326   4.443   3.635   7.529 -1.8321  0.5563 -0.5637
   12MOL    H25 5327   4.430   4.003   6.763  0.1897  1.0887 -3.0346
   12MOL    O26 5328   4.290   3.408   7.717 -0.4356 -0.2629 -0.1796
   12MOL    C27 5329   4.281   3.360   7.848  0.4621  0.5138  0.1738
   12MOL    C28 5330   4.185   3.439   0.058 -0.0424  0.3320  0.4293
   12MOL    C29 5331   4.039   3.404   0.032 -0.8954 -0.0589 -0.1891
   12MOL    C30 5332   3.938   3.489   0.115 -0.1680 -0.0483 -0.9690
   12MOL    O31 5333   3.950   3.464   0.256  0.1418  0.2315  0.2629
   12MOL    C32 5334   3.854   3.520   0.337 -0.3925 -0.1790 -0.1435
   12MOL    O33 5335   3.745   3.565   0.303  0.6440  0.1352 -0.3837
   12MOL    C34 5336   3.898   3.525   0.476  0.4060 -0.6755 -0.2254
   12MOL    C35 5337   3.820   3.413   0.543  0.2996  0.2493  0.2286
   12MOL    C36 5338   3.921   3.307   0.580  0.4985 -0.7553 -0.0473
   12MOL    O37 5339   3.951   3.222   0.499  0.1066  0.0720  0.2408
   12MOL    H38 5340   4.264   3.252   7.856  1.8597  0.3226  0.7270
   12MOL    H39 5341   4.377   3.355   0.026  0.1260 -2.4201  0.6293
   12MOL    H40 5342   4.204   3.546   0.056  0.2241  0.2797  0.0923
   12MOL    H41 5343   4.200   3.413   0.163 -0.5572  0.8390  0.6360
   12MOL    H42 5344   4.003   3.304   0.055 -2.4982  0.8781  1.6365
   12MOL    H43 5345   4.008   3.440   7.809  0.6912  0.5367 -0.4812
   12MOL    H44 5346   3.946   3.597   0.107  0.1973 -0.1142 -1.4789
   12MOL    H45 5347   3.834   3.475   0.085 -0.6820  1.4555  0.0338
   12MOL    H46 5348   3.883   3.628   0.508 -1.5922 -0.8804 -0.4032
   12MOL    H47 5349   4.004   3.500   0.475  0.6009 -0.1170  2.2689
   12MOL    H48 5350   3.783   3.453   0.637  0.8544  0.9657  0.1441
   12MOL    H49 5351   3.737   3.377   0.482  1.0339  0.5289 -0.9680
   12MOL    O50 5352   3.967   3.321   0.706 -0.0011 -0.5487 -0.3712
   12MOL    C51 5353   4.066   3.239   0.753  0.6595  0.0216  0.0574
   12MOL    C52 5354   4.158   3.341   0.830  0.4435 -0.4150  0.4605
   12MOL    C53 5355   4.096   3.360   0.969  0.1495 -0.2416  0.4902
   12MOL    C54 5356   4.186   3.449   1.050 -0.0730 -0.1600 -0.4798
   12MOL    O55 5357   4.309   3.377   1.073  0.3975 -0.2274 -0.5130
   12MOL    C56 5358   4.406   3.441   1.127 -0.4643 -0.4550 -0.4138
   12MOL    O57 5359   4.404   3.548   1.187  0.0514  0.2214  0.0462
   12MOL    C58 5360   4.525   3.352   1.131  0.4124  0.1424  0.1246
   12MOL    C59 5361   4.647   3.432   1.075 -0.0732  0.0993 -0.7621
   12MOL    C60 5362   4.774   3.363   1.120  0.2376  0.2008  0.2560
   12MOL    O61 5363   4.842   3.411   1.209 -0.2555  0.0922 -0.2109
   12MOL    H62 5364   4.027   3.161   0.818 -1.6526  0.0501 -1.2231
   12MOL    H63 5365   4.117   3.190   0.670  1.6861 -0.0449  0.7131
   12MOL    H64 5366   4.179   3.430   0.771 -0.9483  0.8254  1.7760
   12MOL    H65 5367   4.255   3.299   0.856  0.0923 -1.9900 -0.6897
   12MOL    H66 5368   4.066   3.269   1.020 -0.3433 -1.0354 -1.1786
   12MOL    H67 5369   3.995   3.398   0.962  0.5124  0.8502  1.0712
   12MOL    H68 5370   4.205   3.543   0.997  0.3937 -0.1666 -0.3198
   12MOL    H69 5371   4.133   3.480   1.140 -1.4996  0.3464 -1.4635
   12MOL    H70 5372   4.515   3.257   1.078  0.8504 -0.5850  1.3204
   12MOL    H71 5373   4.547   3.323   1.233 -1.3115 -0.6836  0.2810
   12MOL    H72 5374   4.645   3.445   0.967  0.9902  1.7229 -0.6109
   12MOL    H73 5375   4.651   3.538   1.101 -0.1147  0.2960 -1.5737
   12MOL    O74 5376   4.800   3.246   1.051  0.2386 -0.1732 -0.2519
   12MOL    C75 5377   4.922   3.188   1.077  0.0473  0.0749 -0.5087
   12MOL    C76 5378   4.960   3.100   0.952  0.3304  0.5658 -0.3692
   12MOL    C77 5379   4.867   2.984   0.919  0.1532 -0.5805 -0.0609
   12MOL    C78 5380   4.927   2.884   0.815 -0.5199  0.1352  0.2489
   12MOL    O79 5381   5.041   2.814   0.857 -0.9230 -0.0941  0.0516
   12MOL    C80 5382   5.111   2.741   0.772  0.5977  0.5189  0.0585
   12MOL    O81 5383   5.083   2.741   0.657  0.1873 -0.1689  0.4412
   12MOL    C82 5384   5.204   2.645   0.841 -0.0142  0.3517 -0.3067
   12MOL    C83 5385   5.335   2.712   0.894 -0.1457 -0.4622  0.2874
   12MOL    C84 5386   5.441   2.713   0.783  0.5397 -0.1304 -0.8872
   12MOL    O85 5387   5.420   2.714   0.664 -0.3597  0.1445  0.2067
   12MOL    H86 5388   4.994   3.269   1.088 -0.1747  0.3139 -0.8010
   12MOL    H87 5389   4.912   3.134   1.171  2.1834  1.3069  0.4692
   12MOL    H88 5390   5.060   3.063   0.974 -0.3724  0.0324  2.1827
   12MOL    H89 5391   4.966   3.171   0.870  1.2146 -0.2757 -1.0558
   12MOL    H90 5392   4.773   3.027   0.883  0.3964  0.5721  0.6367
   12MOL    H91 5393   4.847   2.926   1.009  1.1052  0.7995  1.0618
   12MOL    H92 5394   4.851   2.807   0.801  0.1490 -0.2428 -1.5282
   12MOL    H93 5395   4.929   2.933   0.717 -0.5985 -0.3009  0.0259
   12MOL    H94 5396   5.238   2.569   0.770  0.9512 -1.0826  1.6439
   12MOL    H95 5397   5.145   2.608   0.924 -1.1957  0.9975 -0.8466
   12MOL    H96 5398   5.320   2.818   0.910  1.5789  0.0129 -1.0585
   12MOL    H97 5399   5.370   2.679   0.992 -1.0511 -1.3378  0.3207
   12MOL    O98 5400   5.566   2.726   0.835 -0.4356  0.6299  0.1348
   12MOL    C99 5401   5.678   2.725   0.743 -0.0573  0.0627  0.6445
   12MOL   C100 5402   5.755   2.594   0.750  0.1178  0.1922 -0.0587
   12MOL   C101 5403   5.891   2.597   0.662  0.1360 -1.0448 -0.0199
   12MOL   C102 5404   5.981   2.485   0.696  0.3134  1.1775  0.2579
   12MOL   O103 5405   6.061   2.518   0.806  0.2053 -0.4587 -0.5221
   12MOL   C104 5406   6.150   2.423   0.850  0.6820 -0.0411 -0.3299
   12MOL   O105 5407   6.159   2.314   0.791  0.5019 -0.1248 -0.3788
   12MOL   C106 5408   6.234   2.455   0.982 -0.5010 -0.3697  0.1148
   12MOL   C107 5409   6.267   2.318   1.054  0.4137 -0.3815 -0.4371
   12MOL   C108 5410   6.378   2.336   1.158 -0.0327  0.0667  0.9015
   12MOL   O109 5411   6.397   2.442   1.207 -0.8214 -0.7542  0.1587
   12MOL   H110 5412   5.642   2.740   0.642 -2.4541 -0.3060  1.4014
   12MOL   H111 5413   5.752   2.803   0.762  0.3143  0.1649 -1.1893
   12MOL   H112 5414   5.698   2.505   0.721 -0.4147  0.3926  0.3790
   12MOL   H113 5415   5.769   2.578   0.856 -0.4878 -1.6507 -0.2394
   12MOL   H114 5416   5.941   2.692   0.682 -2.3118 -0.2707  2.8339
   12MOL   H115 5417   5.855   2.590   0.560 -0.1279  1.5314 -0.1420
   12MOL   H116 5418   5.921   2.401   0.732 -0.0412  1.1597 -0.3670
   12MOL   H117 5419   6.029   2.450   0.604 -0.1280  0.1421  0.4151
   12MOL   H118 5420   6.180   2.521   1.050 -0.4662  2.8867 -2.8585
   12MOL   H119 5421   6.325   2.506   0.952 -0.4821 -1.1555 -1.2271
   12MOL   H120 5422   6.182   2.269   1.100  0.6747  0.5406  1.0800
   12MOL   H121 5423   6.301   2.241   0.985 -1.6217 -0.7969 -1.0145
   12MOL   O122 5424   6.441   2.226   1.193  0.3214 -0.0967 -0.3567
   12MOL   C123 5425   6.554   2.231   1.281  0.4233  0.3149  0.5369
   12MOL   C124 5426   6.617   2.097   1.310  0.3572 -0.1750  0.5890
   12MOL   C125 5427   6.685   2.030   1.185 -0.3020 -0.1974 -0.5302
   12MOL   C126 5428   6.815   2.090   1.145 -0.2099 -0.3812  0.0523
   12MOL   O127 5429   6.886   2.004   1.061 -0.2105 -0.1218 -0.2364
   12MOL   C128 5430   7.011   1.992   1.068 -0.1431  0.4546  0.1625
   12MOL   O129 5431   7.089   2.052   1.139  0.4667 -0.2011  0.1367
   12MOL   C130 5432   7.065   1.896   0.954 -0.5709 -0.2432 -0.4572
   12MOL   C131 5433   7.187   1.806   0.990 -0.6924  0.6468  0.0084
   12MOL   C132 5434   7.212   1.701   0.878 -0.0377  0.5060 -0.3080
   12MOL   O133 5435   7.203   1.721   0.760  0.1960 -0.2639 -0.5347
   12MOL   H134 5436   6.628   2.298   1.238  3.7290 -3.7858 -0.4970
   12MOL   H135 5437   6.521   2.278   1.374 -2.6326 -0.6676  0.0182
   12MOL   H136 5438   6.545   2.029   1.355 -1.4310  1.1578 -0.1957
   12MOL   H137 5439   6.693   2.127   1.382  0.4455  3.9547 -1.0984
   12MOL   H138 5440   6.621   2.033   1.097 -0.4405  1.6634 -0.3796
   12MOL   H139 5441   6.703   1.925   1.206  1.5165  0.6260  2.3138
   12MOL   H140 5442   6.792   2.183   1.093 -3.0979 -2.1682 -1.9558
   12MOL   H141 5443   6.866   2.123   1.236 -0.0745  0.5141 -0.3420
   12MOL   H142 5444   7.094   1.952   0.865  0.5504 -0.3823 -0.1939
   12MOL   H143 5445   6.988   1.831   0.912  0.4947 -0.8988 -1.4483
   12MOL   H144 5446   7.272   1.873   1.004 -2.0875  2.5768 -0.5139
   12MOL   H145 5447   7.182   1.763   1.090  1.2985  0.9720  0.2722
   12MOL   O146 5448   7.242   1.580   0.937  0.4203  0.1370  0.7914
   12MOL   C147 5449   7.293   1.474   0.856  0.1588 -0.7693 -0.2245
   12MOL   C148 5450   7.177   1.370   0.842  0.3741  0.5868  0.3358
   12MOL   C149 5451   7.189   1.238   0.926 -0.1961  0.4308 -0.5996
   12MOL   C150 5452   7.244   1.271   1.069 -0.8857 -0.0708  0.3931
   12MOL   O151 5453   7.177   1.185   1.162  0.4916 -0.0088 -0.2124
   12MOL   C152 5454   7.224   1.161   1.282  0.1089  0.3087 -0.4940
   12MOL   O153 5455   7.301   1.230   1.355  0.3836  0.1336  0.1153
   12MOL   C154 5456   7.172   1.021   1.326  0.1582 -0.0023 -0.1540
   12MOL   C155 5457   7.111   1.010   1.466 -0.1995 -0.2268 -0.1045
   12MOL   C156 5458   6.963   1.042   1.466  0.3366 -0.0785  0.0685
   12MOL   O157 5459   6.909   1.119   1.382  0.3128  0.3695  0.9120
   12MOL   H158 5460   7.336   1.510   0.762  1.9274  1.3948  1.3721
   12MOL   H159 5461   7.377   1.419   0.896 -0.8405  0.8129  4.3584
   12MOL   H160 5462   7.175   1.341   0.737 -0.1179 -1.5429  0.9165
   12MOL   H161 5463   7.081   1.419   0.856 -0.5380 -1.4484  1.3683
   12MOL   H162 5464   7.253   1.162   0.881 -2.8006 -1.9539 -0.4183
   12MOL   H163 5465   7.087   1.204   0.944  0.1990  1.3516  4.0367
   12MOL   H164 5466   7.353   1.272   1.070 -0.8266 -1.7372 -1.4166
   12MOL   H165 5467   7.212   1.370   1.101  3.0886  1.4075 -0.0636
   12MOL   H166 5468   7.243   0.940   1.310 -1.5785 -1.5037 -0.4539
   12MOL   H167 5469   7.089   0.989   1.262  1.1006 -0.5170 -1.1297
   12MOL   H168 5470   7.132   0.917   1.520 -0.6966  0.1742  0.7862
   12MOL   H169 5471   7.160   1.084   1.529  0.2230 -2.3334  2.1146
   12MOL   O170 5472   6.907   0.969   1.569  0.7148  0.0681  0.4567
   12MOL   C171 5473   6.766   0.965   1.574 -0.0381  0.3307  0.0959
   12MOL   C172 5474   6.732   0.852   1.678  0.3547  0.4771  0.5186
   12MOL   C173 5475   6.787   0.872   1.820 -0.7386  0.1045  0.7618
   12MOL   C174 5476   6.681   0.922   1.924  0.3949  0.2043 -0.2712
   12MOL   O175 5477   6.649   1.057   1.887 -0.4787  0.0502 -0.3263
   12MOL   C176 5478   6.543   1.123   1.932  0.4250  0.6938  0.2137
   12MOL   O177 5479   6.447   1.070   1.988  0.0076 -1.1488 -0.1171
   12MOL   C178 5480   6.543   1.267   1.881 -0.0219  0.1264 -0.0904
   12MOL   C179 5481   6.530   1.283   1.727 -0.7142  0.2759 -0.0345
   12MOL   C180 5482   6.638   1.375   1.674 -0.1916  0.1575 -0.4207
   12MOL   O181 5483   6.615   1.483   1.621  0.1685 -0.0391 -0.9799
   12MOL   H182 5484   6.713   1.055   1.606 -1.4671  0.5103 -2.5954
   12MOL   H183 5485   6.718   0.929   1.483  0.9765 -2.4296  0.6192
   12MOL   H184 5486   6.789   0.768   1.636 -0.7730 -0.5300  0.9650
   12MOL   H185 5487   6.627   0.826   1.673 -0.0679  1.8804  2.0465
   12MOL   H186 5488   6.864   0.949   1.822 -1.2072  0.7541 -2.4325
   12MOL   H187 5489   6.820   0.772   1.848  2.2699  0.4467 -1.2937
   12MOL   H188 5490   6.600   0.850   1.930 -0.8644  1.6155 -0.0969
   12MOL   H189 5491   6.728   0.934   2.022  0.0168 -2.4057  0.2722
   12MOL   H190 5492   6.626   1.326   1.919  0.3443 -0.1516 -0.4640
   12MOL   H191 5493   6.458   1.319   1.926  0.7153  2.0251 -0.8621
   12MOL   H192 5494   6.522   1.189   1.673  0.5302 -0.2409  0.6594
   12MOL   H193 5495   6.432   1.330   1.712 -0.2101  1.3631  0.0020
   12MOL   O194 5496   6.760   1.321   1.686 -0.0371  0.2920  0.0610
   12MOL   C195 5497   6.871   1.398   1.672 -0.1586 -0.4693  0.0069
   12MOL   C196 5498   6.988   1.320   1.730 -0.7928  0.7879 -0.3389
   12MOL   C197 5499   7.112   1.395   1.692 -0.8987 -0.5285  0.8706
   12MOL   C198 5500   7.239   1.349   1.759 -0.1687 -0.1195  0.0583
   12MOL   O199 5501   7.260   1.206   1.740  0.4913  0.2665 -0.3884
   12MOL   C200 5502   7.381   1.148   1.719 -0.0948 -0.3642 -1.1159
   12MOL   O201 5503   7.490   1.205   1.727 -0.0286 -0.5894  0.3397
   12MOL   C202 5504   7.375   1.001   1.701  0.0333  0.9288 -0.4323
   12MOL   C203 5505   7.509   0.932   1.676 -0.9059  0.5250  0.8004
   12MOL   C204 5506   7.522   0.873   1.537 -0.6060 -0.4115 -0.1553
   12MOL   O205 5507   7.428   0.810   1.490 -0.6898 -0.2775  0.2306
   12MOL   H206 5508   6.891   1.446   1.576 -0.0574  1.9823  1.2226
   12MOL   H207 5509   6.856   1.487   1.732 -1.4122 -0.0854 -0.8572
   12MOL   H208 5510   6.980   1.227   1.675 -0.5557  0.4323  0.2221
   12MOL   H209 5511   6.982   1.302   1.837 -1.2608  0.0241 -0.4919
   12MOL   H210 5512   7.112   1.501   1.719  1.1694 -0.6802  1.5721
   12MOL   H211 5513   7.126   1.405   1.584  0.3172 -0.3679  1.0267
   12MOL   H212 5514   7.317   1.397   1.700  0.4858 -0.8548  0.3205
   12MOL   H213 5515   7.239   1.377   1.865 -3.7422  5.3344 -1.1575
   12MOL   H214 5516   7.309   0.961   1.624 -0.9758  0.5048  0.6402
   12MOL   H215 5517   7.335   0.969   1.797  2.3413 -0.9715 -0.0413
   12MOL   H216 5518   7.592   1.001   1.693 -1.5096  0.8480  2.6363
   12MOL   H217 5519   7.529   0.873   1.765  0.4593  1.9158  1.4493
   12MOL   O218 5520   7.647   0.890   1.474  0.3818  0.0886  0.0145
   12MOL   C219 5521   7.674   0.843   1.342 -0.1580  0.5689  0.0400
   12MOL   C220 5522   7.616   0.929   1.227  0.0928  0.2514  0.7535
   12MOL   C221 5523   7.690   1.066   1.226  0.8543  0.4942 -0.3714
   12MOL   C222 5524   7.628   1.149   1.119  0.2262  0.3136  0.6157
   12MOL   O223 5525   7.652   1.291   1.142  0.4894  0.0899 -0.0607
   12MOL   C224 5526   7.656   1.373   1.037  0.8088  0.5099 -0.3677
   12MOL   O225 5527   7.637   1.341   0.916  0.0529  0.8669  0.0171
   12MOL   C226 5528   7.694   1.519   1.071  0.1004 -0.3683  0.2163
   12MOL   C227 5529   7.576   1.610   1.046 -0.1064  0.1733 -0.3779
   12MOL   C228 5530   7.507   1.654   1.173 -0.0678 -0.0129 -0.8011
   12MOL   O229 5531   7.496   1.775   1.209 -0.1726  0.2866 -0.9318
   12MOL   H230 5532   7.781   0.819   1.337 -0.8061 -2.3021 -0.6863
   12MOL   H231 5533   7.624   0.747   1.331  3.6711 -1.3043 -2.1729
   12MOL   H232 5534   7.508   0.925   1.243  0.4411 -0.8381  3.0754
   12MOL   H233 5535   7.647   0.868   1.142  1.1802  1.9245 -0.0742
   12MOL   H234 5536   7.796   1.044   1.222  0.8257  0.4651 -0.9164
   12MOL   H235 5537   7.684   1.124   1.318  0.1655 -1.1447  0.6408
   12MOL   H236 5538   7.674   1.119   1.025 -0.6548  0.5121  0.1140
   12MOL   H237 5539   7.520   1.138   1.109  0.5671 -0.3611 -2.7066
   12MOL   H238 5540   7.772   1.533   0.996  0.8769 -3.3982  0.3923
   12MOL   H239 5541   7.744   1.529   1.168 -0.0522  1.7541  0.0958
   12MOL   H240 5542   7.600   1.700   0.988 -1.6860  0.2603 -0.9162
   12MOL   H241 5543   7.496   1.569   0.985 -1.4056  1.5829  0.3452
   12MOL   O242 5544   7.461   1.550   1.240  0.0826  0.3097 -0.5743
   12MOL   C243 5545   7.428   1.571   1.373  0.1910 -0.4230  0.6099
   12MOL   C244 5546   7.560   1.577   1.447  0.0318  0.4510 -0.1603
   12MOL   C245 5547   7.631   1.439   1.438  0.6775  0.3116  0.3079
   12MOL   C246 5548   7.756   1.436   1.521  0.3982 -0.5054  0.1297
   12MOL   O247 5549   7.819   1.306   1.508 -0.3845 -0.6203 -0.9581
   12MOL   C248 5550   7.823   1.235   1.618 -0.0018  0.0359 -0.5331
   12MOL   O249 5551   7.784   1.273   1.733  0.8822 -0.2895  0.0387
   12MOL   C250 5552   7.872   1.099   1.586  0.5380  0.2127 -0.4228
   12MOL   C251 5553   7.874   1.008   1.714 -0.2558 -0.3432  0.3487
   12MOL   C252 5554   0.130   0.932   1.722 -0.3052  0.8110  0.1095
   12MOL   O253 5555   0.234   0.991   1.750 -0.6677  0.9437  0.1415
   12MOL   H254 5556   7.362   1.654   1.397 -1.5346 -0.8216 -2.4662
   12MOL   H255 5557   7.373   1.480   1.400 -1.2996  0.1283 -0.4680
   12MOL   H256 5558   7.538   1.591   1.553 -2.1515  1.4580 -0.7093
   12MOL   H257 5559   7.623   1.659   1.414  0.5604  0.5128  0.9875
   12MOL   H258 5560   7.653   1.416   1.334  0.4032 -1.1967  0.5765
   12MOL   H259 5561   7.570   1.363   1.488  0.9076 -0.7480 -1.0000
   12MOL   H260 5562   7.821   1.514   1.483  0.4322 -1.3441 -1.5912
   12MOL   H261 5563   7.728   1.466   1.622 -2.5481  0.4134 -0.9153
   12MOL   H262 5564   0.093   1.099   1.534  0.9167 -0.4796  0.2660
   12MOL   H263 5565   7.796   1.068   1.514  0.7119 -0.2759 -0.3970
   12MOL   H264 5566   0.001   1.068   1.805 -1.4019  1.4293 -0.7714
   12MOL   H265 5567   7.803   0.926   1.720  0.6160 -1.2356 -1.2168
   12MOL   O266 5568   0.114   0.809   1.679  0.0679 -0.1338  0.3269
   12MOL   C267 5569   0.228   0.728   1.653 -0.0531  0.0820  0.5988
   12MOL   C268 5570   0.197   0.626   1.550 -0.7444 -0.3206  0.3934
   12MOL   C269 5571   0.207   0.687   1.406  0.0382 -0.3393  0.3735
   12MOL   C270 5572   0.208   0.583   1.288  0.2029  0.0717  0.1652
   12MOL   O271 5573   0.234   0.662   1.168 -0.1239  0.3089  0.3369
   12MOL   C272 5574   0.253   0.601   1.052  0.1977 -0.3652 -0.1021
   12MOL   O273 5575   0.211   0.489   1.016  0.3914 -0.0233  0.3662
   12MOL   C274 5576   0.331   0.689   0.954  0.3676  0.2543 -0.2929
   12MOL   C275 5577   0.477   0.642   0.940 -0.5842 -0.3101  0.0203
   12MOL   C276 5578   0.584   0.746   0.954  0.2905 -0.4850 -0.8054
   12MOL   O277 5579   0.656   0.747   1.057  0.1029  0.6585  0.5755
   12MOL   H278 5580   0.315   0.790   1.629 -0.9053  2.2003  2.6986
   12MOL   H279 5581   0.236   0.682   1.752 -1.2346  0.4335  0.8612
   12MOL   H280 5582   0.104   0.572   1.570 -2.1300  1.7243 -0.3852
   12MOL   H281 5583   0.282   0.560   1.570 -0.4251  0.1094  0.4613
   12MOL   H282 5584   0.292   0.754   1.392  0.3419 -1.4073 -3.5094
   12MOL   H283 5585   0.122   0.752   1.384  0.2157 -0.3004 -0.2064
   12MOL   H284 5586   0.289   0.515   1.312 -1.4637 -2.0730 -0.1286
   12MOL   H285 5587   0.117   0.524   1.285  0.6259 -0.6124  0.8240
   12MOL   H286 5588   0.322   0.789   0.997  0.2387  0.7630 -1.4598
   12MOL   H287 5589   0.273   0.689   0.861  3.3411  0.3372 -2.2329
   12MOL   H288 5590   0.492   0.567   1.018  0.8658 -1.3492 -1.2443
   12MOL   H289 5591   0.484   0.594   0.843  1.9443 -0.1186  0.0978
   12MOL   O290 5592   0.580   0.826   0.853 -0.6935 -0.7543 -0.1061
   12MOL   C291 5593   0.694   0.913   0.843 -0.2082  0.6394 -0.3505
   12MOL   C292 5594   0.669   1.001   0.727  0.4089 -0.2363  0.0053
   12MOL   C293 5595   0.749   1.135   0.719  0.1050 -0.0195 -0.5456
   12MOL   C294 5596   0.892   1.096   0.722 -0.5249 -0.0715 -0.2418
   12MOL   O295 5597   0.974   1.201   0.667  0.0544 -0.1896 -0.4840
   12MOL   C296 5598   0.996   1.225   0.537 -0.2894 -0.0303  0.0119
   12MOL   O297 5599   0.943   1.169   0.441  0.0366  0.0709 -0.6881
   12MOL   C298 5600   1.106   1.326   0.512 -0.2895  0.1019 -0.0056
   12MOL   C299 5601   1.179   1.323   0.374  0.7947  0.3338 -0.1185
   12MOL   C300 5602   1.302   1.241   0.375 -0.5015 -0.3671 -0.8279
   12MOL   O301 5603   1.304   1.117   0.376 -0.5160  0.3481  0.1560
   12MOL   H302 5604   0.719   0.971   0.932  0.5576 -1.2676  0.6875
   12MOL   H303 5605   0.777   0.847   0.821 -0.0475  0.0695  1.8329
   12MOL   H304 5606   0.564   1.030   0.722 -0.2340 -2.6642 -1.6869
   12MOL   H305 5607   0.695   0.945   0.637  0.9832  0.1663 -0.0846
   12MOL   H306 5608   0.723   1.203   0.800  0.0485 -0.2753 -0.3503
   12MOL   H307 5609   0.733   1.186   0.624  1.9665 -1.7408 -1.8461
   12MOL   H308 5610   0.926   1.080   0.824 -3.0477 -1.0863  0.4723
   12MOL   H309 5611   0.919   1.007   0.664 -2.2728 -1.0252  0.3530
   12MOL   H310 5612   1.178   1.313   0.594 -0.3538  0.2447  0.0736
   12MOL   H311 5613   1.063   1.425   0.530 -4.4778 -1.4014 -1.1760
   12MOL   H312 5614   1.103   1.292   0.302  0.1456  1.6740 -0.0147
   12MOL   H313 5615   1.204   1.418   0.328 -3.8431  0.6916 -2.2099
   12MOL   O314 5616   1.409   1.319   0.372  0.3132  0.1297  0.1354
   12MOL   C315 5617   1.536   1.253   0.352  0.2403 -0.1222  0.5658
   12MOL   C316 5618   1.630   1.317   0.452  0.1947  0.3686  0.3209
   12MOL   C317 5619   1.773   1.270   0.434 -0.2614 -0.6926 -0.9876
   12MOL   C318 5620   1.866   1.307   0.550 -0.4145 -0.5263  0.8422
   12MOL   O319 5621   1.993   1.258   0.540  0.1788  0.0011 -0.1613
   12MOL   C320 5622   2.092   1.298   0.619 -0.0449 -0.1225 -0.0982
   12MOL   O321 5623   2.112   1.412   0.665  0.4574 -0.0877  0.1937
   12MOL   C322 5624   2.199   1.195   0.631 -0.1412 -0.0305  0.4243
   12MOL   C323 5625   2.176   1.047   0.592 -0.5625 -0.6859  0.1014
   12MOL   C324 5626   2.212   1.012   0.448  0.0936 -0.4075 -0.3766
   12MOL   O325 5627   2.332   0.991   0.419 -0.1335 -0.1971 -0.5656
   12MOL   H326 5628   1.542   1.145   0.366 -0.6440  0.0246  2.2109
   12MOL   H327 5629   1.581   1.277   0.255 -2.9207  1.1757 -0.6458
   12MOL   H328 5630   1.593   1.298   0.552  0.5884  0.1496  0.4250
   12MOL   H329 5631   1.634   1.425   0.437  0.7697  0.4189  0.8435
   12MOL   H330 5632   1.809   1.298   0.335  2.1366 -0.9748 -0.2395
   12MOL   H331 5633   1.770   1.161   0.436 -1.2063 -0.6647  2.6975
   12MOL   H332 5634   1.871   1.410   0.584 -0.1410 -0.0463 -0.6374
   12MOL   H333 5635   1.827   1.263   0.642  0.4675 -3.5617 -0.1716
   12MOL   H334 5636   2.232   1.197   0.735 -0.4227 -2.3808  0.5843
   12MOL   H335 5637   2.275   1.232   0.562  0.4745 -0.6508  0.7667
   12MOL   H336 5638   2.244   0.978   0.642  1.5521 -0.6662 -2.6436
   12MOL   H337 5639   2.072   1.017   0.608 -1.1977 -0.4967 -3.2707
   12MOL   O338 5640   2.108   1.018   0.358  0.1024 -0.4871 -0.1828
   12MOL   C339 5641   2.123   0.997   0.221 -0.3463 -0.8695  0.2358
   12MOL   C340 5642   2.179   1.124   0.156  0.3141 -0.0821  0.3616
   12MOL   C341 5643   2.076   1.236   0.154 -0.2015 -0.5361 -0.2401
   12MOL   C342 5644   2.139   1.377   0.161  0.5614  0.7831 -0.4341
   12MOL   O343 5645   2.166   1.435   0.034  0.3769 -0.8472  0.3170
   12MOL   C344 5646   2.222   1.554   0.031 -0.3257 -0.1022  0.6752
   12MOL   O345 5647   2.249   1.629   0.124  0.4475 -0.2185 -1.3486
   12MOL   C346 5648   2.272   1.579   7.766  0.1750 -0.4677 -0.3947
   12MOL   C347 5649   2.398   1.494   7.738 -0.1235 -0.1861 -0.0688
   12MOL   C348 5650   2.395   1.419   7.604  0.0695  0.0220 -0.3434
   12MOL   O349 5651   2.416   1.302   7.605  0.3585 -0.2625  0.1974
   12MOL   H350 5652   2.210   0.934   0.200  0.2292 -0.6515  1.8874
   12MOL   H351 5653   2.040   0.956   0.164  0.3607  0.2733 -1.7012
   12MOL   H352 5654   2.218   1.116   0.055 -1.2728 -0.5774 -0.2269
   12MOL   H353 5655   2.265   1.151   0.217  2.1742 -3.1314 -0.8204
   12MOL   H354 5656   2.026   1.229   0.251  2.4408 -2.1368  1.0842
   12MOL   H355 5657   1.994   1.229   0.083  0.6365 -0.9711 -1.1763
   12MOL   H356 5658   2.074   1.446   0.216 -2.0815 -0.7991 -1.4910
   12MOL   H357 5659   2.226   1.367   0.226  0.4789  1.2526 -0.2476
   12MOL   H358 5660   2.299   1.685   7.757 -2.2182  0.1096 -1.1944
   12MOL   H359 5661   2.190   1.565   7.694 -1.0958  1.2984  0.6705
   12MOL   H360 5662   2.490   1.552   7.742  0.0488 -0.5069  0.7575
   12MOL   H361 5663   2.408   1.419   7.816  2.2309 -0.0859 -0.2487
   12MOL   O362 5664   2.370   1.503   7.503  0.2690  0.4129  0.4559
   12MOL   C363 5665   2.365   1.453   7.368  0.2804 -0.1245  0.4023
   12MOL   C364 5666   2.328   1.565   7.274  1.1762  0.0192  0.0252
   12MOL   C365 5667   2.309   1.523   7.127  0.3873 -0.1916 -0.2989
   12MOL   C366 5668   2.282   1.638   7.039  0.1621  0.0685 -0.2419
   12MOL   O367 5669   2.407   1.698   7.011  0.5114 -0.1795 -0.1876
   12MOL   C368 5670   2.405   1.796   6.932 -0.5292 -0.0579 -0.6096
   12MOL   O369 5671   2.304   1.836   6.875 -0.3857 -0.8794 -0.2846
   12MOL   C370 5672   2.540   1.858   6.925 -0.3517  0.5525  0.4124
   12MOL   C371 5673   2.549   1.993   6.854  0.4910  0.7589 -0.3454
   12MOL   C372 5674   2.601   1.975   6.711 -0.4758 -0.0535  0.2878
   12MOL   O373 5675   2.671   1.875   6.685 -0.2945 -0.3279 -0.1305
   12MOL   H374 5676   2.455   1.398   7.342 -0.8082 -2.1617  0.7737
   12MOL   H375 5677   2.291   1.373   7.361  1.7030 -1.3481 -0.9420
   12MOL   H376 5678   2.406   1.640   7.283  0.2995  0.7822  1.4020
   12MOL   H377 5679   2.244   1.615   7.322  1.9241  0.6312  0.7042
   12MOL   H378 5680   2.224   1.455   7.126 -0.7703  1.2090  0.8611
   12MOL   H379 5681   2.402   1.476   7.096 -0.4694 -1.6771 -0.6565
   12MOL   H380 5682   2.231   1.608   6.948 -0.9208  0.2305  0.3108
   12MOL   H381 5683   2.206   1.704   7.081 -0.9218 -0.9678 -0.5806
   12MOL   H382 5684   2.621   1.788   6.901 -0.9036 -0.0845  0.4004
   12MOL   H383 5685   2.573   1.872   7.029  2.4283  0.0539 -0.3436
   12MOL   H384 5686   2.454   2.046   6.864 -1.0226 -2.3496  2.5150
   12MOL   H385 5687   2.625   2.061   6.893  0.5982  0.6171 -0.3082
   12MOL   O386 5688   2.582   2.082   6.628 -0.2172 -0.1570 -0.1190
   12MOL   C387 5689   2.675   2.101   6.523 -0.1320  0.1211  0.5211
   12MOL   C388 5690   2.677   2.251   6.471 -0.5383  0.6189 -0.4839
   12MOL   C389 5691   2.760   2.354   6.555  0.3863  0.3992  0.2755
   12MOL   C390 5692   2.686   2.413   6.675 -0.4031  0.5456 -0.7600
   12MOL   O391 5693   2.783   2.467   6.769  0.3152  0.4638 -0.3051
   12MOL   C392 5694   2.766   2.581   6.833  0.2884  0.5124  0.1126
   12MOL   O393 5695   2.666   2.655   6.835 -0.1145 -0.2192 -0.1678
   12MOL   C394 5696   2.880   2.619   6.930 -0.2276  0.2734  1.0730
   12MOL   C395 5697   2.903   2.510   7.034 -1.1186  0.8790  0.2985
   12MOL   C396 5698   2.890   2.560   7.176 -0.4583 -0.6163 -0.3532
   12MOL   O397 5699   2.952   2.513   7.266 -0.1504  0.3831  0.0069
   12MOL   H398 5700   2.776   2.064   6.538 -0.3620 -1.6087 -1.7727
   12MOL   H399 5701   2.643   2.053   6.430 -1.6848 -0.7374  1.4923
   12MOL   H400 5702   2.577   2.291   6.456 -1.0891 -0.0250  1.3498
   12MOL   H401 5703   2.721   2.256   6.372 -1.7288 -0.1083 -1.0551
   12MOL   H402 5704   2.784   2.441   6.492  1.6805 -0.5792 -0.6016
   12MOL   H403 5705   2.856   2.313   6.586  0.3075 -0.0911 -0.1406
   12MOL   H404 5706   2.611   2.489   6.655 -1.5311  0.0200  1.2533
   12MOL   H405 5707   2.641   2.328   6.727  1.0138  0.7433  0.8534
   12MOL   H406 5708   2.861   2.712   6.985  2.0254  0.5574  1.4365
   12MOL   H407 5709   2.974   2.656   6.888 -0.3012 -1.1065 -0.3538
   12MOL   H408 5710   2.840   2.422   7.021 -0.0403  0.3378 -1.5426
   12MOL   H409 5711   2.999   2.460   7.021 -0.7916  2.1748 -2.6372
   12MOL   O410 5712   2.804   2.662   7.198  0.2751 -0.6294 -0.1259
   12MOL   C411 5713   2.798   2.724   7.325  0.0952 -0.7554  0.4151
   12MOL   C412 5714   2.682   2.673   7.410 -0.3335  0.4924  0.1434
   12MOL   C413 5715   2.671   2.729   7.551 -0.2053  0.5008  0.6737
   12MOL   C414 5716   2.587   2.637   7.638  0.4210 -0.0560 -0.2359
   12MOL   O415 5717   2.654   2.520   7.673 -0.0789 -0.3986 -0.0821
   12MOL   C416 5718   2.630   2.456   7.781 -0.5986 -0.1510 -0.1543
   12MOL   O417 5719   2.544   2.483   7.866  0.0640  0.3305  0.7622
   12MOL   C418 5720   2.726   2.337   7.802 -0.0211 -0.0526  0.3052
   12MOL   C419 5721   2.714   2.268   0.066 -0.2841  0.4297 -0.4937
   12MOL   C420 5722   2.765   2.120   0.054  0.2340  0.7062  0.2889
   12MOL   O421 5723   2.863   2.079   0.120  0.1039 -0.2562 -0.2136
   12MOL   H422 5724   2.893   2.723   7.379 -0.1933 -0.3030  0.9253
   12MOL   H423 5725   2.774   2.827   7.298 -1.2495 -1.8805 -2.9636
   12MOL   H424 5726   2.689   2.565   7.420  0.4717  0.2316 -2.9334
   12MOL   H425 5727   2.587   2.687   7.359 -0.8219  1.0065  1.1829
   12MOL   H426 5728   2.608   2.818   7.549  1.0335  1.3731 -2.2021
   12MOL   H427 5729   2.770   2.737   7.596  0.3319 -0.9639 -0.2145
   12MOL   H428 5730   2.567   2.695   7.728 -0.6628 -2.4605  1.1254
   12MOL   H429 5731   2.499   2.595   7.589  0.8547 -0.2563 -0.8559
   12MOL   H430 5732   2.826   2.375   7.783  0.1921  0.3990  2.1669
   12MOL   H431 5733   2.696   2.260   7.730 -0.0181  1.0944 -0.9258
   12MOL   H432 5734   2.777   2.314   0.142  2.4658  0.5912 -2.8019
   12MOL   H433 5735   2.614   2.276   0.108  0.7501  1.7308  1.8541
   12MOL   O434 5736   2.688   2.048   7.856  0.0110 -0.4550  0.0165
   12MOL   C435 5737   2.701   1.906   7.854  0.2892  0.4195 -0.3096
   12MOL   C436 5738   2.581   1.848   7.772 -0.3752 -0.0376  0.9585
   12MOL   C437 5739   2.568   1.904   7.627  0.3718 -0.0061  0.4007
   12MOL   C438 5740   2.476   1.832   7.528  0.0281  0.3850 -0.2301
   12MOL   O439 5741   2.437   1.904   7.417 -0.4779 -0.1777 -0.4264
   12MOL   C440 5742   2.310   1.905   7.373 -0.2500 -0.1113  0.4937
   12MOL   O441 5743   2.213   1.861   7.433  0.5699 -0.5132 -0.0754
   12MOL   C442 5744   2.285   1.980   7.242 -0.4683 -0.2614  0.4102
   12MOL   C443 5745   2.149   2.045   7.230 -0.3325 -0.0934  0.0601
   12MOL   C444 5746   2.115   2.167   7.311  0.1879 -0.0754 -0.4907
   12MOL   O445 5747   1.999   2.203   7.328  0.5422  0.1160 -0.2992
   12MOL   H446 5748   2.791   1.856   7.818 -0.3882 -0.3798 -0.9108
   12MOL   H447 5749   2.675   1.878   0.082  0.5714  0.2420 -0.2858
   12MOL   H448 5750   2.481   1.853   7.817 -1.6454 -0.5412 -1.6955
   12MOL   H449 5751   2.592   1.739   7.777  0.5605  0.1430  3.9367
   12MOL   H450 5752   2.669   1.917   7.588 -0.4102  1.9619 -1.0434
   12MOL   H451 5753   2.528   2.005   7.629  0.0693 -0.0763 -1.5687
   12MOL   H452 5754   2.533   1.746   7.495 -0.2560 -0.2062  0.7985
   12MOL   H453 5755   2.390   1.791   7.582 -0.3342  0.5687 -0.6607
   12MOL   H454 5756   2.301   1.903   7.167 -2.6421 -0.9586  0.6393
   12MOL   H455 5757   2.358   2.060   7.245  0.1468 -0.8094  0.1947
   12MOL   H456 5758   2.144   2.081   7.127 -2.2681 -0.8626 -0.1374
   12MOL   H457 5759   2.070   1.970   7.232 -1.0609  0.6732  0.8621
   12MOL   O458 5760   2.218   2.226   7.368  0.4121 -0.0118 -0.2006
   12MOL   C459 5761   2.197   2.324   7.467 -0.2492  0.1569  1.0871
   12MOL   C460 5762   2.329   2.355   7.537 -0.1110 -0.4670  0.4421
   12MOL   C461 5763   2.401   2.230   7.605 -0.0870  0.2824  0.0638
   12MOL   C462 5764   2.331   2.184   7.739 -0.3109  0.4356 -0.1890
   12MOL   O463 5765   2.203   2.138   7.705 -0.0134  0.2987 -0.4851
   12MOL   C464 5766   2.159   2.017   7.753 -0.6733  0.1139 -0.0742
   12MOL   O465 5767   2.212   1.957   7.845  0.4966 -0.6779  0.5337
   12MOL   C466 5768   2.011   1.996   7.717  0.1963 -0.2405 -0.0357
   12MOL   C467 5769   1.956   1.861   7.772  0.2462  0.5345  0.1574
   12MOL   C468 5770   1.830   1.810   7.701  0.0510 -0.8506  0.1328
   12MOL   O469 5771   1.813   1.849   7.583 -0.6251 -0.1915  0.6618
   12MOL   H470 5772   2.162   2.418   7.425  3.3531  0.8915 -0.4538
   12MOL   H471 5773   2.123   2.295   7.541 -2.3424  1.1063 -0.5936
   12MOL   H472 5774   2.319   2.441   7.603  0.8519  1.1174 -1.4294
   12MOL   H473 5775   2.397   2.398   7.464  1.2027  0.1374  2.0010
   12MOL   H474 5776   2.501   2.267   7.626  0.6801 -0.9647 -1.3305
   12MOL   H475 5777   2.409   2.151   7.531  0.3491  1.4559 -1.1551
   12MOL   H476 5778   2.383   2.108   7.797  1.7730  0.3316 -2.1308
   12MOL   H477 5779   2.337   2.270   7.806 -1.9476  0.5184 -0.1217
   12MOL   H478 5780   2.017   1.991   7.608 -0.4134 -2.5614  0.0004
   12MOL   H479 5781   1.946   2.077   7.750 -1.2273 -1.6847  0.7930
   12MOL   H480 5782   2.028   1.779   7.767  0.7681  0.9779  0.3369
   12MOL   H481 5783   1.919   1.869   7.874 -0.6403  0.3994 -0.1525
   12MOL   H482 5784   1.765   1.742   7.756  0.0255  0.7139  2.0693
   13MOL     O1 5785   0.760   3.511   4.941  0.0554  0.4883  0.1521
   13MOL     C2 5786   0.642   3.558   5.003 -0.1014 -0.2343  0.1913
   13MOL     C3 5787   0.636   3.710   4.978  0.0381  0.2823  0.3821
   13MOL     C4 5788   0.635   3.763   4.834  0.3592 -0.7130  0.5567
   13MOL     C5 5789   0.619   3.917   4.849 -0.0894  0.1302 -0.0487
   13MOL     O6 5790   0.582   3.971   4.720 -0.6995  0.5156  0.0506
   13MOL     C7 5791   0.675   3.994   4.622  0.4857  0.5280 -0.1378
   13MOL     O8 5792   0.796   3.988   4.636 -0.2310 -0.0661 -0.3084
   13MOL     C9 5793   0.605   4.025   4.488  0.4693  0.4970 -0.5827
   13MOL    C10 5794   0.665   4.151   4.426 -0.1033 -0.4075  0.0179
   13MOL    C11 5795   0.712   4.141   4.287 -0.5378  0.4190 -0.4950
   13MOL    O12 5796   0.641   4.149   4.186 -0.0196  0.0011 -0.1255
   13MOL    H13 5797   0.569   3.498   4.948 -0.2997  0.2130 -0.0310
   13MOL    H14 5798   0.630   3.524   5.106 -0.6551  1.5408  0.7259
   13MOL    H15 5799   0.730   3.753   5.012 -1.3925  1.1125  3.5453
   13MOL    H16 5800   0.552   3.746   5.038 -0.0983  0.0724  0.3168
   13MOL    H17 5801   0.547   3.728   4.780  0.0699  0.6317  0.1421
   13MOL    H18 5802   0.723   3.740   4.775  0.6190  1.2899  0.1222
   13MOL    H19 5803   0.534   3.927   4.917 -0.0659 -1.2293  0.2059
   13MOL    H20 5804   0.708   3.961   4.892 -0.2691  0.2146  0.2392
   13MOL    H21 5805   0.498   4.026   4.506  0.4061 -0.8508 -0.8396
   13MOL    H22 5806   0.623   3.942   4.420  0.7107  1.3955 -1.6201
   13MOL    H23 5807   0.586   4.226   4.421 -1.5732 -2.0287 -1.6472
   13MOL    H24 5808   0.747   4.185   4.489 -0.8287 -1.7411  1.7258
   13MOL    H25 5809   0.823   3.482   5.005  0.8756 -0.2240 -0.9447
   13MOL    O26 5810   0.851   4.142   4.287  0.2968  0.1893  0.9134
   13MOL    C27 5811   0.931   4.142   4.164  0.0434 -0.6199  0.3293
   13MOL    C28 5812   1.011   4.019   4.145 -0.1020 -0.6632 -0.4125
   13MOL    C29 5813   1.101   4.031   4.023  0.1428  0.2182  0.5456
   13MOL    C30 5814   1.174   3.894   4.004 -0.6875 -0.3275 -0.2063
   13MOL    O31 5815   1.086   3.795   3.963  0.1235 -0.3329  0.2775
   13MOL    C32 5816   1.062   3.777   3.833 -0.1259  0.4520  0.7760
   13MOL    O33 5817   1.110   3.839   3.736  0.2307  0.4485  0.3002
   13MOL    C34 5818   0.971   3.655   3.816  0.1328  0.3240 -0.3751
   13MOL    C35 5819   1.051   3.525   3.820 -0.2218 -0.1133 -0.0819
   13MOL    C36 5820   1.016   3.414   3.736  0.8297  0.0254  0.7425
   13MOL    O37 5821   0.974   3.305   3.773 -0.0652  0.2318 -0.2526
   13MOL    H38 5822   0.859   4.150   4.083 -0.7484  1.2742  1.1864
   13MOL    H39 5823   1.000   4.226   4.152 -0.6756  0.0638  0.9136
   13MOL    H40 5824   0.939   3.943   4.118  0.2019  0.0901 -3.5428
   13MOL    H41 5825   1.075   4.001   4.231 -1.7362  1.2166  1.2680
   13MOL    H42 5826   1.175   4.107   4.045  0.4108  0.6937 -1.9030
   13MOL    H43 5827   1.040   4.063   3.939 -0.6826  0.9722  1.4201
   13MOL    H44 5828   1.248   3.913   3.926 -3.1874  3.1869 -1.8408
   13MOL    H45 5829   1.226   3.876   4.098  0.2904  2.2634 -0.2012
   13MOL    H46 5830   0.925   3.668   3.718 -0.4692  1.5613  0.0607
   13MOL    H47 5831   0.886   3.670   3.882  1.3479  1.6382  0.9116
   13MOL    H48 5832   1.157   3.551   3.814 -0.0597 -1.0218 -1.3348
   13MOL    H49 5833   1.043   3.482   3.919  0.2076  0.9534  0.4228
   13MOL    O50 5834   1.016   3.452   3.607  0.3326  0.2987 -0.4440
   13MOL    C51 5835   0.958   3.359   3.509 -0.0180  0.3435 -0.3921
   13MOL    C52 5836   1.054   3.353   3.392 -0.0349 -0.0694  0.5106
   13MOL    C53 5837   0.996   3.277   3.265  0.0347 -0.3363  0.1766
   13MOL    C54 5838   0.900   3.367   3.181  0.5657  0.3982 -0.0303
   13MOL    O55 5839   0.883   3.304   3.051  0.1027 -0.1035 -0.7765
   13MOL    C56 5840   0.762   3.221   3.026 -0.1345 -0.7395 -0.8457
   13MOL    O57 5841   0.677   3.201   3.107 -0.2174 -0.2249  0.6287
   13MOL    C58 5842   0.756   3.174   2.886  0.7335  0.7987  0.2441
   13MOL    C59 5843   0.651   3.067   2.862  0.4291  0.4140  0.1246
   13MOL    C60 5844   0.691   2.967   2.757 -0.0958  0.0107 -0.8966
   13MOL    O61 5845   0.642   2.964   2.646 -1.4376  0.4752  0.8798
   13MOL    H62 5846   0.956   3.258   3.549 -0.5372  0.5640  0.1432
   13MOL    H63 5847   0.853   3.374   3.487 -0.1953 -0.2649  0.0208
   13MOL    H64 5848   1.147   3.299   3.411  0.2747 -0.5495 -2.2270
   13MOL    H65 5849   1.078   3.454   3.360  1.2051 -0.1493  1.1515
   13MOL    H66 5850   0.953   3.178   3.278 -0.7341 -0.0437 -0.1107
   13MOL    H67 5851   1.081   3.252   3.201  0.7590  2.7468 -0.1274
   13MOL    H68 5852   0.807   3.359   3.238  0.3464  0.8811 -0.3198
   13MOL    H69 5853   0.934   3.470   3.181  0.3068  0.5543  3.6139
   13MOL    H70 5854   0.854   3.137   2.857  0.4574 -2.3780  3.0182
   13MOL    H71 5855   0.712   3.256   2.830 -3.2184 -1.5280 -0.2833
   13MOL    H72 5856   0.629   3.008   2.951 -0.6905  1.1522  0.3532
   13MOL    H73 5857   0.555   3.117   2.845 -0.0570 -0.6231 -0.1816
   13MOL    O74 5858   0.789   2.886   2.810 -0.0318  0.1866  0.5707
   13MOL    C75 5859   0.833   2.779   2.729 -0.2081  0.4711  0.5491
   13MOL    C76 5860   0.765   2.651   2.775  0.3686  0.0440  0.4517
   13MOL    C77 5861   0.797   2.616   2.921 -0.9852  0.4025 -0.0528
   13MOL    C78 5862   0.751   2.478   2.973  0.1807 -0.4371 -0.0542
   13MOL    O79 5863   0.610   2.484   2.965  0.1461 -0.2740 -0.7554
   13MOL    C80 5864   0.550   2.404   2.881  0.4749 -0.0832  0.2170
   13MOL    O81 5865   0.597   2.321   2.804  0.0884  0.2763 -0.6553
   13MOL    C82 5866   0.398   2.412   2.887  0.5750 -0.1742  0.3547
   13MOL    C83 5867   0.356   2.564   2.900  0.1590  0.3526 -0.0393
   13MOL    C84 5868   0.357   2.641   3.032  0.3256  0.5915  0.5053
   13MOL    O85 5869   0.405   2.756   3.029  0.1410 -0.1879  0.2533
   13MOL    H86 5870   0.822   2.801   2.623 -0.2086 -0.5732  0.3206
   13MOL    H87 5871   0.940   2.772   2.749 -0.7876  0.0758  3.6721
   13MOL    H88 5872   0.794   2.575   2.702  1.7616  0.6100  0.4035
   13MOL    H89 5873   0.656   2.652   2.773  0.3317 -1.3437  0.9143
   13MOL    H90 5874   0.741   2.686   2.982 -0.5905  1.5883 -1.0416
   13MOL    H91 5875   0.900   2.641   2.946  0.1227 -0.3540 -3.5094
   13MOL    H92 5876   0.803   2.392   2.930 -0.0898 -0.1313 -1.0005
   13MOL    H93 5877   0.768   2.462   3.079 -0.5804 -2.7224 -0.2348
   13MOL    H94 5878   0.359   2.347   2.965  0.4665  0.0005  0.4460
   13MOL    H95 5879   0.352   2.381   2.794  1.2535 -0.4876  0.1156
   13MOL    H96 5880   0.413   2.619   2.826  0.6285 -1.2996 -0.9318
   13MOL    H97 5881   0.250   2.558   2.876  0.1547 -3.0887  0.5757
   13MOL    O98 5882   0.300   2.582   3.133  0.1806  0.2287 -0.0986
   13MOL    C99 5883   0.273   2.653   3.247 -0.2249 -0.2476 -0.0009
   13MOL   C100 5884   0.153   2.582   3.309  0.4556  0.0859  0.7458
   13MOL   C101 5885   0.021   2.617   3.235 -0.1751 -0.0278 -0.4817
   13MOL   C102 5886   7.768   2.543   3.268  0.2215 -0.7179  1.0857
   13MOL   O103 5887   7.662   2.601   3.190  0.1063 -0.4664 -0.1001
   13MOL   C104 5888   7.628   2.547   3.071 -0.3863  0.8600 -0.0295
   13MOL   O105 5889   7.683   2.444   3.025  0.5384 -0.0309 -0.0993
   13MOL   C106 5890   7.512   2.616   3.000 -0.4245  0.3232 -0.0230
   13MOL   C107 5891   7.493   2.564   2.860  0.1192 -0.6400 -0.1080
   13MOL   C108 5892   7.396   2.638   2.775  0.7743 -0.0682 -0.5373
   13MOL   O109 5893   7.319   2.728   2.816 -0.2223  0.3405 -0.2116
   13MOL   H110 5894   0.363   2.657   3.308  0.1829  1.1573 -0.6709
   13MOL   H111 5895   0.245   2.756   3.225  0.3481 -0.0380  0.2480
   13MOL   H112 5896   0.144   2.622   3.410 -0.0046 -1.2982  1.2764
   13MOL   H113 5897   0.166   2.473   3.310 -3.1098 -0.3924 -0.3121
   13MOL   H114 5898   0.037   2.612   3.127 -1.3980  2.5787 -0.8228
   13MOL   H115 5899   0.002   2.722   3.259  1.9331  0.1020  0.7636
   13MOL   H116 5900   7.787   2.438   3.247  3.7078  0.5616 -2.6916
   13MOL   H117 5901   7.743   2.548   3.374  0.4145 -1.7944  1.1849
   13MOL   H118 5902   7.542   2.721   2.991  0.1941  0.3864  2.5095
   13MOL   H119 5903   7.426   2.601   3.066 -0.9709 -0.9772 -1.0102
   13MOL   H120 5904   7.587   2.559   2.806 -0.5293 -0.2211 -1.2854
   13MOL   H121 5905   7.436   2.471   2.862  0.6546 -0.9586  1.7936
   13MOL   O122 5906   7.389   2.600   2.648  0.2155  0.2539 -0.0711
   13MOL   C123 5907   7.292   2.650   2.563  0.5200 -0.0096 -0.6065
   13MOL   C124 5908   7.323   2.586   2.427 -0.2128  0.1886  0.1039
   13MOL   C125 5909   7.448   2.643   2.357 -0.3800  0.5522 -0.1754
   13MOL   C126 5910   7.440   2.790   2.311  0.0795  0.1040 -0.2665
   13MOL   O127 5911   7.465   2.888   2.410 -0.1878  0.3391  0.2885
   13MOL   C128 5912   7.594   2.918   2.439 -0.4603 -0.0870 -0.4389
   13MOL   O129 5913   7.692   2.855   2.399  0.1778 -0.4556  0.4094
   13MOL   C130 5914   7.611   3.017   2.552  1.0290  0.3330 -0.0121
   13MOL   C131 5915   7.558   2.957   2.683  0.3102  0.0948  0.1412
   13MOL   C132 5916   7.459   3.032   2.773  0.0876 -0.0018  0.3880
   13MOL   O133 5917   7.459   3.044   2.895  0.3897  0.1075 -0.3125
   13MOL   H134 5918   7.202   2.604   2.603  1.5925 -1.6054 -0.0203
   13MOL   H135 5919   7.273   2.757   2.577 -0.2247 -0.5009  2.2534
   13MOL   H136 5920   7.236   2.616   2.368 -0.2694 -0.2711 -0.0476
   13MOL   H137 5921   7.332   2.478   2.434 -1.5610  0.0885  0.5282
   13MOL   H138 5922   7.448   2.579   2.268 -2.2878  1.5370 -0.9265
   13MOL   H139 5923   7.538   2.614   2.411  0.1410  0.6221 -0.9941
   13MOL   H140 5924   7.511   2.795   2.228  1.0764  0.5491  0.5952
   13MOL   H141 5925   7.345   2.814   2.264 -0.7692 -0.6322  1.0378
   13MOL   H142 5926   7.557   3.110   2.534  1.2258  0.6662  1.0818
   13MOL   H143 5927   7.719   3.032   2.562  1.1739 -0.8643  0.3778
   13MOL   H144 5928   7.510   2.861   2.669 -0.4123  0.5426 -0.4243
   13MOL   H145 5929   7.645   2.930   2.743 -1.6671  1.6844  3.9048
   13MOL   O146 5930   7.357   3.070   2.691 -0.2448 -0.2385 -0.1473
   13MOL   C147 5931   7.250   3.134   2.766 -0.2231  0.1146 -0.2391
   13MOL   C148 5932   7.144   3.191   2.675  0.0294  0.3893  0.1305
   13MOL   C149 5933   7.106   3.089   2.558  0.4364  1.1096 -0.4255
   13MOL   C150 5934   7.038   2.956   2.610  0.2466 -0.1955 -0.0724
   13MOL   O151 5935   7.000   2.885   2.494  0.0114  0.6270 -0.1249
   13MOL   C152 5936   6.920   2.776   2.503  0.4924  0.0104 -0.3968
   13MOL   O153 5937   6.895   2.710   2.608  0.0231  0.1792  0.1140
   13MOL   C154 5938   6.887   2.717   2.369  0.3704  0.0713  0.4168
   13MOL   C155 5939   6.736   2.677   2.372 -0.5336 -0.1873  0.4637
   13MOL   C156 5940   6.661   2.729   2.247 -0.1780  0.9390  0.5591
   13MOL   O157 5941   6.675   2.845   2.207 -0.1747  0.2570 -0.0830
   13MOL   H158 5942   7.204   3.059   2.830  1.4789  0.8833  1.9335
   13MOL   H159 5943   7.275   3.204   2.845  0.3753  0.5536 -0.8102
   13MOL   H160 5944   7.180   3.281   2.625 -1.8393  1.2414  0.2655
   13MOL   H161 5945   7.058   3.225   2.733 -0.7138 -0.0480 -0.6842
   13MOL   H162 5946   7.195   3.061   2.502 -0.0370  0.2142 -0.7300
   13MOL   H163 5947   7.036   3.139   2.492  0.4959  0.9084 -0.6416
   13MOL   H164 5948   7.103   2.903   2.679  0.5796 -1.3829 -1.2810
   13MOL   H165 5949   6.946   2.979   2.663  0.2856 -0.9269  0.3127
   13MOL   H166 5950   6.955   2.637   2.341  0.8895  0.5020  0.4265
   13MOL   H167 5951   6.896   2.800   2.299 -1.5527  0.1241  0.2025
   13MOL   H168 5952   6.732   2.569   2.381 -0.6487 -0.1694  0.6170
   13MOL   H169 5953   6.694   2.723   2.461  1.4939 -0.1170  1.3953
   13MOL   O170 5954   6.591   2.632   2.185  0.5603  0.1059 -0.3570
   13MOL   C171 5955   6.512   2.657   2.075 -0.1615  0.8019  0.3942
   13MOL   C172 5956   6.526   2.526   1.985  1.3130  0.1917 -0.6391
   13MOL   C173 5957   6.657   2.488   1.926 -0.3398 -0.1628 -0.6327
   13MOL   C174 5958   6.641   2.361   1.837 -0.1995  0.0626 -0.4978
   13MOL   O175 5959   6.765   2.338   1.780  0.3782  0.2701 -0.1484
   13MOL   C176 5960   6.762   2.251   1.671 -0.0460 -0.3645 -0.4498
   13MOL   O177 5961   6.664   2.220   1.599 -0.7061 -0.0323 -0.3915
   13MOL   C178 5962   6.900   2.205   1.632  0.4976 -0.9016 -0.5097
   13MOL   C179 5963   7.001   2.318   1.631  0.3738  0.3497 -0.6180
   13MOL   C180 5964   7.109   2.315   1.526 -0.3913  0.2950  0.2254
   13MOL   O181 5965   7.223   2.270   1.538  0.4971 -0.2615  0.2165
   13MOL   H182 5966   6.410   2.666   2.111 -0.6152  0.6275 -0.8248
   13MOL   H183 5967   6.535   2.752   2.025  3.3545  0.5988  1.4566
   13MOL   H184 5968   6.466   2.544   1.896  0.6476 -1.8262 -0.6350
   13MOL   H185 5969   6.478   2.438   2.028 -0.0191  2.1626  2.0887
   13MOL   H186 5970   6.717   2.467   2.014  0.7502  0.3537 -1.2403
   13MOL   H187 5971   6.709   2.575   1.887 -0.2614 -0.0938 -0.3738
   13MOL   H188 5972   6.613   2.273   1.895  0.3441  1.0167  1.2402
   13MOL   H189 5973   6.562   2.379   1.763  0.8855 -1.7207 -2.1208
   13MOL   H190 5974   6.905   2.141   1.545  1.6175  0.2181 -1.2812
   13MOL   H191 5975   6.932   2.132   1.706  0.8923  1.2722  1.5360
   13MOL   H192 5976   6.945   2.411   1.620 -1.5064 -0.0747  4.0311
   13MOL   H193 5977   7.041   2.320   1.733 -1.2352  0.2619  0.0268
   13MOL   O194 5978   7.060   2.370   1.410 -0.5310  0.3984 -0.1682
   13MOL   C195 5979   7.142   2.367   1.300  0.2563  0.1366  0.6211
   13MOL   C196 5980   7.116   2.492   1.213 -1.1583 -0.0044  0.2515
   13MOL   C197 5981   6.984   2.493   1.136 -0.6562 -0.1505 -0.7889
   13MOL   C198 5982   6.858   2.508   1.222  0.1419  0.1114 -0.0896
   13MOL   O199 5983   6.749   2.524   1.125  0.6198 -0.3374 -0.0959
   13MOL   C200 5984   6.684   2.639   1.096 -0.4411  0.7794 -0.6570
   13MOL   O201 5985   6.715   2.746   1.147 -0.7235 -0.1009 -0.6299
   13MOL   C202 5986   6.576   2.628   0.989 -0.2392 -0.0804 -0.4723
   13MOL   C203 5987   6.583   2.744   0.893 -0.4929 -0.2099 -0.4331
   13MOL   C204 5988   6.707   2.743   0.796 -0.3007  0.5983  0.0286
   13MOL   O205 5989   6.805   2.816   0.816 -0.0064  0.2052  0.0470
   13MOL   H206 5990   7.249   2.359   1.321  0.3632 -0.5468 -0.1482
   13MOL   H207 5991   7.108   2.289   1.232 -0.0914  0.8962 -0.0972
   13MOL   H208 5992   7.189   2.499   1.133 -1.6722 -0.3332 -0.2478
   13MOL   H209 5993   7.132   2.584   1.270 -0.7302 -1.1665  2.0466
   13MOL   H210 5994   6.979   2.397   1.085  1.3957 -1.5159  1.4784
   13MOL   H211 5995   6.994   2.581   1.072  2.6673 -2.0924 -3.0999
   13MOL   H212 5996   6.840   2.426   1.291 -1.0976  1.8570  1.7089
   13MOL   H213 5997   6.867   2.595   1.286  0.7567  0.5288 -0.7344
   13MOL   H214 5998   6.484   2.636   1.047 -0.3622 -0.6155 -0.5853
   13MOL   H215 5999   6.587   2.536   0.932  0.2007  0.2815 -0.9802
   13MOL   H216 6000   6.486   2.764   0.846 -0.3253  0.4108 -0.5229
   13MOL   H217 6001   6.592   2.834   0.954  0.0574 -0.8390  0.4090
   13MOL   O218 6002   6.685   2.667   0.682  0.7634 -0.1388 -0.3073
   13MOL   C219 6003   6.783   2.631   0.583  0.2031  0.6665 -0.4132
   13MOL   C220 6004   6.737   2.526   0.468  0.0762 -0.4349  0.0969
   13MOL   C221 6005   6.853   2.456   0.393  0.1696  0.6969 -0.3920
   13MOL   C222 6006   6.950   2.553   0.333  0.6925  0.1804 -0.1358
   13MOL   O223 6007   6.881   2.629   0.240 -0.2051  0.0220 -0.1837
   13MOL   C224 6008   6.885   2.598   0.114 -0.0531 -0.1233 -0.3229
   13MOL   O225 6009   6.943   2.502   0.060 -0.2168  0.0137 -0.6961
   13MOL   C226 6010   6.793   2.685   0.035  0.3960  0.4253 -0.6775
   13MOL   C227 6011   6.748   2.815   0.106  0.2204 -0.0823 -0.7267
   13MOL   C228 6012   6.635   2.808   0.209 -0.5247  0.0353 -0.6764
   13MOL   O229 6013   6.532   2.735   0.199  0.7451  0.8818 -0.2856
   13MOL   H230 6014   6.838   2.716   0.543  0.7783  0.3900 -0.2243
   13MOL   H231 6015   6.859   2.577   0.640 -0.2496  0.8810  0.4013
   13MOL   H232 6016   6.670   2.585   0.404  0.5169 -2.8649 -2.7282
   13MOL   H233 6017   6.677   2.442   0.502 -1.8731 -0.1314 -2.3854
   13MOL   H234 6018   6.805   2.403   0.311 -1.4792  0.1098  0.9120
   13MOL   H235 6019   6.907   2.391   0.462  1.3523 -2.0926 -3.7865
   13MOL   H236 6020   6.981   2.630   0.404  0.1221 -0.0295  0.3412
   13MOL   H237 6021   7.040   2.507   0.292  1.1977 -1.6009  2.8310
   13MOL   H238 6022   6.706   2.632   7.873 -0.5887  1.8625 -0.4646
   13MOL   H239 6023   6.855   2.710   7.823 -0.0796  1.2981 -0.7745
   13MOL   H240 6024   6.830   2.867   0.156 -1.3547  0.8188  0.9798
   13MOL   H241 6025   6.709   2.885   0.032  1.6798  0.3401 -1.1067
   13MOL   O242 6026   6.658   2.892   0.314  0.1797 -0.0943 -0.3859
   13MOL   C243 6027   6.562   2.916   0.417 -0.1690 -0.6849  0.1138
   13MOL   C244 6028   6.625   2.974   0.542 -0.0066  0.4642 -0.4693
   13MOL   C245 6029   6.688   3.116   0.523 -0.9551 -0.7821  0.1203
   13MOL   C246 6030   6.755   3.166   0.649 -0.1116 -0.6684 -0.4236
   13MOL   O247 6031   6.868   3.246   0.610  0.1068  0.5646 -0.4534
   13MOL   C248 6032   6.979   3.239   0.685 -0.4450 -0.0636 -0.2949
   13MOL   O249 6033   6.989   3.185   0.796  0.2036 -0.4560  0.6509
   13MOL   C250 6034   7.100   3.311   0.636  0.5049 -0.1631  0.6985
   13MOL   C251 6035   7.225   3.278   0.723  0.1469 -0.5084 -0.6280
   13MOL   C252 6036   7.341   3.350   0.657  0.6025 -0.3359  0.0024
   13MOL   O253 6037   7.397   3.296   0.561  0.2001  0.4012 -0.6286
   13MOL   H254 6038   6.488   2.991   0.390 -0.6592 -0.5692  1.7176
   13MOL   H255 6039   6.514   2.820   0.439  0.2566 -1.1909 -1.0923
   13MOL   H256 6040   6.700   2.905   0.582  0.8726  0.4547 -2.1062
   13MOL   H257 6041   6.553   2.978   0.624  1.6494  0.6141  1.0297
   13MOL   H258 6042   6.614   3.195   0.505 -0.0472 -0.0431 -0.4259
   13MOL   H259 6043   6.754   3.114   0.436  0.6237 -1.8795  1.3176
   13MOL   H260 6044   6.682   3.235   0.691  2.7395  0.8584  2.1999
   13MOL   H261 6045   6.785   3.085   0.716  0.6297  1.5561  2.0179
   13MOL   H262 6046   7.063   3.413   0.638  2.5887  0.6542 -0.9929
   13MOL   H263 6047   7.115   3.288   0.530 -0.1851 -1.8678  0.9497
   13MOL   H264 6048   7.196   3.326   0.817 -0.6801 -2.5227  0.1792
   13MOL   H265 6049   7.254   3.174   0.737  0.7782 -0.1286  1.0386
   13MOL   O266 6050   7.368   3.473   0.710  0.2026  0.1016 -1.0445
   13MOL   C267 6051   7.453   3.563   0.632 -0.3853  0.1182  0.3867
   13MOL   C268 6052   7.405   3.707   0.661 -0.4859 -0.2533 -0.2900
   13MOL   C269 6053   7.272   3.738   0.606 -0.2575  0.9372 -0.3727
   13MOL   C270 6054   7.221   3.878   0.632 -0.9424 -0.0646 -0.8163
   13MOL   O271 6055   7.117   3.895   0.541 -0.6511  0.5532 -0.1016
   13MOL   C272 6056   7.127   3.999   0.449  0.4343  0.3801 -1.3775
   13MOL   O273 6057   7.219   4.081   0.437 -0.5179  0.7299  0.3618
   13MOL   C274 6058   7.006   4.012   0.353  1.0351  0.0575 -0.2264
   13MOL   C275 6059   7.018   3.903   0.241  0.1964 -0.2006 -0.0324
   13MOL   C276 6060   7.147   3.903   0.158  0.1689  0.0154  0.1991
   13MOL   O277 6061   7.239   3.821   0.172  0.3907  0.5270 -0.1195
   13MOL   H278 6062   7.558   3.545   0.658 -0.5992  1.0739  1.9752
   13MOL   H279 6063   7.428   3.538   0.529 -2.1863  0.4999  0.7224
   13MOL   H280 6064   7.486   3.760   0.610 -0.2758 -0.3971 -0.1111
   13MOL   H281 6065   7.409   3.723   0.769 -0.6628  1.0464 -0.4611
   13MOL   H282 6066   7.197   3.659   0.613  0.9107 -0.2709 -1.2952
   13MOL   H283 6067   7.292   3.732   0.499 -0.1370  0.2235 -0.3118
   13MOL   H284 6068   7.200   3.888   0.739  1.1579 -0.0301 -0.3707
   13MOL   H285 6069   7.306   3.943   0.611 -0.7035 -0.6742 -1.7330
   13MOL   H286 6070   7.011   4.111   0.307 -2.5950 -0.0363 -0.9314
   13MOL   H287 6071   6.923   3.995   0.421  1.1171  0.3971 -0.0406
   13MOL   H288 6072   6.998   3.803   0.279 -2.2010  0.6615  1.0713
   13MOL   H289 6073   6.939   3.921   0.169  1.5423  2.9465 -0.8428
   13MOL   O290 6074   7.137   4.000   0.057 -0.6827 -0.4152  0.0968
   13MOL   C291 6075   7.258   4.032   7.854 -0.9232  0.4161  0.4456
   13MOL   C292 6076   7.231   4.172   7.810 -0.2870  0.1028  0.2620
   13MOL   C293 6077   7.233   4.282   0.037 -0.5826  0.8086 -0.3033
   13MOL   C294 6078   7.218   4.420   7.858  0.3010  0.2806  0.3168
   13MOL   O295 6079   7.092   4.446   7.806  0.8249  0.1737  0.5193
   13MOL   C296 6080   7.063   4.571   7.770 -0.5080  0.0404 -0.8896
   13MOL   O297 6081   7.149   4.660   7.774 -0.0385 -0.2927 -0.7553
   13MOL   C298 6082   6.922   4.599   7.712 -0.1335  0.2965  0.2922
   13MOL   C299 6083   6.919   4.697   7.602  0.3660  0.3117  0.4622
   13MOL   C300 6084   6.829   4.636   7.492  0.0302 -0.1149 -0.7848
   13MOL   O301 6085   6.878   4.619   7.379 -0.0170  0.0604  0.1537
   13MOL   H302 6086   7.352   4.036   0.035 -1.2500  0.9552  0.9646
   13MOL   H303 6087   7.262   3.972   7.763  0.2681  0.2041  0.6313
   13MOL   H304 6088   7.137   4.182   7.757  1.0743  2.1051 -1.8771
   13MOL   H305 6089   7.301   4.208   7.735  0.5142  0.9051  1.3578
   13MOL   H306 6090   7.331   4.272   0.085 -0.4760 -2.5849 -1.1206
   13MOL   H307 6091   7.164   4.266   0.121 -0.9150 -0.3771 -0.7926
   13MOL   H308 6092   7.249   4.499   0.052  1.8149 -0.3499  0.3761
   13MOL   H309 6093   7.281   4.440   7.771 -1.9971  2.7483 -0.8525
   13MOL   H310 6094   6.863   4.627   7.800 -1.0089 -0.1437 -0.1435
   13MOL   H311 6095   6.884   4.501   7.682 -0.5020  0.6489 -0.4060
   13MOL   H312 6096   6.862   4.786   7.630  0.4998  0.5426  0.0098
   13MOL   H313 6097   7.016   4.725   7.562  0.9266 -0.6440  1.1428
   13MOL   O314 6098   6.706   4.615   7.542  0.0229 -0.1746  0.5286
   13MOL   C315 6099   6.599   4.607   7.452 -1.0510 -0.4542  0.1530
   13MOL   C316 6100   6.469   4.573   7.532 -0.6708  0.3938  0.6795
   13MOL   C317 6101   6.490   4.457   7.630  0.2389  0.3427  0.4129
   13MOL   C318 6102   6.366   4.416   7.701 -0.0563  0.9790 -0.0882
   13MOL   O319 6103   6.304   4.529   7.777 -0.1226  0.3500  1.0953
   13MOL   C320 6104   6.192   4.486   7.854  0.3527  0.5015 -0.1533
   13MOL   O321 6105   6.166   4.373   0.015 -0.1242 -0.4871 -0.1667
   13MOL   C322 6106   6.104   4.601   0.026 -0.8383  0.1548  0.0523
   13MOL   C323 6107   6.063   4.693   7.785 -0.1693  0.1333 -0.4058
   13MOL   C324 6108   6.007   4.830   7.825  0.2123 -0.2693 -0.5830
   13MOL   O325 6109   6.014   4.872   0.064  0.0192 -0.5227 -0.2232
   13MOL   H326 6110   6.593   4.703   7.401  0.8397  0.1482  1.0370
   13MOL   H327 6111   6.627   4.544   7.367 -1.6818 -1.3394  0.5886
   13MOL   H328 6112   6.389   4.550   7.462  0.5632  0.8905 -0.9014
   13MOL   H329 6113   6.447   4.664   7.588  0.5035 -0.1385  2.0374
   13MOL   H330 6114   6.574   4.483   7.694  2.8603 -0.6878 -2.4844
   13MOL   H331 6115   6.527   4.369   7.578  1.0364  0.3876  0.8942
   13MOL   H332 6116   6.286   4.386   7.633  1.7104 -1.9939 -0.9137
   13MOL   H333 6117   6.381   4.328   7.763 -2.8618 -0.7891 -1.8299
   13MOL   H334 6118   6.161   4.658   0.099 -0.8777  1.8926 -1.2641
   13MOL   H335 6119   6.016   4.561   0.077 -0.1028 -0.7463  0.6398
   13MOL   H336 6120   6.153   4.704   7.725 -0.0652  0.5285 -0.1756
   13MOL   H337 6121   5.987   4.642   7.725  2.2718 -2.2297 -1.5732
   13MOL   O338 6122   5.948   4.886   7.725  0.2930  0.5242  0.0707
   13MOL   C339 6123   5.868   5.003   7.743  0.5071 -0.2148 -0.1712
   13MOL   C340 6124   5.787   5.029   7.616 -0.7170  0.2633  0.2977
   13MOL   C341 6125   5.641   5.063   7.637  0.0106 -0.1452 -0.0327
   13MOL   C342 6126   5.553   4.948   7.672 -0.7771  0.6752  0.2319
   13MOL   O343 6127   5.565   4.854   7.568 -0.0370  0.6182 -0.1350
   13MOL   C344 6128   5.468   4.755   7.535  0.5155  0.0326 -0.2394
   13MOL   O345 6129   5.367   4.732   7.602 -0.0171 -0.1690  0.1970
   13MOL   C346 6130   5.507   4.679   7.412  0.2961 -0.7069 -0.3779
   13MOL   C347 6131   5.388   4.605   7.352 -0.2352 -0.3966  0.1664
   13MOL   C348 6132   5.376   4.619   7.197  0.6912 -0.3440 -0.0658
   13MOL   O349 6133   5.424   4.538   7.116 -0.4447  0.0234 -0.2503
   13MOL   H350 6134   5.806   4.987   7.831  1.8544  0.5182  0.9322
   13MOL   H351 6135   5.926   5.088   7.778  0.3879 -0.1658 -0.0939
   13MOL   H352 6136   5.798   4.945   7.548 -0.6535  0.8671 -0.4420
   13MOL   H353 6137   5.829   5.116   7.566  1.7338 -1.4551 -0.7443
   13MOL   H354 6138   5.600   5.130   7.562  0.4755  0.6713  0.4307
   13MOL   H355 6139   5.638   5.130   7.723 -1.5250 -1.1034  0.6810
   13MOL   H356 6140   5.585   4.907   7.768  0.9700  4.4826  1.3960
   13MOL   H357 6141   5.448   4.976   7.679 -0.6417  1.0371  0.7887
   13MOL   H358 6142   5.576   4.602   7.448  2.0255  0.1455 -1.8238
   13MOL   H359 6143   5.542   4.754   7.342  1.4431 -0.3699  0.5551
   13MOL   H360 6144   5.393   4.498   7.374 -2.0146 -1.1857 -2.9894
   13MOL   H361 6145   5.295   4.645   7.391  0.4996  1.4025  0.1053
   13MOL   O362 6146   5.333   4.745   7.161 -0.3950  0.1323 -0.7936
   13MOL   C363 6147   5.342   4.780   7.022  0.3201  0.4450  0.3264
   13MOL   C364 6148   5.275   4.910   6.993 -0.5238 -0.3423 -0.0045
   13MOL   C365 6149   5.287   4.956   6.840 -0.6117 -0.9664 -0.5231
   13MOL   C366 6150   5.240   5.104   6.819  0.1147 -0.1192  0.0259
   13MOL   O367 6151   5.331   5.196   6.879  0.0755  0.3197  0.0118
   13MOL   C368 6152   5.274   5.322   6.918  0.0983 -0.3399  0.8675
   13MOL   O369 6153   5.152   5.354   6.921  0.1073 -0.0123  0.6877
   13MOL   C370 6154   5.381   5.411   6.970 -0.7260 -0.1266 -0.6285
   13MOL   C371 6155   5.444   5.499   6.853 -0.6203  0.7990 -0.2075
   13MOL   C372 6156   5.362   5.622   6.811  0.0623  0.8731 -0.4907
   13MOL   O373 6157   5.393   5.726   6.869 -0.9979 -0.3379 -0.5117
   13MOL   H374 6158   5.450   4.780   7.008  0.1497  1.0298 -1.0384
   13MOL   H375 6159   5.284   4.707   6.965  0.5909 -1.4240  2.3885
   13MOL   H376 6160   5.303   4.983   7.069 -1.8839 -0.1484  0.3389
   13MOL   H377 6161   5.170   4.890   7.018 -0.4205 -2.5865 -1.1986
   13MOL   H378 6162   5.234   4.886   6.776 -0.1499 -1.0968 -0.7677
   13MOL   H379 6163   5.394   4.951   6.820  0.0723 -0.6569  2.7381
   13MOL   H380 6164   5.258   5.130   6.715 -0.0847  1.0371  0.2708
   13MOL   H381 6165   5.134   5.107   6.848  0.0911  0.1729 -0.0893
   13MOL   H382 6166   5.455   5.344   7.014  0.4506  1.4417 -0.2014
   13MOL   H383 6167   5.331   5.467   7.049  1.0582  1.2718 -0.4584
   13MOL   H384 6168   5.538   5.548   6.878 -0.6543  2.1468 -2.5451
   13MOL   H385 6169   5.475   5.435   6.771  1.8774  1.7424 -0.0447
   13MOL   O386 6170   5.266   5.596   6.716  0.1864 -0.0887 -0.5170
   13MOL   C387 6171   5.176   5.698   6.683  0.0304 -0.0894 -0.0518
   13MOL   C388 6172   5.052   5.640   6.613  0.7870 -0.1154  0.0526
   13MOL   C389 6173   4.985   5.538   6.704 -0.0268  0.5290 -0.4294
   13MOL   C390 6174   4.858   5.485   6.649  0.1752  0.5485 -0.6879
   13MOL   O391 6175   4.744   5.568   6.652 -0.2542  0.8151  0.3213
   13MOL   C392 6176   4.681   5.601   6.540 -0.5008  0.0523 -0.2436
   13MOL   O393 6177   4.716   5.574   6.421  0.4429  0.1738 -0.3850
   13MOL   C394 6178   4.541   5.652   6.572  1.0069  0.0894 -0.5115
   13MOL   C395 6179   4.499   5.761   6.476  0.4690 -0.1286 -0.1701
   13MOL   C396 6180   4.424   5.874   6.538 -0.0315 -0.2368  1.0139
   13MOL   O397 6181   4.462   5.992   6.536  0.0363  0.3574  0.2784
   13MOL   H398 6182   5.148   5.767   6.762 -2.8322 -0.2514 -0.8441
   13MOL   H399 6183   5.221   5.756   6.602 -1.8530 -2.4203 -2.8602
   13MOL   H400 6184   5.078   5.591   6.519  0.0274  0.3282 -0.3956
   13MOL   H401 6185   4.984   5.718   6.580  1.5526  1.3376  1.8370
   13MOL   H402 6186   4.969   5.568   6.807  2.0353 -0.9236  0.3461
   13MOL   H403 6187   5.051   5.453   6.721 -1.1389 -0.6069 -1.6284
   13MOL   H404 6188   4.870   5.444   6.548  1.7086  0.4439 -0.4699
   13MOL   H405 6189   4.816   5.402   6.706  0.9052  1.5967  1.4008
   13MOL   H406 6190   4.540   5.687   6.675  0.5331  4.2019 -1.8303
   13MOL   H407 6191   4.477   5.565   6.558  0.0508  0.1541  3.0845
   13MOL   H408 6192   4.588   5.806   6.432  0.1314  0.2424 -0.4768
   13MOL   H409 6193   4.440   5.712   6.398  0.5036  1.5288 -1.2474
   13MOL   O410 6194   4.307   5.829   6.583 -0.5049 -0.5911 -0.3514
   13MOL   C411 6195   4.219   5.913   6.655  0.6282  0.0686 -0.2777
   13MOL   C412 6196   4.236   5.878   6.802  0.0634 -0.3127 -0.5763
   13MOL   C413 6197   4.347   5.963   6.865  0.1207 -0.4618  0.0646
   13MOL   C414 6198   4.335   6.116   6.854  0.3275  0.3279  0.3696
   13MOL   O415 6199   4.209   6.168   6.897 -0.3150 -0.1102  0.2400
   13MOL   C416 6200   4.203   6.245   7.009 -0.0794 -0.6092 -0.1536
   13MOL   O417 6201   4.293   6.271   7.089  0.3908  0.2270 -0.4210
   13MOL   C418 6202   4.063   6.306   7.031 -0.1150  0.0591  0.1964
   13MOL   C419 6203   4.044   6.392   7.154 -0.0961 -0.7778 -0.5317
   13MOL   C420 6204   4.043   6.310   7.276 -0.7154  0.5194 -0.3122
   13MOL   O421 6205   4.128   6.317   7.361  0.6339 -0.0000 -0.5221
   13MOL   H422 6206   4.233   6.021   6.651 -0.8003  0.2734 -0.0831
   13MOL   H423 6207   4.114   5.905   6.629 -0.0739  0.3706  2.3199
   13MOL   H424 6208   4.286   5.782   6.807 -0.0179 -0.4416 -2.0619
   13MOL   H425 6209   4.145   5.898   6.859  0.4955  0.6893 -0.2282
   13MOL   H426 6210   4.444   5.929   6.829 -0.2464 -0.0297 -1.3788
   13MOL   H427 6211   4.352   5.938   6.971  2.1178 -0.8056 -0.1049
   13MOL   H428 6212   4.416   6.165   6.908  0.5939  1.2360 -0.8191
   13MOL   H429 6213   4.339   6.154   6.752  1.0773 -1.3043 -0.2373
   13MOL   H430 6214   3.988   6.227   7.024  1.9815 -2.0720  1.0829
   13MOL   H431 6215   4.042   6.356   6.936 -0.6105 -1.4074 -0.4750
   13MOL   H432 6216   4.118   6.472   7.149 -0.9357 -0.0753 -2.1369
   13MOL   H433 6217   3.947   6.443   7.163  0.1392 -0.4465  0.1121
   13MOL   O434 6218   3.940   6.213   7.275 -0.4877 -0.3564 -0.3197
   13MOL   C435 6219   3.935   6.112   7.376 -0.2044 -0.1788  0.1271
   13MOL   C436 6220   4.009   5.995   7.315 -0.2954  0.0831  0.3264
   13MOL   C437 6221   3.954   5.966   7.172 -0.5763  0.7439  0.2857
   13MOL   C438 6222   3.991   5.815   7.127  0.4480  0.2357  0.2189
   13MOL   O439 6223   4.127   5.799   7.129  0.0072  0.1740  0.4208
   13MOL   C440 6224   4.173   5.677   7.099  0.5557  1.0431 -0.3460
   13MOL   O441 6225   4.104   5.581   7.078  0.4423  0.4505  0.2779
   13MOL   C442 6226   4.316   5.672   7.091  0.1199  0.4224 -0.7889
   13MOL   C443 6227   4.382   5.532   7.096  0.1872  0.4027 -0.2896
   13MOL   C444 6228   4.512   5.519   7.001  0.4382 -0.0066  0.5878
   13MOL   O445 6229   4.502   5.568   6.887 -0.1783 -0.1511 -0.1816
   13MOL   H446 6230   3.995   6.139   7.463 -0.8046  0.2569  0.4089
   13MOL   H447 6231   3.842   6.074   7.419  0.3893  0.5641  2.1094
   13MOL   H448 6232   3.998   5.904   7.374 -1.1343 -0.7477 -1.1116
   13MOL   H449 6233   4.115   6.014   7.303 -0.3229 -0.3865 -0.6754
   13MOL   H450 6234   3.992   6.036   7.098 -1.7494 -1.8704 -2.8879
   13MOL   H451 6235   3.846   5.976   7.160 -0.8525 -2.1373 -0.0020
   13MOL   H452 6236   3.960   5.744   7.205 -0.8904  1.2185  0.6036
   13MOL   H453 6237   3.953   5.777   7.032  2.8435 -1.4162 -0.1216
   13MOL   H454 6238   4.351   5.741   7.168 -0.3393  1.3725 -1.4162
   13MOL   H455 6239   4.358   5.724   7.005 -0.2231  0.1624 -1.1142
   13MOL   H456 6240   4.414   5.508   7.198  1.1312 -1.2873 -0.9649
   13MOL   H457 6241   4.320   5.454   7.052 -0.7706  0.5058  0.8534
   13MOL   O458 6242   4.622   5.487   7.070 -0.3569 -0.3748  0.6203
   13MOL   C459 6243   4.751   5.464   6.995  0.0176  0.1282 -0.1135
   13MOL   C460 6244   4.761   5.310   6.971  0.1378 -0.6103  0.0132
   13MOL   C461 6245   4.751   5.222   7.100  0.1256  0.4695  0.2779
   13MOL   C462 6246   4.754   5.067   7.066 -0.4734 -0.1138 -0.3907
   13MOL   O463 6247   4.753   4.962   7.167 -0.8106 -0.5728 -0.2220
   13MOL   C464 6248   4.856   4.944   7.249 -0.5413  0.3786 -0.4605
   13MOL   O465 6249   4.970   4.993   7.234 -0.3312 -0.0258 -0.1907
   13MOL   C466 6250   4.832   4.835   7.354  0.1890  0.2272 -0.1105
   13MOL   C467 6251   4.907   4.707   7.326  0.2370 -0.4721 -0.2453
   13MOL   C468 6252   5.044   4.712   7.402  0.5783  1.0397 -0.4004
   13MOL   O469 6253   5.050   4.659   7.508  0.6402  0.2926 -0.5294
   13MOL   H470 6254   4.741   5.521   6.903  1.4682  1.2614  0.4066
   13MOL   H471 6255   4.831   5.508   7.054 -1.3929  1.9296  0.4973
   13MOL   H472 6256   4.855   5.291   6.920  0.4577 -0.9976  0.7393
   13MOL   H473 6257   4.675   5.296   6.905 -0.3280 -1.8935  0.8688
   13MOL   H474 6258   4.660   5.235   7.158 -0.3712 -0.4165 -0.2833
   13MOL   H475 6259   4.834   5.246   7.167  0.4130 -0.5648  0.3134
   13MOL   H476 6260   4.678   5.048   6.991  0.5853  3.2645 -2.4058
   13MOL   H477 6261   4.847   5.046   7.014 -1.9207 -1.9415 -2.3154
   13MOL   H478 6262   4.725   4.816   7.342  0.5492  0.0453 -3.3453
   13MOL   H479 6263   4.842   4.878   7.454 -4.2659  0.6759  0.2586
   13MOL   H480 6264   4.847   4.626   7.369 -0.8345 -0.4703 -1.7065
   13MOL   H481 6265   4.928   4.692   7.220 -1.6374  0.6474 -0.7909
   13MOL   H482 6266   5.122   4.774   7.358  0.1788  1.5298 -0.4217
   14MOL     O1 6267   2.930   3.904   6.573  0.0250  0.2449 -0.3646
   14MOL     C2 6268   3.061   3.956   6.540  0.2013 -0.8258 -0.0057
   14MOL     C3 6269   3.134   3.853   6.475 -0.3012 -0.2595  0.0150
   14MOL     C4 6270   3.260   3.899   6.389  0.5075 -0.5105  0.3165
   14MOL     C5 6271   3.311   3.781   6.298  0.9067 -0.4431 -0.6976
   14MOL     O6 6272   3.395   3.688   6.372  0.0313  0.1145  0.8474
   14MOL     C7 6273   3.527   3.702   6.366 -0.1633 -0.3093  0.7142
   14MOL     O8 6274   3.591   3.793   6.311  0.3739  0.4187  0.4264
   14MOL     C9 6275   3.594   3.577   6.416 -0.3671 -0.4595 -0.2114
   14MOL    C10 6276   3.559   3.456   6.321  0.6430 -0.2862 -0.2091
   14MOL    C11 6277   3.675   3.383   6.264 -1.1018  0.3329  0.6338
   14MOL    O12 6278   3.747   3.306   6.332  0.1672  0.5037  0.1409
   14MOL    H13 6279   3.057   4.026   6.457 -1.7075  1.1636  1.6966
   14MOL    H14 6280   3.098   4.018   6.621 -1.9524 -1.0311  1.1743
   14MOL    H15 6281   3.078   3.772   6.429  1.1808 -1.7056  0.6981
   14MOL    H16 6282   3.175   3.786   6.551 -0.4051 -0.0176  0.2801
   14MOL    H17 6283   3.333   3.945   6.455  0.1533 -1.0748  1.1244
   14MOL    H18 6284   3.234   3.982   6.324 -0.1688 -0.0300  1.1884
   14MOL    H19 6285   3.234   3.727   6.244  1.5346 -1.7463 -0.3009
   14MOL    H20 6286   3.371   3.841   6.230 -0.5257 -0.1828 -1.7521
   14MOL    H21 6287   3.569   3.557   6.521  2.0688  1.5835  0.7931
   14MOL    H22 6288   3.701   3.595   6.410 -0.6381  1.2415  0.0127
   14MOL    H23 6289   3.509   3.377   6.376  0.9718  0.2726  0.9239
   14MOL    H24 6290   3.495   3.493   6.241  0.8684 -2.0283 -1.2072
   14MOL    H25 6291   2.926   3.905   6.668 -0.4351  1.3225 -0.3926
   14MOL    O26 6292   3.699   3.430   6.138  0.1365  0.2019 -0.0516
   14MOL    C27 6293   3.823   3.386   6.070 -0.2163  0.3884  0.1426
   14MOL    C28 6294   3.941   3.487   6.095 -0.4475 -0.6314 -0.2472
   14MOL    C29 6295   4.065   3.434   6.021  0.3117  0.2832 -0.6814
   14MOL    C30 6296   4.193   3.519   6.066 -0.5387  0.6247 -0.0193
   14MOL    O31 6297   4.215   3.637   5.992  0.1358 -0.4060 -0.6252
   14MOL    C32 6298   4.310   3.721   6.030 -0.1808 -0.3703 -0.3795
   14MOL    O33 6299   4.380   3.711   6.128 -0.1067  0.2503 -0.8528
   14MOL    C34 6300   4.345   3.843   5.932  0.1607 -0.2526 -0.1615
   14MOL    C35 6301   4.491   3.911   5.947 -0.0822  0.3421 -0.8408
   14MOL    C36 6302   4.596   3.849   5.849 -0.7482 -0.0615 -0.6378
   14MOL    O37 6303   4.691   3.780   5.888  0.7643 -1.0966 -0.2384
   14MOL    H38 6304   3.866   3.299   6.120  1.3182  0.5513 -0.8527
   14MOL    H39 6305   3.803   3.363   5.966 -0.8422  0.3670  0.2673
   14MOL    H40 6306   3.967   3.507   6.198  0.0640 -0.1967 -0.4599
   14MOL    H41 6307   3.924   3.580   6.040  0.5116 -0.6718 -0.6168
   14MOL    H42 6308   4.052   3.425   5.913  0.5801 -2.4358 -0.5432
   14MOL    H43 6309   4.075   3.328   6.046  3.9507  0.2391 -1.9551
   14MOL    H44 6310   4.169   3.550   6.168  0.1231  1.2495 -0.0554
   14MOL    H45 6311   4.281   3.455   6.067 -1.4394 -0.6668 -1.0638
   14MOL    H46 6312   4.278   3.928   5.944 -1.6052 -1.5465 -0.7200
   14MOL    H47 6313   4.323   3.824   5.827  0.9315  0.1319 -0.3958
   14MOL    H48 6314   4.496   4.019   5.932 -0.9525  0.4350 -0.5100
   14MOL    H49 6315   4.524   3.900   6.050 -1.1226 -0.6101 -0.6035
   14MOL    O50 6316   4.560   3.870   5.717  0.4495 -0.4210 -0.5831
   14MOL    C51 6317   4.640   3.839   5.602  0.3517 -0.7211 -0.0912
   14MOL    C52 6318   4.590   3.897   5.470 -0.4128 -0.4674 -0.0321
   14MOL    C53 6319   4.700   3.890   5.352 -0.3135 -0.7017 -0.5181
   14MOL    C54 6320   4.644   3.971   5.231 -0.0809 -0.4866 -0.2629
   14MOL    O55 6321   4.733   3.938   5.124  0.1950 -0.2900  0.1397
   14MOL    C56 6322   4.764   4.025   5.024 -0.2800  0.2621  0.5803
   14MOL    O57 6323   4.727   4.143   5.010  0.4111  0.3159 -0.1900
   14MOL    C58 6324   4.848   3.962   4.910  1.1042 -0.1729 -0.5365
   14MOL    C59 6325   4.998   3.955   4.931  0.3119 -0.1123  0.5070
   14MOL    C60 6326   5.069   4.094   4.923  0.0155  0.8870 -0.2650
   14MOL    O61 6327   5.141   4.126   4.830 -0.1889 -0.4864 -0.3503
   14MOL    H62 6328   4.739   3.882   5.618  0.7643 -1.2790 -1.0817
   14MOL    H63 6329   4.659   3.732   5.603  1.0693 -0.6372 -1.7440
   14MOL    H64 6330   4.576   4.005   5.477  2.5963 -0.0482  0.3575
   14MOL    H65 6331   4.500   3.842   5.443 -1.1713  1.2212 -1.0232
   14MOL    H66 6332   4.721   3.786   5.331 -0.1675 -0.3837 -2.0343
   14MOL    H67 6333   4.785   3.949   5.385 -1.5931  0.7802  0.2435
   14MOL    H68 6334   4.545   3.927   5.214  0.1613 -1.7814  1.4830
   14MOL    H69 6335   4.612   4.074   5.242  0.4311 -0.3773  0.1941
   14MOL    H70 6336   4.842   3.999   4.807  2.6066  1.3845 -0.0965
   14MOL    H71 6337   4.825   3.856   4.909 -1.6205  0.4060 -1.1915
   14MOL    H72 6338   5.018   3.922   5.033 -0.4074 -2.5537 -0.1116
   14MOL    H73 6339   5.044   3.893   4.853 -0.1240  0.8096 -0.4903
   14MOL    O74 6340   5.040   4.173   5.023  0.2521 -0.3026  0.1367
   14MOL    C75 6341   5.116   4.293   5.047 -0.3543  0.1220  0.1519
   14MOL    C76 6342   5.063   4.367   5.176  0.2784  0.6628 -0.6103
   14MOL    C77 6343   4.934   4.452   5.142 -0.6023  0.1215 -0.0798
   14MOL    C78 6344   4.891   4.520   5.272  0.1876 -0.3956  0.7488
   14MOL    O79 6345   4.764   4.584   5.263  0.2035  0.2626  0.3591
   14MOL    C80 6346   4.654   4.530   5.319 -0.2893  0.5419 -0.8559
   14MOL    O81 6347   4.656   4.428   5.387  0.2194  0.0160 -0.2420
   14MOL    C82 6348   4.520   4.601   5.288 -0.1403  0.0108 -0.5368
   14MOL    C83 6349   4.463   4.673   5.409  0.5916  0.0657  0.3515
   14MOL    C84 6350   4.565   4.744   5.497 -0.3412 -0.3810  0.2407
   14MOL    O85 6351   4.663   4.800   5.441  0.5970  0.3707  0.4126
   14MOL    H86 6352   5.223   4.272   5.041 -0.2679  0.5638  0.1586
   14MOL    H87 6353   5.097   4.361   4.964 -1.1305 -0.7547 -0.4013
   14MOL    H88 6354   5.137   4.437   5.215  0.1034  0.7730 -0.4787
   14MOL    H89 6355   5.045   4.294   5.254  0.6769  0.6927 -0.4889
   14MOL    H90 6356   4.855   4.381   5.118 -0.8961  0.8509 -1.3255
   14MOL    H91 6357   4.951   4.526   5.063  0.4917  0.9172  0.8771
   14MOL    H92 6358   4.877   4.452   5.357  2.4436 -1.1665  0.5328
   14MOL    H93 6359   4.962   4.589   5.318 -1.1608  1.0999  0.6231
   14MOL    H94 6360   4.460   4.523   5.242  0.4812 -0.4866 -0.5132
   14MOL    H95 6361   4.543   4.677   5.213 -1.0851  0.3641 -0.4772
   14MOL    H96 6362   4.378   4.736   5.383 -1.1564 -1.5944  1.9117
   14MOL    H97 6363   4.420   4.596   5.472 -3.0611  1.8286  0.1512
   14MOL    O98 6364   4.543   4.741   5.627 -0.1143  0.3872  0.4726
   14MOL    C99 6365   4.651   4.772   5.721  0.2081 -0.4644 -0.2167
   14MOL   C100 6366   4.658   4.921   5.730 -0.1731 -0.6577 -0.1247
   14MOL   C101 6367   4.556   4.983   5.824 -0.3833 -0.0583  0.6909
   14MOL   C102 6368   4.411   4.959   5.769 -0.6070 -0.0143  0.2380
   14MOL   O103 6369   4.340   4.857   5.840  0.3069  0.0766  0.6455
   14MOL   C104 6370   4.291   4.888   5.962  0.5579  0.5175 -0.0096
   14MOL   O105 6371   4.304   4.991   6.032  0.0114  0.2804 -0.2238
   14MOL   C106 6372   4.203   4.771   6.010 -0.3055  0.0892 -0.1583
   14MOL   C107 6373   4.135   4.792   6.135  0.9714  0.4050 -0.5172
   14MOL   C108 6374   4.210   4.735   6.254  0.0392  0.3130  0.6689
   14MOL   O109 6375   4.250   4.617   6.259 -0.3963 -0.3031  0.6049
   14MOL   H110 6376   4.633   4.712   5.811 -1.2810 -0.3733 -0.4410
   14MOL   H111 6377   4.740   4.717   5.690  0.9339 -0.1738  1.2942
   14MOL   H112 6378   4.652   4.958   5.627  4.5992 -2.5485 -1.2043
   14MOL   H113 6379   4.759   4.941   5.765  0.2597 -2.6625 -0.1707
   14MOL   H114 6380   4.572   5.091   5.826 -0.9215  0.0186  0.8935
   14MOL   H115 6381   4.587   4.960   5.926 -1.7719 -0.3382  1.0633
   14MOL   H116 6382   4.355   5.053   5.761 -2.0848 -1.0336 -1.9035
   14MOL   H117 6383   4.422   4.935   5.664 -2.5318  1.1906 -0.2656
   14MOL   H118 6384   4.272   4.688   6.026 -1.6050 -0.8440  0.7563
   14MOL   H119 6385   4.125   4.748   5.937  1.5842 -1.8940 -1.6373
   14MOL   H120 6386   4.131   4.900   6.151  1.5617  0.5070 -1.0436
   14MOL   H121 6387   4.038   4.743   6.125  0.7582  0.5770  0.5938
   14MOL   O122 6388   4.240   4.832   6.343  0.2955  0.3583 -0.2958
   14MOL   C123 6389   4.304   4.793   6.458 -0.4114 -0.1154 -0.9121
   14MOL   C124 6390   4.352   4.912   6.544  0.2077  0.0946 -0.6741
   14MOL   C125 6391   4.457   4.874   6.651 -0.2475  0.1939 -0.5988
   14MOL   C126 6392   4.541   4.998   6.695 -0.5935 -0.0406  0.2512
   14MOL   O127 6393   4.650   5.016   6.608  0.0299  0.1056 -0.7061
   14MOL   C128 6394   4.784   5.040   6.641 -0.2274 -0.1497  0.6271
   14MOL   O129 6395   4.832   5.051   6.752  0.2301  0.9874  0.1032
   14MOL   C130 6396   4.879   5.049   6.528  0.1370 -0.1176 -0.0829
   14MOL   C131 6397   5.023   5.079   6.571 -0.5173 -0.3282  0.0537
   14MOL   C132 6398   5.114   5.139   6.462  0.4753  0.1413 -0.2909
   14MOL   O133 6399   5.235   5.149   6.478 -0.1722  0.4106 -0.2304
   14MOL   H134 6400   4.239   4.730   6.519  0.5733  1.0641  1.4243
   14MOL   H135 6401   4.388   4.726   6.435  0.4040  0.4274  0.4450
   14MOL   H136 6402   4.278   4.978   6.590  0.4199  0.2696 -0.5824
   14MOL   H137 6403   4.395   4.985   6.475  2.4291 -0.4995  0.0477
   14MOL   H138 6404   4.519   4.797   6.606 -1.2489 -0.0692 -1.5372
   14MOL   H139 6405   4.415   4.827   6.740 -1.3657  1.1541 -0.6095
   14MOL   H140 6406   4.482   5.087   6.672  0.1686  0.1247 -1.0992
   14MOL   H141 6407   4.574   4.996   6.799 -2.1229  1.2465  0.7729
   14MOL   H142 6408   4.836   5.122   6.459  0.5154  2.4124  2.2976
   14MOL   H143 6409   4.868   4.957   6.471 -2.7827 -1.0973  1.9702
   14MOL   H144 6410   5.020   5.138   6.663 -0.8166  0.2561 -0.3299
   14MOL   H145 6411   5.063   4.985   6.610  0.2604 -0.0908 -0.1485
   14MOL   O146 6412   5.052   5.197   6.363 -0.1326  0.4645 -0.6605
   14MOL   C147 6413   5.109   5.257   6.249  0.1315 -0.2709  0.0821
   14MOL   C148 6414   5.106   5.405   6.261  0.3511 -0.2261  1.0525
   14MOL   C149 6415   5.202   5.484   6.173 -0.5710  0.5363 -0.1269
   14MOL   C150 6416   5.227   5.622   6.237  0.3654  0.8194 -0.1691
   14MOL   O151 6417   5.331   5.623   6.334  0.3761  0.2514 -0.1068
   14MOL   C152 6418   5.462   5.647   6.297  0.7116 -0.4440  0.1472
   14MOL   O153 6419   5.505   5.653   6.182  0.4948 -0.2199 -0.4574
   14MOL   C154 6420   5.561   5.658   6.411  0.7393 -0.4426  0.4831
   14MOL   C155 6421   5.595   5.807   6.448 -0.0997  0.5426  0.0459
   14MOL   C156 6422   5.705   5.861   6.351  0.5253 -0.2976 -0.4432
   14MOL   O157 6423   5.689   5.961   6.277 -0.0921  0.5244 -0.0592
   14MOL   H158 6424   5.208   5.213   6.235  0.5183  0.9862 -1.3726
   14MOL   H159 6425   5.058   5.233   6.156  0.7310  1.6677 -0.7746
   14MOL   H160 6426   5.147   5.429   6.360  3.1215  1.2246 -0.3823
   14MOL   H161 6427   5.007   5.447   6.247  0.7403 -0.3519 -2.6049
   14MOL   H162 6428   5.183   5.482   6.066 -0.9782 -0.2526 -0.0462
   14MOL   H163 6429   5.297   5.431   6.171 -1.4669 -1.0998 -2.2037
   14MOL   H164 6430   5.254   5.701   6.167  1.9675  2.4985  2.2713
   14MOL   H165 6431   5.135   5.657   6.284 -0.6391 -1.5254 -0.3371
   14MOL   H166 6432   5.644   5.591   6.391 -1.3511 -2.7233 -0.9975
   14MOL   H167 6433   5.508   5.617   6.497  1.7788 -1.0308  0.8476
   14MOL   H168 6434   5.518   5.884   6.442 -1.0642 -0.4539 -0.4908
   14MOL   H169 6435   5.645   5.804   6.545 -1.8811 -2.7745  0.9299
   14MOL   O170 6436   5.818   5.793   6.374  0.7809 -0.2416  0.1109
   14MOL   C171 6437   5.936   5.812   6.299 -0.2363 -0.2270 -0.3267
   14MOL   C172 6438   6.021   5.677   6.310  0.3267  0.3824 -1.0480
   14MOL   C173 6439   6.142   5.685   6.206 -0.4588 -0.4070 -0.1408
   14MOL   C174 6440   6.215   5.554   6.185  0.2455  0.4119  0.4914
   14MOL   O175 6441   6.272   5.512   6.307 -0.3445 -0.2403 -0.5584
   14MOL   C176 6442   6.398   5.556   6.348 -0.0854 -0.6819  0.6610
   14MOL   O177 6443   6.474   5.640   6.289 -0.3280  0.4813 -0.6269
   14MOL   C178 6444   6.448   5.502   6.480  0.2564 -0.4626  0.0478
   14MOL   C179 6445   6.456   5.350   6.475  0.4126 -0.5253  0.0063
   14MOL   C180 6446   6.585   5.284   6.453 -0.0063  0.1385 -0.5790
   14MOL   O181 6447   6.606   5.181   6.516  0.0623  0.2248 -0.6028
   14MOL   H182 6448   5.919   5.850   6.198 -0.0409 -3.1796 -1.5015
   14MOL   H183 6449   5.993   5.894   6.344 -2.4972 -0.0988  2.4284
   14MOL   H184 6450   5.961   5.594   6.273 -1.0023  0.4350  0.9416
   14MOL   H185 6451   6.060   5.667   6.411 -0.6304 -1.2769 -0.8321
   14MOL   H186 6452   6.210   5.763   6.242  0.4702 -0.5775 -1.5099
   14MOL   H187 6453   6.084   5.712   6.118  3.0724 -0.5059 -2.5865
   14MOL   H188 6454   6.143   5.483   6.144 -1.3885  1.4255  1.5670
   14MOL   H189 6455   6.296   5.557   6.112 -0.6417 -0.3995 -0.5504
   14MOL   H190 6456   6.383   5.524   6.565  1.0151 -1.2806  0.8595
   14MOL   H191 6457   6.541   5.556   6.497 -0.0246 -0.1995  0.7593
   14MOL   H192 6458   6.411   5.304   6.562 -1.4307 -0.5429 -0.9311
   14MOL   H193 6459   6.400   5.301   6.395  1.3449 -3.2870  1.0110
   14MOL   O194 6460   6.669   5.353   6.371  0.1463 -0.4940  0.6871
   14MOL   C195 6461   6.803   5.313   6.368  0.5552  0.1039  0.0953
   14MOL   C196 6462   6.892   5.421   6.311 -0.2762 -0.7250 -0.3599
   14MOL   C197 6463   6.838   5.464   6.165 -0.0168 -0.7405 -0.7620
   14MOL   C198 6464   6.914   5.594   6.117  0.6921 -0.1206  0.4783
   14MOL   O199 6465   6.885   5.703   6.205  0.1576  0.0462  0.1456
   14MOL   C200 6466   6.913   5.820   6.152 -0.0854 -0.6034 -0.1257
   14MOL   O201 6467   6.970   5.843   6.045  0.1024 -0.1162 -0.3466
   14MOL   C202 6468   6.870   5.935   6.239 -0.4097 -0.3480 -0.4007
   14MOL   C203 6469   6.829   6.066   6.166 -0.3887 -0.0432 -0.0133
   14MOL   C204 6470   6.682   6.050   6.133 -0.6758 -0.2015  0.5113
   14MOL   O205 6471   6.651   6.070   6.018  0.2385  0.0606  0.8064
   14MOL   H206 6472   6.838   5.275   6.464  0.8654 -0.8670 -0.3877
   14MOL   H207 6473   6.817   5.226   6.304  0.2946 -0.8075  1.2518
   14MOL   H208 6474   6.997   5.393   6.304 -0.5690 -1.5831 -1.6658
   14MOL   H209 6475   6.875   5.500   6.383 -0.2651 -0.4712 -0.6341
   14MOL   H210 6476   6.732   5.489   6.167  0.6404  2.1255  0.1925
   14MOL   H211 6477   6.843   5.383   6.092  0.2641 -0.7382 -0.7432
   14MOL   H212 6478   7.015   5.564   6.144  1.9839  1.7506 -2.0488
   14MOL   H213 6479   6.900   5.612   6.010 -2.1824 -1.3609  0.5813
   14MOL   H214 6480   6.950   5.959   6.308  0.0261  0.5938 -1.2174
   14MOL   H215 6481   6.798   5.898   6.313  0.5721  1.0427  1.2732
   14MOL   H216 6482   6.833   6.146   6.239 -0.0721 -0.3495  0.3099
   14MOL   H217 6483   6.897   6.073   6.081 -1.2982 -1.0930 -0.8515
   14MOL   O218 6484   6.603   6.013   6.240  0.4014  0.1900  0.2941
   14MOL   C219 6485   6.466   5.991   6.207  0.6985 -0.6619 -0.5463
   14MOL   C220 6486   6.391   6.123   6.222  0.2198  0.3490  0.4842
   14MOL   C221 6487   6.236   6.115   6.218  0.4549  0.6205  0.4859
   14MOL   C222 6488   6.146   6.239   6.230 -0.1189 -0.1346  0.4157
   14MOL   O223 6489   6.026   6.206   6.177 -0.0144 -0.8761  0.1905
   14MOL   C224 6490   5.934   6.303   6.157 -0.3355  0.4164 -0.2960
   14MOL   O225 6491   5.957   6.418   6.160 -0.5954  0.2206  0.1259
   14MOL   C226 6492   5.800   6.236   6.119 -0.8146 -0.1320 -0.0580
   14MOL   C227 6493   5.700   6.333   6.048 -0.0782  1.3724  0.6633
   14MOL   C228 6494   5.641   6.275   5.917  0.1898 -0.0656  0.3465
   14MOL   O229 6495   5.702   6.222   5.822  0.3858 -0.4963 -0.1927
   14MOL   H230 6496   6.451   5.935   6.115 -1.0248 -1.3428  0.1410
   14MOL   H231 6497   6.430   5.929   6.289  1.3980 -0.4411 -0.0674
   14MOL   H232 6498   6.406   6.184   6.133 -0.0750  1.1984  1.0109
   14MOL   H233 6499   6.430   6.174   6.311 -0.7116 -1.4581  1.9716
   14MOL   H234 6500   6.204   6.048   6.298  2.1660 -1.1675 -0.2818
   14MOL   H235 6501   6.214   6.065   6.124  0.5055  0.9007  0.3252
   14MOL   H236 6502   6.136   6.279   6.331  1.4442  0.3528  0.3934
   14MOL   H237 6503   6.191   6.321   6.173  1.8310  1.4295  4.0373
   14MOL   H238 6504   5.759   6.190   6.209  1.3269  0.7169  1.3999
   14MOL   H239 6505   5.818   6.153   6.050  1.0612  0.8924 -0.8477
   14MOL   H240 6506   5.622   6.345   6.123 -2.0416 -0.9933 -0.9257
   14MOL   H241 6507   5.748   6.426   6.018  2.1105 -0.3644 -1.4069
   14MOL   O242 6508   5.508   6.278   5.929 -0.2716 -0.0318  0.0877
   14MOL   C243 6509   5.426   6.229   5.819  0.1939 -0.4139 -0.1733
   14MOL   C244 6510   5.413   6.078   5.828  0.1519  0.6129 -0.7626
   14MOL   C245 6511   5.339   6.021   5.948  0.3881  0.0926 -0.1725
   14MOL   C246 6512   5.418   6.030   6.081 -0.1750  0.0857 -0.4505
   14MOL   O247 6513   5.341   5.975   6.185 -0.5436 -0.2465 -0.3773
   14MOL   C248 6514   5.276   6.066   6.263 -0.0610 -0.2686 -0.0868
   14MOL   O249 6515   5.282   6.190   6.243  0.4397 -0.0487 -0.1028
   14MOL   C250 6516   5.199   6.007   6.381 -0.3031  0.7781  0.1427
   14MOL   C251 6517   5.062   5.961   6.343  0.7503 -0.7696 -0.2179
   14MOL   C252 6518   4.961   6.047   6.419  0.0482  0.4772 -0.0484
   14MOL   O253 6519   4.924   6.144   6.357  0.6910 -0.5800  0.2585
   14MOL   H254 6520   5.323   6.261   5.837 -0.4782 -2.8702  0.7169
   14MOL   H255 6521   5.472   6.264   5.727 -0.2045 -0.3532 -0.3536
   14MOL   H256 6522   5.515   6.040   5.831 -0.2673 -0.5683 -1.4020
   14MOL   H257 6523   5.358   6.035   5.745  1.5084 -0.3716 -1.1614
   14MOL   H258 6524   5.309   5.918   5.926  1.3483 -0.0652 -0.7493
   14MOL   H259 6525   5.243   6.071   5.963  0.1247 -0.3066 -0.5296
   14MOL   H260 6526   5.500   5.960   6.071  1.0874  1.7717 -2.3654
   14MOL   H261 6527   5.471   6.125   6.091 -0.4082  0.0049  1.6873
   14MOL   H262 6528   5.200   6.075   6.466  2.9865 -1.3334  1.8922
   14MOL   H263 6529   5.262   5.924   6.411  0.0587  0.4758 -1.3882
   14MOL   H264 6530   5.051   5.982   6.236  2.0578 -0.1881 -0.2413
   14MOL   H265 6531   5.063   5.853   6.348 -1.6358 -0.9608 -2.6679
   14MOL   O266 6532   4.944   6.019   6.550 -0.8532  0.4817  0.7027
   14MOL   C267 6533   4.861   6.108   6.628  0.2113  0.1979  0.4577
   14MOL   C268 6534   4.842   6.043   6.764  0.2819 -0.5226 -0.3710
   14MOL   C269 6535   4.805   5.898   6.762 -0.8314 -0.0528 -0.0235
   14MOL   C270 6536   4.755   5.841   6.889  0.4186 -0.6146  0.6101
   14MOL   O271 6537   4.864   5.816   6.973 -0.2286  0.3832  0.1189
   14MOL   C272 6538   4.846   5.790   7.099  0.0705  0.1585 -0.0883
   14MOL   O273 6539   4.739   5.773   7.157 -0.4904  0.5613 -0.4339
   14MOL   C274 6540   4.968   5.771   7.177 -0.4370  0.0455 -0.0771
   14MOL   C275 6541   5.062   5.650   7.156 -0.2480 -0.1031 -0.1160
   14MOL   C276 6542   5.015   5.519   7.220 -0.1702 -0.0286  0.4583
   14MOL   O277 6543   4.913   5.502   7.290 -0.2424 -0.0900 -0.2374
   14MOL   H278 6544   4.894   6.211   6.617  1.7558 -0.4682 -1.4386
   14MOL   H279 6545   4.764   6.112   6.579  0.6925 -0.6975 -0.5766
   14MOL   H280 6546   4.772   6.105   6.822  0.5913 -0.8711  0.3822
   14MOL   H281 6547   4.935   6.055   6.819  0.4413 -0.1301 -0.7198
   14MOL   H282 6548   4.883   5.833   6.722  0.0613  0.8709  0.1976
   14MOL   H283 6549   4.721   5.890   6.692  1.8368 -3.5678 -3.0955
   14MOL   H284 6550   4.670   5.890   6.937  0.6862 -0.1658  0.6219
   14MOL   H285 6551   4.729   5.738   6.866  3.0374 -2.0572  3.7117
   14MOL   H286 6552   4.938   5.767   7.281  0.9855 -0.5787  0.3230
   14MOL   H287 6553   5.028   5.862   7.164  2.6041 -2.1811 -2.3142
   14MOL   H288 6554   5.058   5.631   7.049 -1.2398 -0.4030 -0.0356
   14MOL   H289 6555   5.168   5.667   7.172  0.0196 -0.5330 -1.3810
   14MOL   O290 6556   5.103   5.431   7.185  0.6269  0.0816  0.1786
   14MOL   C291 6557   5.116   5.297   7.241  0.5885 -0.5217 -0.4582
   14MOL   C292 6558   5.245   5.293   7.318 -0.6225 -0.0343 -0.0054
   14MOL   C293 6559   5.286   5.151   7.343  0.1979  0.6766  0.5383
   14MOL   C294 6560   5.438   5.122   7.355  1.1257  0.0563  0.1497
   14MOL   O295 6561   5.507   5.135   7.236 -0.5018  0.3814  0.7438
   14MOL   C296 6562   5.641   5.108   7.231  0.4073 -0.1708 -0.2896
   14MOL   O297 6563   5.705   5.053   7.317  0.0482 -0.4531  0.1451
   14MOL   C298 6564   5.701   5.155   7.094 -0.1479  0.1154  1.2172
   14MOL   C299 6565   5.635   5.084   6.971  0.0150  1.0710  0.3949
   14MOL   C300 6566   5.697   5.119   6.837 -0.2959 -0.1442 -0.0704
   14MOL   O301 6567   5.792   5.194   6.824  0.6865  0.4677 -0.1225
   14MOL   H302 6568   5.038   5.260   7.308  0.8876 -3.2083 -1.5216
   14MOL   H303 6569   5.112   5.232   7.154  1.0389 -0.0067 -0.8678
   14MOL   H304 6570   5.233   5.355   7.406  1.5492 -1.8199  1.5945
   14MOL   H305 6571   5.320   5.339   7.253 -1.6741  1.9738  0.1629
   14MOL   H306 6572   5.251   5.077   7.271  4.4039 -1.2778  0.3593
   14MOL   H307 6573   5.246   5.128   7.442  0.2344  0.7139  0.5620
   14MOL   H308 6574   5.479   5.204   7.414 -4.9401  2.9871  0.6830
   14MOL   H309 6575   5.460   5.022   7.393  0.7181 -0.1760 -0.2183
   14MOL   H310 6576   5.810   5.146   7.090 -0.2791 -0.9022 -0.8545
   14MOL   H311 6577   5.692   5.263   7.086  1.4498  0.1207 -1.2111
   14MOL   H312 6578   5.645   4.977   6.986  1.4238  0.8442 -1.8805
   14MOL   H313 6579   5.528   5.100   6.960  0.1487  0.3202 -2.5305
   14MOL   O314 6580   5.629   5.058   6.733  0.0121 -0.7144 -0.2985
   14MOL   C315 6581   5.675   5.075   6.603 -0.2242 -0.1108  0.0915
   14MOL   C316 6582   5.574   5.153   6.521  0.1311 -0.6783 -0.4871
   14MOL   C317 6583   5.615   5.176   6.379 -0.0690  0.4906 -0.5265
   14MOL   C318 6584   5.515   5.263   6.306  0.1336  0.6192  0.0701
   14MOL   O319 6585   5.575   5.325   6.193 -0.2106 -0.2169  0.4538
   14MOL   C320 6586   5.569   5.263   6.074  0.3864  0.0948  0.2495
   14MOL   O321 6587   5.544   5.145   6.055  0.7395  0.4979 -0.1224
   14MOL   C322 6588   5.594   5.358   5.960 -0.6024  0.0198  0.0903
   14MOL   C323 6589   5.739   5.391   5.934 -0.3793 -0.3096  0.1053
   14MOL   C324 6590   5.788   5.526   5.980 -0.6973 -0.6558  0.3073
   14MOL   O325 6591   5.865   5.544   6.072 -0.3027 -0.2090  0.1560
   14MOL   H326 6592   5.776   5.115   6.614 -0.0048 -0.2031 -1.4709
   14MOL   H327 6593   5.690   4.974   6.564  0.9705 -0.3825  1.2138
   14MOL   H328 6594   5.548   5.250   6.562  2.8197 -0.6690  1.3519
   14MOL   H329 6595   5.481   5.097   6.529  0.8458 -2.0601 -1.5294
   14MOL   H330 6596   5.629   5.083   6.325  1.0658  0.4870 -0.2468
   14MOL   H331 6597   5.713   5.223   6.395 -0.9948  1.9743  0.9972
   14MOL   H332 6598   5.415   5.224   6.284 -0.2208  2.3125 -1.5343
   14MOL   H333 6599   5.497   5.348   6.372  0.5515  1.2373 -0.5981
   14MOL   H334 6600   5.536   5.449   5.978 -0.0319  0.5183 -0.5684
   14MOL   H335 6601   5.547   5.312   5.874 -1.3185  1.2768 -0.2135
   14MOL   H336 6602   5.803   5.312   5.973 -1.2397 -0.4999  1.1559
   14MOL   H337 6603   5.733   5.380   5.825  1.6160 -3.2257  0.2348
   14MOL   O338 6604   5.721   5.623   5.910 -0.1295 -0.5490 -0.3895
   14MOL   C339 6605   5.715   5.759   5.958 -0.1054  0.0597 -0.3374
   14MOL   C340 6606   5.756   5.862   5.851 -0.2421 -0.6155 -0.2706
   14MOL   C341 6607   5.912   5.864   5.839  0.0658 -0.2198  0.4033
   14MOL   C342 6608   5.966   5.952   5.722 -0.9004  0.1526 -0.0644
   14MOL   O343 6609   6.105   5.944   5.717  0.7575 -0.8584  0.6532
   14MOL   C344 6610   6.161   5.941   5.601  1.0064 -0.3827  0.2695
   14MOL   O345 6611   6.102   5.969   5.497  0.0364 -0.3900  0.0608
   14MOL   C346 6612   6.306   5.900   5.604  0.6609 -0.4026 -0.7163
   14MOL   C347 6613   6.307   5.748   5.593  0.2389 -0.3230 -0.6106
   14MOL   C348 6614   6.331   5.683   5.727  0.2578 -0.9446  0.2083
   14MOL   O349 6615   6.281   5.578   5.757 -0.3363 -0.2391  0.3291
   14MOL   H350 6616   5.611   5.776   5.984 -0.2685  1.2271 -1.6667
   14MOL   H351 6617   5.776   5.765   6.048  0.8588 -0.0797 -0.9743
   14MOL   H352 6618   5.714   5.961   5.872  0.3984 -0.2902 -0.5208
   14MOL   H353 6619   5.714   5.832   5.755 -0.0975 -1.3655 -0.1018
   14MOL   H354 6620   5.940   5.760   5.822 -0.5892 -0.3007 -0.1670
   14MOL   H355 6621   5.967   5.887   5.930  2.6744 -2.5736 -0.4684
   14MOL   H356 6622   5.920   5.919   5.628 -0.3902  2.3169 -1.0995
   14MOL   H357 6623   5.947   6.058   5.738  0.7027  0.3030  0.9168
   14MOL   H358 6624   6.359   5.950   5.684  0.3012 -1.7299  0.3758
   14MOL   H359 6625   6.345   5.941   5.511 -0.3614 -1.2215 -1.5250
   14MOL   H360 6626   6.210   5.711   5.557  0.4152 -0.8644 -0.5401
   14MOL   H361 6627   6.374   5.712   5.515 -0.0291  1.8153 -1.8569
   14MOL   O362 6628   6.428   5.750   5.806  0.1890 -0.8749 -0.0967
   14MOL   C363 6629   6.469   5.698   5.936 -0.1996  0.1132  0.4252
   14MOL   C364 6630   6.621   5.700   5.938 -0.0453 -0.5409  0.9294
   14MOL   C365 6631   6.669   5.601   5.827  0.0755  0.4439 -1.1332
   14MOL   C366 6632   6.632   5.455   5.865  0.2407  0.9339  1.0369
   14MOL   O367 6633   6.690   5.355   5.783  0.0745  0.6546  0.0283
   14MOL   C368 6634   6.701   5.231   5.829  0.1553  0.1766  0.7878
   14MOL   O369 6635   6.680   5.201   5.940 -0.0996  0.8075 -0.5250
   14MOL   C370 6636   6.760   5.133   5.720 -0.4813 -0.1943  0.4341
   14MOL   C371 6637   6.726   4.986   5.748 -0.5728  0.3510  0.2832
   14MOL   C372 6638   6.591   4.955   5.689  0.4127  0.1920  0.3043
   14MOL   O373 6639   6.551   4.999   5.578  0.4219 -0.1676 -1.0880
   14MOL   H374 6640   6.434   5.773   6.008 -1.4709  1.6281 -1.6842
   14MOL   H375 6641   6.423   5.601   5.955  0.6832 -1.1254 -3.4419
   14MOL   H376 6642   6.654   5.668   6.038 -2.0620  0.5760  1.9832
   14MOL   H377 6643   6.647   5.804   5.920 -4.5573  0.5568  0.1169
   14MOL   H378 6644   6.778   5.602   5.829  0.1478 -0.9130  3.4049
   14MOL   H379 6645   6.628   5.633   5.732 -1.9770 -0.4120 -0.5856
   14MOL   H380 6646   6.661   5.438   5.968  1.5596 -0.8419  0.3968
   14MOL   H381 6647   6.525   5.435   5.868  0.4802 -1.0480 -1.7798
   14MOL   H382 6648   6.868   5.149   5.717 -0.7150  1.1640 -2.3482
   14MOL   H383 6649   6.715   5.167   5.627  0.4838  0.4457  0.1920
   14MOL   H384 6650   6.807   4.929   5.702 -1.3971  0.7454 -1.7042
   14MOL   H385 6651   6.734   4.963   5.855  1.4831  0.1407  0.1145
   14MOL   O386 6652   6.520   4.885   5.782 -0.1462 -0.4795 -0.1144
   14MOL   C387 6653   6.395   4.849   5.741  0.4500 -0.0643 -0.1324
   14MOL   C388 6654   6.411   4.707   5.698 -0.1346  0.3465  0.6374
   14MOL   C389 6655   6.277   4.647   5.661  0.0063  0.0222  0.6491
   14MOL   C390 6656   6.294   4.498   5.623  0.6343 -0.0111 -0.2397
   14MOL   O391 6657   6.178   4.430   5.585  0.3095 -0.0593 -0.2911
   14MOL   C392 6658   6.113   4.469   5.473 -0.3564 -0.4652 -0.3869
   14MOL   O393 6659   6.141   4.563   5.392 -0.3667  0.0762 -0.4338
   14MOL   C394 6660   5.986   4.387   5.440 -0.1034  0.2366 -0.5941
   14MOL   C395 6661   5.876   4.468   5.365  0.1025  0.3274 -0.2095
   14MOL   C396 6662   5.749   4.465   5.441 -0.2247 -0.3304  0.3556
   14MOL   O397 6663   5.703   4.564   5.496 -0.2970 -0.0674 -0.5025
   14MOL   H398 6664   6.337   4.849   5.833  2.8574 -1.8336  1.4281
   14MOL   H399 6665   6.345   4.911   5.667 -0.8591  0.2037  0.9561
   14MOL   H400 6666   6.458   4.643   5.772  0.4017 -1.7188 -1.4481
   14MOL   H401 6667   6.471   4.707   5.607  0.9350  0.0503  1.3257
   14MOL   H402 6668   6.224   4.717   5.596 -1.7020  0.2155  2.2153
   14MOL   H403 6669   6.207   4.645   5.745 -1.9196 -1.6739 -0.9564
   14MOL   H404 6670   6.368   4.486   5.544  0.3649 -2.6482 -0.1116
   14MOL   H405 6671   6.330   4.440   5.708 -0.4611 -1.8282 -0.9984
   14MOL   H406 6672   5.945   4.334   5.527 -2.0026  0.8218 -1.1054
   14MOL   H407 6673   6.020   4.316   5.364  0.4308 -0.5687  0.3791
   14MOL   H408 6674   5.906   4.571   5.345 -0.6647  0.6409  0.2138
   14MOL   H409 6675   5.848   4.424   5.269  0.6412  0.5126 -0.4511
   14MOL   O410 6676   5.698   4.340   5.437 -0.1230  0.4671  0.3169
   14MOL   C411 6677   5.570   4.316   5.496  0.7900 -0.5855 -0.4953
   14MOL   C412 6678   5.496   4.194   5.432  0.1505 -0.3625 -0.0180
   14MOL   C413 6679   5.489   4.189   5.278  0.7177 -0.0107 -0.4593
   14MOL   C414 6680   5.408   4.068   5.227 -0.3659 -0.5212 -0.5845
   14MOL   O415 6681   5.278   4.065   5.275  0.4046  0.3047  0.2526
   14MOL   C416 6682   5.221   3.944   5.295 -0.5582  0.1863 -0.1526
   14MOL   O417 6683   5.268   3.836   5.275 -0.5012 -0.2915  0.0436
   14MOL   C418 6684   5.079   3.960   5.352  0.0679 -0.4244  0.2503
   14MOL   C419 6685   5.087   3.981   5.499 -0.7837  0.4077 -0.9258
   14MOL   C420 6686   4.991   4.087   5.539 -0.0162 -0.2842  0.7921
   14MOL   O421 6687   4.887   4.052   5.585  0.2480  0.3379  0.2618
   14MOL   H422 6688   5.589   4.303   5.602 -1.1336 -1.1733 -0.2124
   14MOL   H423 6689   5.502   4.401   5.488  1.0807 -0.5069 -2.4705
   14MOL   H424 6690   5.399   4.188   5.481 -0.1807 -1.7110 -0.8158
   14MOL   H425 6691   5.550   4.101   5.452  2.0668  1.1889  2.2608
   14MOL   H426 6692   5.594   4.195   5.249  0.5102  1.0519 -1.0149
   14MOL   H427 6693   5.446   4.285   5.250  1.5830  0.6899  0.6014
   14MOL   H428 6694   5.401   4.068   5.119 -0.7409 -0.6841 -0.5612
   14MOL   H429 6695   5.455   3.972   5.248 -2.0126 -1.7290 -2.2731
   14MOL   H430 6696   5.010   3.879   5.329 -1.7579  1.0513  0.5009
   14MOL   H431 6697   5.046   4.049   5.300  0.4878  0.3485  1.2937
   14MOL   H432 6698   5.064   3.892   5.557  0.6316  1.9125  2.0465
   14MOL   H433 6699   5.183   4.008   5.542 -1.4136 -1.1937  1.6043
   14MOL   O434 6700   5.040   4.211   5.524  0.4319  0.6303  0.1085
   14MOL   C435 6701   4.968   4.320   5.585  0.4613  0.1484 -0.1765
   14MOL   C436 6702   5.042   4.453   5.595  0.4726  0.1634 -0.3306
   14MOL   C437 6703   4.951   4.568   5.629  0.0770  0.5785  0.1442
   14MOL   C438 6704   5.022   4.703   5.633 -0.5344 -0.5703 -0.1009
   14MOL   O439 6705   5.094   4.727   5.759 -0.3076 -0.5898  0.0395
   14MOL   C440 6706   5.032   4.767   5.872 -0.3920 -0.1614 -0.2524
   14MOL   O441 6707   4.911   4.768   5.896 -0.1227 -0.3521  0.0730
   14MOL   C442 6708   5.141   4.822   5.968  0.3034  0.4381  0.1908
   14MOL   C443 6709   5.076   4.890   6.088  0.2795  0.1188 -0.2084
   14MOL   C444 6710   5.137   4.869   6.221 -0.5313 -0.5047  0.0091
   14MOL   O445 6711   5.078   4.817   6.317  0.1662  0.0724 -0.2764
   14MOL   H446 6712   4.875   4.337   5.531  1.3674 -1.6324 -2.3980
   14MOL   H447 6713   4.946   4.289   5.687  2.2931  1.0040  0.5045
   14MOL   H448 6714   5.095   4.482   5.505  0.8271  0.0450 -0.1614
   14MOL   H449 6715   5.116   4.442   5.675  1.6009  1.9264 -1.1043
   14MOL   H450 6716   4.893   4.541   5.717 -1.5894 -2.5776 -1.8016
   14MOL   H451 6717   4.875   4.566   5.551 -0.6624 -1.7942  0.8582
   14MOL   H452 6718   5.108   4.698   5.567  0.8386 -1.0695  1.6902
   14MOL   H453 6719   4.953   4.781   5.599 -0.4022 -0.4815 -0.1646
   14MOL   H454 6720   5.206   4.898   5.926  0.9855 -0.4486 -0.3759
   14MOL   H455 6721   5.210   4.745   6.002 -0.8065  0.2979  2.1915
   14MOL   H456 6722   5.081   4.999   6.082 -0.3552  0.1797  0.3925
   14MOL   H457 6723   4.971   4.867   6.106  0.7421 -0.6735  1.6041
   14MOL   O458 6724   5.274   4.901   6.214 -0.2697  0.1054 -0.7278
   14MOL   C459 6725   5.358   4.871   6.324 -0.2973 -0.1473  0.1046
   14MOL   C460 6726   5.445   4.743   6.300  0.0792 -0.4350  0.0676
   14MOL   C461 6727   5.513   4.709   6.426  0.0141  0.6714 -0.0975
   14MOL   C462 6728   5.640   4.621   6.411 -0.0817  0.4439  0.8976
   14MOL   O463 6729   5.585   4.491   6.390 -0.1850 -0.2253  0.1310
   14MOL   C464 6730   5.652   4.382   6.434  0.0587 -0.7725  0.3472
   14MOL   O465 6731   5.756   4.377   6.509 -0.2026 -0.0997  0.9108
   14MOL   C466 6732   5.591   4.256   6.378  1.0753 -0.2160  0.5759
   14MOL   C467 6733   5.680   4.137   6.424 -0.2086  0.3159 -0.0239
   14MOL   C468 6734   5.681   4.017   6.330  1.3525 -1.2867  0.0415
   14MOL   O469 6735   5.603   4.004   6.236  0.0495  0.2325  0.2954
   14MOL   H470 6736   5.421   4.960   6.335 -0.6493 -0.2181  3.0490
   14MOL   H471 6737   5.303   4.859   6.417  2.3335  0.3103  1.7961
   14MOL   H472 6738   5.516   4.750   6.218  1.9554  0.1430  1.7032
   14MOL   H473 6739   5.378   4.663   6.270 -0.1157  0.4868 -2.0625
   14MOL   H474 6740   5.441   4.659   6.490  0.6632  1.1361  1.0125
   14MOL   H475 6741   5.542   4.804   6.472  1.5952  0.1623 -0.0177
   14MOL   H476 6742   5.690   4.662   6.323 -0.4865  0.5704  0.7215
   14MOL   H477 6743   5.715   4.640   6.487 -1.3003  2.5773  1.6234
   14MOL   H478 6744   5.589   4.264   6.269 -2.7722  0.5071  0.6346
   14MOL   H479 6745   5.492   4.234   6.418  0.4108  3.0414  0.8128
   14MOL   H480 6746   5.786   4.157   6.437 -0.3418  0.9573  0.0799
   14MOL   H481 6747   5.647   4.112   6.524  0.0455  0.8810  0.2051
   14MOL   H482 6748   5.769   3.953   6.339  1.2294 -1.2017  2.1443
   15MOL     O1 6749   6.450   2.534   4.568 -0.1007 -0.0083  0.1817
   15MOL     C2 6750   6.496   2.489   4.448 -0.7990 -0.8462 -0.0039
   15MOL     C3 6751   6.629   2.420   4.492 -0.6219 -0.1496  0.0706
   15MOL     C4 6752   6.613   2.291   4.586 -0.0291 -0.5174 -0.3030
   15MOL     C5 6753   6.744   2.205   4.580  0.0676 -0.2361 -0.2736
   15MOL     O6 6754   6.730   2.084   4.658 -0.2981 -0.1560 -0.4349
   15MOL     C7 6755   6.704   1.967   4.593  0.0802 -0.6906  0.3659
   15MOL     O8 6756   6.709   1.954   4.474 -0.4799 -0.4250  0.2684
   15MOL     C9 6757   6.651   1.860   4.691 -0.2389  0.5703 -0.4881
   15MOL    C10 6758   6.772   1.773   4.743 -0.2395 -0.4056 -0.1936
   15MOL    C11 6759   6.798   1.657   4.650 -0.5365  0.1527  0.0532
   15MOL    O12 6760   6.911   1.624   4.621 -0.2211  0.1630 -0.0071
   15MOL    H13 6761   6.427   2.415   4.408 -0.4286 -2.1051  1.5990
   15MOL    H14 6762   6.505   2.566   4.371  0.6604 -0.5034  0.4905
   15MOL    H15 6763   6.698   2.491   4.539 -2.3526  0.1056  2.2848
   15MOL    H16 6764   6.682   2.382   4.405  0.1860 -0.6456  0.7613
   15MOL    H17 6765   6.533   2.220   4.564  0.8823 -1.6037 -0.1487
   15MOL    H18 6766   6.597   2.334   4.685 -0.9823  3.3456 -1.9912
   15MOL    H19 6767   6.768   2.190   4.475  2.2350 -0.9153  0.3066
   15MOL    H20 6768   6.825   2.260   4.628 -2.0960  1.6645  1.3197
   15MOL    H21 6769   6.570   1.797   4.654  1.0068 -1.0122 -0.6064
   15MOL    H22 6770   6.610   1.917   4.774 -0.0227  1.0223 -0.6865
   15MOL    H23 6771   6.867   1.826   4.760 -0.5381 -0.0890  0.5262
   15MOL    H24 6772   6.740   1.736   4.841 -0.4224 -1.2873 -0.5839
   15MOL    H25 6773   6.441   2.465   4.632 -1.3385 -1.5648 -1.6380
   15MOL    O26 6774   6.687   1.601   4.608  0.1584 -0.3356 -0.4206
   15MOL    C27 6775   6.684   1.514   4.502  0.5523  0.4012  0.3223
   15MOL    C28 6776   6.605   1.578   4.390  0.2349  0.3083  0.4075
   15MOL    C29 6777   6.460   1.525   4.382  0.1556 -0.4537 -0.0974
   15MOL    C30 6778   6.368   1.582   4.484 -0.8371 -0.2348 -0.1884
   15MOL    O31 6779   6.353   1.723   4.463  0.2544  0.1604  0.0160
   15MOL    C32 6780   6.233   1.780   4.475  0.2144 -0.3740  1.0309
   15MOL    O33 6781   6.134   1.730   4.514 -0.1309  0.1862 -0.7381
   15MOL    C34 6782   6.244   1.932   4.437  0.1328 -0.0027 -0.1306
   15MOL    C35 6783   6.323   2.008   4.543  0.0054 -0.1163  0.4217
   15MOL    C36 6784   6.226   2.088   4.626  0.2629 -0.5834  0.1214
   15MOL    O37 6785   6.183   2.041   4.729 -0.6768 -0.9979  0.2089
   15MOL    H38 6786   6.779   1.482   4.459 -0.4343  0.6358 -2.0979
   15MOL    H39 6787   6.630   1.427   4.539 -0.1436  1.5184  2.0340
   15MOL    H40 6788   6.650   1.544   4.296  1.2016  0.5214  0.7833
   15MOL    H41 6789   6.619   1.686   4.378 -0.0010  0.3201  0.2349
   15MOL    H42 6790   6.454   1.417   4.396  0.0672 -0.2788  1.2323
   15MOL    H43 6791   6.421   1.546   4.282 -1.3101  0.0233  0.5589
   15MOL    H44 6792   6.275   1.526   4.475  0.2554 -2.0542 -0.3920
   15MOL    H45 6793   6.412   1.564   4.582 -1.6571  1.7825  0.5698
   15MOL    H46 6794   6.147   1.976   4.412 -0.3607 -1.9553 -1.8106
   15MOL    H47 6795   6.309   1.928   4.350 -0.6281  1.7638 -0.7951
   15MOL    H48 6796   6.377   1.944   4.612 -0.6508 -0.3464  0.7322
   15MOL    H49 6797   6.389   2.070   4.482 -1.2455 -0.7384 -1.6284
   15MOL    O50 6798   6.200   2.203   4.571 -0.3273 -0.9961  0.0209
   15MOL    C51 6799   6.117   2.297   4.632  1.0430  0.2546 -0.0390
   15MOL    C52 6800   6.076   2.403   4.529  0.4499  0.2920 -0.5427
   15MOL    C53 6801   6.023   2.529   4.606 -0.9077 -0.0731  0.4237
   15MOL    C54 6802   5.969   2.633   4.511  0.3648  0.6658  0.3141
   15MOL    O55 6803   5.910   2.738   4.592 -0.2850  0.2652 -0.1579
   15MOL    C56 6804   5.790   2.738   4.645  0.3059  0.6958  0.3979
   15MOL    O57 6805   5.715   2.640   4.653 -0.4704 -0.5376 -0.1252
   15MOL    C58 6806   5.758   2.872   4.709  0.0751 -0.3759 -0.2444
   15MOL    C59 6807   5.633   2.878   4.802 -0.1797 -0.1241 -0.0694
   15MOL    C60 6808   5.524   2.970   4.756  0.0510 -0.5846 -0.4557
   15MOL    O61 6809   5.432   2.927   4.690  0.6887 -0.2082  0.3381
   15MOL    H62 6810   6.022   2.267   4.677  0.9258 -0.0103 -0.4550
   15MOL    H63 6811   6.173   2.342   4.714  1.9399  0.4598 -0.7526
   15MOL    H64 6812   5.996   2.371   4.462  0.7190  0.9356 -1.1699
   15MOL    H65 6813   6.158   2.446   4.472 -0.3368  1.0981 -1.0816
   15MOL    H66 6814   6.096   2.576   4.672 -3.7331  3.1367  1.3658
   15MOL    H67 6815   5.952   2.488   4.678 -0.8282  0.3592  0.7491
   15MOL    H68 6816   6.054   2.669   4.453  1.0086 -1.2154  0.0750
   15MOL    H69 6817   5.907   2.588   4.435  1.0315  1.9554 -1.0171
   15MOL    H70 6818   5.752   2.942   4.627 -1.5645 -1.5498 -1.1480
   15MOL    H71 6819   5.845   2.914   4.759 -1.5157  1.5532  0.9925
   15MOL    H72 6820   5.590   2.778   4.809 -0.2908 -0.1454 -0.9728
   15MOL    H73 6821   5.658   2.904   4.905  0.7846  1.6519 -0.7290
   15MOL    O74 6822   5.556   3.101   4.778 -0.3299  0.1027  0.0450
   15MOL    C75 6823   5.469   3.205   4.733 -0.2197  1.0572 -0.3451
   15MOL    C76 6824   5.542   3.277   4.621  0.6315 -0.2447 -0.7130
   15MOL    C77 6825   5.547   3.198   4.488 -0.1453 -0.0290  0.1397
   15MOL    C78 6826   5.590   3.290   4.373 -0.3492 -0.5469 -0.0174
   15MOL    O79 6827   5.713   3.358   4.408 -0.6397 -0.0322 -0.0431
   15MOL    C80 6828   5.732   3.486   4.363  0.6258  0.6843 -0.5881
   15MOL    O81 6829   5.661   3.545   4.285 -0.7876 -0.1728  0.7141
   15MOL    C82 6830   5.857   3.553   4.424 -0.0018 -0.0155  0.4563
   15MOL    C83 6831   5.842   3.705   4.420  0.0547 -0.1639 -0.0568
   15MOL    C84 6832   5.751   3.760   4.526  0.6662 -0.5863  0.5953
   15MOL    O85 6833   5.719   3.694   4.621 -0.7702 -0.1777 -0.2030
   15MOL    H86 6834   5.375   3.154   4.711  1.0029 -1.3482 -0.1465
   15MOL    H87 6835   5.452   3.278   4.812 -1.6772  0.2628  0.1038
   15MOL    H88 6836   5.642   3.308   4.651  1.5070 -1.7600 -1.9266
   15MOL    H89 6837   5.488   3.370   4.603 -2.2286 -1.6926 -0.0077
   15MOL    H90 6838   5.450   3.155   4.464  0.0949  0.1674 -1.2177
   15MOL    H91 6839   5.621   3.117   4.495  0.5224  0.6162  0.6448
   15MOL    H92 6840   5.603   3.227   4.285  0.6354 -0.5506  0.1228
   15MOL    H93 6841   5.510   3.364   4.365  0.7851  0.3850 -3.6829
   15MOL    H94 6842   5.947   3.518   4.373 -0.7232  1.3804 -1.8246
   15MOL    H95 6843   5.878   3.520   4.526 -0.5264 -1.6690  0.0462
   15MOL    H96 6844   5.939   3.740   4.453  0.6849 -1.2949 -0.6805
   15MOL    H97 6845   5.831   3.740   4.317  1.2178 -0.3350 -0.2469
   15MOL    O98 6846   5.709   3.888   4.491 -0.6986  0.6391 -0.3846
   15MOL    C99 6847   5.615   3.952   4.585 -0.1834 -0.2310  0.3429
   15MOL   C100 6848   5.540   4.053   4.509 -0.5721 -0.5384  0.2700
   15MOL   C101 6849   5.414   4.098   4.581  0.1162 -0.1643  0.8223
   15MOL   C102 6850   5.447   4.169   4.710  0.7938  0.0089  0.3354
   15MOL   O103 6851   5.534   4.276   4.685  0.8974  0.3833 -0.1910
   15MOL   C104 6852   5.597   4.342   4.775  0.2755 -0.3846  0.2448
   15MOL   O105 6853   5.577   4.333   4.894 -0.1578 -0.3217 -0.3631
   15MOL   C106 6854   5.704   4.431   4.708  0.1363  0.5516  0.3868
   15MOL   C107 6855   5.710   4.575   4.770  0.0188 -0.6305  1.0070
   15MOL   C108 6856   5.690   4.681   4.662 -0.1567 -0.1028  1.4879
   15MOL   O109 6857   5.782   4.718   4.587 -0.0636 -1.1362 -0.6165
   15MOL   H110 6858   5.544   3.879   4.625 -1.6828  1.9376  1.7463
   15MOL   H111 6859   5.668   3.995   4.669 -2.2091  1.9513  0.5551
   15MOL   H112 6860   5.503   4.000   4.421 -0.8235  0.7933 -0.4451
   15MOL   H113 6861   5.609   4.131   4.477 -1.9620  0.0406 -1.3825
   15MOL   H114 6862   5.356   4.007   4.596 -0.6994  0.4203  1.2259
   15MOL   H115 6863   5.357   4.150   4.504  1.0864  1.3818  1.1294
   15MOL   H116 6864   5.355   4.205   4.757  1.5045  2.2208  0.0616
   15MOL   H117 6865   5.491   4.104   4.785  1.5508  1.0592  0.8076
   15MOL   H118 6866   5.684   4.442   4.602  0.6689 -2.1263 -0.0226
   15MOL   H119 6867   5.790   4.364   4.712 -0.4978 -0.5743 -3.0778
   15MOL   H120 6868   5.633   4.595   4.844 -1.5035  0.8783 -0.9305
   15MOL   H121 6869   5.812   4.580   4.811 -0.5899 -1.1182  2.6361
   15MOL   O122 6870   5.566   4.727   4.656  0.0316 -0.2020  0.2964
   15MOL   C123 6871   5.524   4.849   4.590 -0.3850 -0.1311 -0.0467
   15MOL   C124 6872   5.423   4.816   4.481 -0.6225 -0.3288 -0.5769
   15MOL   C125 6873   5.359   4.922   4.397  0.7979 -0.1893  0.5273
   15MOL   C126 6874   5.267   4.863   4.289 -0.6894  0.2146 -0.5076
   15MOL   O127 6875   5.152   4.799   4.348 -0.3394 -0.3449  0.0046
   15MOL   C128 6876   5.024   4.837   4.336 -0.2139  0.1500 -0.4046
   15MOL   O129 6877   4.987   4.946   4.295 -0.1260 -0.0108  0.3992
   15MOL   C130 6878   4.928   4.746   4.408  0.6633  0.1802  0.6043
   15MOL   C131 6879   4.920   4.766   4.554  0.0497  0.0264  0.1380
   15MOL   C132 6880   4.820   4.873   4.586  0.4292  0.4096  0.0042
   15MOL   O133 6881   4.863   4.967   4.655 -0.2988  0.5297  0.0768
   15MOL   H134 6882   5.478   4.908   4.669 -1.6896 -2.1322  0.7098
   15MOL   H135 6883   5.613   4.898   4.549 -1.7321  1.2322 -1.4074
   15MOL   H136 6884   5.345   4.766   4.539 -0.2469  1.7134  1.7803
   15MOL   H137 6885   5.456   4.737   4.413 -1.8055 -0.0347 -1.5046
   15MOL   H138 6886   5.435   4.977   4.342 -1.1184  3.1016  1.0169
   15MOL   H139 6887   5.309   5.000   4.454 -3.2619 -1.7293 -0.7209
   15MOL   H140 6888   5.247   4.932   4.207  1.3481  1.1896 -0.2255
   15MOL   H141 6889   5.338   4.794   4.243 -0.4464  1.7617 -2.4944
   15MOL   H142 6890   4.958   4.644   4.383  1.9141  0.5452  0.5415
   15MOL   H143 6891   4.838   4.773   4.354  1.5201  4.1917  1.0267
   15MOL   H144 6892   4.881   4.672   4.592  0.2864 -0.5403 -1.0094
   15MOL   H145 6893   5.018   4.781   4.600  0.4665  0.0882 -0.7518
   15MOL   O146 6894   4.700   4.861   4.532 -0.6003  0.1352  0.5306
   15MOL   C147 6895   4.608   4.967   4.544 -0.4406  0.0121  0.2157
   15MOL   C148 6896   4.554   4.980   4.682  0.5783 -0.1140  0.2718
   15MOL   C149 6897   4.442   5.089   4.699  0.3547 -0.4230 -0.4785
   15MOL   C150 6898   4.396   5.124   4.840 -0.2242  0.5426  0.5774
   15MOL   O151 6899   4.317   5.021   4.896 -0.4038  0.7847 -0.1274
   15MOL   C152 6900   4.247   5.036   5.002 -0.9529 -0.0249 -0.2090
   15MOL   O153 6901   4.234   5.144   5.063 -0.0570  0.4456 -0.0310
   15MOL   C154 6902   4.178   4.907   5.048  0.3249  0.7391  0.0155
   15MOL   C155 6903   4.246   4.780   4.997 -0.4502  0.8068 -0.3651
   15MOL   C156 6904   4.190   4.735   4.865  1.0526 -0.4180  0.2907
   15MOL   O157 6905   4.081   4.766   4.822  0.1514 -0.2960  0.1431
   15MOL   H158 6906   4.638   5.066   4.509 -1.2730  1.3529  3.1154
   15MOL   H159 6907   4.518   4.931   4.494 -0.9724  2.2498 -0.5043
   15MOL   H160 6908   4.631   5.007   4.753  1.0931 -1.0550  0.0691
   15MOL   H161 6909   4.522   4.883   4.720  0.7838 -0.5910 -0.7376
   15MOL   H162 6910   4.350   5.056   4.649  1.3203 -2.1841 -1.1061
   15MOL   H163 6911   4.463   5.182   4.645 -3.1843 -0.2118 -1.6463
   15MOL   H164 6912   4.481   5.145   4.905  1.2744 -1.4522 -0.6668
   15MOL   H165 6913   4.341   5.217   4.852 -0.2687  0.7066 -0.7945
   15MOL   H166 6914   4.075   4.914   5.013 -0.5257 -4.0423  1.1612
   15MOL   H167 6915   4.195   4.910   5.156 -1.2050 -2.7590  0.4180
   15MOL   H168 6916   4.354   4.791   4.983 -0.1848 -0.7355  0.2860
   15MOL   H169 6917   4.227   4.700   5.068  1.7519 -0.4517 -1.1368
   15MOL   O170 6918   4.273   4.637   4.808 -0.2389  0.2664 -0.1927
   15MOL   C171 6919   4.236   4.561   4.698 -0.1247 -0.0040  0.4889
   15MOL   C172 6920   4.303   4.626   4.577 -0.3229  0.4264 -0.4108
   15MOL   C173 6921   4.245   4.564   4.446  0.1499 -0.5675  0.2324
   15MOL   C174 6922   4.329   4.443   4.400  1.2681 -0.1704 -0.0561
   15MOL   O175 6923   4.291   4.334   4.491  0.0230 -0.0899  0.1905
   15MOL   C176 6924   4.366   4.226   4.485 -0.6517  0.7175  0.1894
   15MOL   O177 6925   4.453   4.210   4.397 -0.0168 -0.2154 -0.9777
   15MOL   C178 6926   4.358   4.127   4.602  0.1005 -0.0829  0.2481
   15MOL   C179 6927   4.493   4.114   4.672 -0.3773  0.5493  0.3373
   15MOL   C180 6928   4.592   4.003   4.624 -0.0262  0.7900 -0.2613
   15MOL   O181 6929   4.597   3.898   4.684 -0.1636  0.0353 -0.2849
   15MOL   H182 6930   4.288   4.466   4.704 -0.8213 -0.3364  1.5858
   15MOL   H183 6931   4.132   4.552   4.666  0.1724  0.6202 -0.6607
   15MOL   H184 6932   4.409   4.650   4.587 -0.4601  0.8874 -0.0439
   15MOL   H185 6933   4.260   4.727   4.573  1.0774  0.9851 -2.2731
   15MOL   H186 6934   4.226   4.637   4.368 -1.4734 -1.3927 -0.1687
   15MOL   H187 6935   4.147   4.520   4.466  0.2640 -0.3587  1.2594
   15MOL   H188 6936   4.313   4.414   4.296 -2.1344 -0.8120  0.5885
   15MOL   H189 6937   4.429   4.485   4.410  1.5139 -0.7847  0.1133
   15MOL   H190 6938   4.326   4.037   4.549  0.5684 -0.9137  1.3704
   15MOL   H191 6939   4.278   4.162   4.668  1.6680  1.3339  1.4142
   15MOL   H192 6940   4.555   4.204   4.671  0.4369 -0.0144 -0.0261
   15MOL   H193 6941   4.466   4.093   4.776 -1.1353  0.3474  0.1011
   15MOL   O194 6942   4.662   4.027   4.509  0.3813  0.7043 -0.1568
   15MOL   C195 6943   4.697   3.919   4.431  0.3446  0.9191  0.4098
   15MOL   C196 6944   4.587   3.857   4.339 -0.3585  0.4440  0.9337
   15MOL   C197 6945   4.623   3.721   4.292 -0.3028 -0.1459 -0.1903
   15MOL   C198 6946   4.515   3.655   4.202 -0.3949 -0.0448 -0.5220
   15MOL   O199 6947   4.561   3.526   4.169  0.4243 -0.4141 -0.1333
   15MOL   C200 6948   4.532   3.474   4.046 -1.0271 -0.2758 -0.3421
   15MOL   O201 6949   4.451   3.518   3.964  0.0923 -0.0109 -0.3043
   15MOL   C202 6950   4.619   3.349   4.022 -0.3169  0.0680 -0.2542
   15MOL   C203 6951   4.731   3.386   3.925  0.4990  0.1797 -0.9546
   15MOL   C204 6952   4.842   3.285   3.930 -0.6112 -0.3414  0.1959
   15MOL   O205 6953   4.952   3.322   3.957 -0.1150 -0.3237  0.5272
   15MOL   H206 6954   4.774   3.950   4.360  0.7655  1.8272  1.2412
   15MOL   H207 6955   4.745   3.841   4.490  1.1706  0.3238 -1.0344
   15MOL   H208 6956   4.569   3.916   4.249  0.5069  1.7447  1.6090
   15MOL   H209 6957   4.489   3.855   4.387 -0.5961  1.4111  0.4980
   15MOL   H210 6958   4.627   3.661   4.382 -1.8220  1.1765  0.7687
   15MOL   H211 6959   4.726   3.720   4.254 -0.8689 -0.9444 -1.7523
   15MOL   H212 6960   4.424   3.653   4.262  0.5496  1.1851  0.9867
   15MOL   H213 6961   4.486   3.701   4.108 -0.5279  0.0303 -0.4437
   15MOL   H214 6962   4.550   3.282   3.970 -0.6729  1.3234 -1.4230
   15MOL   H215 6963   4.647   3.301   4.116 -0.0091 -3.8171 -2.2373
   15MOL   H216 6964   4.689   3.402   3.826 -1.5601  2.0685  0.2035
   15MOL   H217 6965   4.766   3.484   3.958 -0.0899  0.2488 -0.5172
   15MOL   O218 6966   4.804   3.155   3.915  0.3581 -0.1854 -0.3777
   15MOL   C219 6967   4.895   3.052   3.923  0.0886 -0.1857 -0.1410
   15MOL   C220 6968   4.817   2.916   3.923 -0.5983 -0.1156  0.3391
   15MOL   C221 6969   4.877   2.810   3.829 -0.0884 -1.0653  1.0169
   15MOL   C222 6970   4.819   2.670   3.845  0.4969  0.2361  0.1943
   15MOL   O223 6971   4.876   2.617   3.968 -0.0007 -0.5565  0.0719
   15MOL   C224 6972   4.917   2.488   3.976  0.4962  0.1237 -0.2898
   15MOL   O225 6973   4.936   2.419   3.875 -0.5855 -0.3381  0.7087
   15MOL   C226 6974   4.937   2.426   4.114  0.0963  0.2728 -0.3760
   15MOL   C227 6975   5.036   2.517   4.196  0.0623 -0.7595  0.1187
   15MOL   C228 6976   5.179   2.510   4.148 -0.3458  0.3399  0.6208
   15MOL   O229 6977   5.251   2.609   4.114 -0.0964  0.0374  0.1211
   15MOL   H230 6978   4.957   3.063   3.834  1.1046 -0.0424  0.5744
   15MOL   H231 6979   4.965   3.060   4.007 -0.3389  0.5971  0.1515
   15MOL   H232 6980   4.719   2.947   3.888 -0.2943  4.4720  3.0409
   15MOL   H233 6981   4.812   2.885   4.027 -0.9979  0.4074  0.4780
   15MOL   H234 6982   4.983   2.801   3.852  0.4096 -1.8162 -1.3946
   15MOL   H235 6983   4.865   2.831   3.723 -1.0043 -0.7069  1.1926
   15MOL   H236 6984   4.711   2.661   3.847  0.4485 -0.2237 -2.7863
   15MOL   H237 6985   4.861   2.598   3.775  0.6606  1.2552 -0.7646
   15MOL   H238 6986   4.980   2.326   4.111  0.4777  0.4652 -1.7943
   15MOL   H239 6987   4.837   2.426   4.158  0.6979  1.8131  1.0770
   15MOL   H240 6988   5.004   2.621   4.192  0.3735 -0.6593  0.1635
   15MOL   H241 6989   5.019   2.503   4.303  0.2234 -1.9412  0.0014
   15MOL   O242 6990   5.222   2.384   4.145 -0.2704  0.5209 -0.2859
   15MOL   C243 6991   5.352   2.357   4.093 -0.3591  0.3917 -0.0215
   15MOL   C244 6992   5.376   2.203   4.072 -0.2074  0.3544 -0.4962
   15MOL   C245 6993   5.274   2.110   4.008  0.2628 -0.9045  0.8325
   15MOL   C246 6994   5.321   1.968   3.992 -0.0125  0.1121  0.5067
   15MOL   O247 6995   5.209   1.882   3.951 -0.1383  0.4261 -0.1876
   15MOL   C248 6996   5.176   1.889   3.820 -0.6670 -0.6294 -0.1832
   15MOL   O249 6997   5.231   1.956   3.732  0.0049 -0.1732 -0.4193
   15MOL   C250 6998   5.070   1.782   3.781  0.1340  0.4375 -0.0381
   15MOL   C251 6999   5.124   1.644   3.758 -0.1441 -0.5459  0.3194
   15MOL   C252 7000   5.211   1.628   3.627 -0.1374  0.5864 -0.6173
   15MOL   O253 7001   5.317   1.570   3.623 -0.0830 -0.9116  0.0283
   15MOL   H254 7002   5.373   2.399   3.995  1.1023 -0.7248 -0.2084
   15MOL   H255 7003   5.427   2.406   4.155 -1.5131 -0.5571  2.1936
   15MOL   H256 7004   5.392   2.161   4.172  1.2106 -0.4205 -1.0469
   15MOL   H257 7005   5.473   2.194   4.025 -1.0320  0.2001 -2.1924
   15MOL   H258 7006   5.256   2.154   3.909 -0.6061  0.0265  1.3840
   15MOL   H259 7007   5.180   2.112   4.063 -0.8987  0.1951 -1.1126
   15MOL   H260 7008   5.401   1.962   3.917  0.5657  1.3175  1.0111
   15MOL   H261 7009   5.375   1.941   4.083 -1.6321  0.1171  1.4875
   15MOL   H262 7010   5.007   1.818   3.700 -1.5325 -0.7820  0.6928
   15MOL   H263 7011   5.007   1.762   3.867  0.5742 -1.1190 -0.0587
   15MOL   H264 7012   5.166   1.596   3.846  0.1349 -2.9033 -1.0341
   15MOL   H265 7013   5.042   1.578   3.731 -0.4456 -0.1441  0.2655
   15MOL   O266 7014   5.142   1.676   3.515  0.3806 -0.2568 -0.0745
   15MOL   C267 7015   5.185   1.637   3.381 -0.7716 -0.7143 -0.1136
   15MOL   C268 7016   5.317   1.723   3.334 -0.5734  0.7457 -0.1957
   15MOL   C269 7017   5.287   1.869   3.322 -0.3420  0.0693  0.5656
   15MOL   C270 7018   5.209   1.910   3.191  0.0321 -0.3647 -0.2014
   15MOL   O271 7019   5.187   2.048   3.181  0.3385  0.5451  0.5230
   15MOL   C272 7020   5.093   2.090   3.093  0.5970 -0.3262  0.1926
   15MOL   O273 7021   5.014   2.022   3.025 -0.0611 -0.0513  0.0716
   15MOL   C274 7022   5.085   2.244   3.103  0.0415  0.5549 -0.3762
   15MOL   C275 7023   5.149   2.314   2.983  0.0892 -0.4422 -0.0153
   15MOL   C276 7024   5.063   2.295   2.860  0.1856  0.6644 -0.7103
   15MOL   O277 7025   4.970   2.371   2.847  0.6405  0.3469 -0.1465
   15MOL   H278 7026   5.202   1.529   3.382  1.1349 -0.4312 -0.4117
   15MOL   H279 7027   5.105   1.650   3.308 -0.9381 -1.6654 -0.1044
   15MOL   H280 7028   5.356   1.697   3.235  1.1801  0.3978  0.5569
   15MOL   H281 7029   5.395   1.711   3.410  0.1574 -1.6836 -1.2686
   15MOL   H282 7030   5.380   1.926   3.318 -1.6989  2.3231  0.3643
   15MOL   H283 7031   5.223   1.893   3.407  0.4861 -1.2927  1.5972
   15MOL   H284 7032   5.264   1.876   3.103 -2.4223 -0.2318 -1.8362
   15MOL   H285 7033   5.118   1.851   3.195  0.3095 -0.9514 -2.0238
   15MOL   H286 7034   5.139   2.279   3.192  0.2144 -1.5128  0.3457
   15MOL   H287 7035   4.984   2.282   3.120  0.7229  1.7798  1.0454
   15MOL   H288 7036   5.163   2.417   3.015 -0.8921 -0.0452 -0.8442
   15MOL   H289 7037   5.249   2.270   2.976  0.5594  0.3739  1.4103
   15MOL   O290 7038   5.103   2.198   2.780 -0.0641 -0.0640  0.0307
   15MOL   C291 7039   5.022   2.172   2.660 -0.3917  0.4039 -0.1044
   15MOL   C292 7040   5.107   2.095   2.556 -0.0572 -0.1826 -0.0634
   15MOL   C293 7041   5.032   2.018   2.441  0.0952  0.0193  0.5944
   15MOL   C294 7042   5.122   1.988   2.320  0.7839  0.3332 -0.6399
   15MOL   O295 7043   5.210   1.874   2.312  0.2614  0.2716 -0.4664
   15MOL   C296 7044   5.166   1.754   2.272  0.6053  0.2470  0.3905
   15MOL   O297 7045   5.059   1.735   2.216  0.0424  0.3962  0.2342
   15MOL   C298 7046   5.274   1.648   2.284  0.4591  0.1729  0.0268
   15MOL   C299 7047   5.239   1.518   2.210  0.7309 -0.0848 -0.7496
   15MOL   C300 7048   5.277   1.393   2.283 -0.0308 -0.1127  0.4565
   15MOL   O301 7049   5.280   1.379   2.404 -0.1272 -0.7805 -0.3762
   15MOL   H302 7050   4.946   2.103   2.696 -0.5048 -0.6246 -2.2293
   15MOL   H303 7051   4.967   2.258   2.621  0.0203  0.3673 -0.7582
   15MOL   H304 7052   5.165   2.022   2.613  0.3737 -0.1074 -0.3985
   15MOL   H305 7053   5.181   2.160   2.509 -1.4187  2.0311  0.7652
   15MOL   H306 7054   4.945   2.077   2.414  0.4634  0.3552  0.1424
   15MOL   H307 7055   4.981   1.927   2.474 -0.4844 -0.7022 -2.1270
   15MOL   H308 7056   5.053   1.981   2.236 -0.9142  0.1243  0.7474
   15MOL   H309 7057   5.172   2.083   2.301 -1.0884  1.4912  0.0882
   15MOL   H310 7058   5.277   1.627   2.391 -2.3516  3.2039  0.8045
   15MOL   H311 7059   5.372   1.688   2.258  1.6272 -1.8696  1.1769
   15MOL   H312 7060   5.131   1.515   2.197  0.2634 -0.9621  2.6864
   15MOL   H313 7061   5.281   1.519   2.110  0.8087 -1.3243 -0.7401
   15MOL   O314 7062   5.317   1.292   2.196  0.3734  0.1277 -0.3133
   15MOL   C315 7063   5.345   1.165   2.237 -0.0496  0.2242 -1.0877
   15MOL   C316 7064   5.263   1.068   2.151 -0.1563  0.3579 -0.9602
   15MOL   C317 7065   5.107   1.080   2.168 -0.5596  0.1373  0.3276
   15MOL   C318 7066   5.036   1.031   2.286 -0.1704 -0.1152  0.3193
   15MOL   O319 7067   5.018   0.887   2.292  0.2803  0.0949  0.0919
   15MOL   C320 7068   4.919   0.834   2.377  0.5209 -0.4088  0.7036
   15MOL   O321 7069   4.846   0.899   2.454 -0.6483  0.4580  0.1945
   15MOL   C322 7070   4.921   0.676   2.366 -0.3078 -0.4583  0.0484
   15MOL   C323 7071   4.814   0.604   2.453 -0.5685 -0.2572  0.4799
   15MOL   C324 7072   4.863   0.565   2.593  0.3895  0.9562  0.2898
   15MOL   O325 7073   4.800   0.591   2.693  0.4043 -0.7311 -0.1552
   15MOL   H326 7074   5.453   1.148   2.228 -0.0809 -0.1686 -0.7175
   15MOL   H327 7075   5.307   1.155   2.339 -2.5773 -1.0424 -2.1309
   15MOL   H328 7076   5.307   0.969   2.162  0.9555  0.9132 -0.3452
   15MOL   H329 7077   5.285   1.099   2.049  1.8097 -1.1409 -1.0205
   15MOL   H330 7078   5.070   1.018   2.087  0.7094 -1.4393  0.9307
   15MOL   H331 7079   5.073   1.180   2.140 -0.5993  0.0628  0.1178
   15MOL   H332 7080   5.091   1.052   2.377  1.1243  1.7368 -0.8760
   15MOL   H333 7081   4.941   1.085   2.287 -0.5796 -0.8179  0.0813
   15MOL   H334 7082   5.020   0.637   2.391 -1.2908 -2.1263  1.4827
   15MOL   H335 7083   4.904   0.649   2.262  0.8774  0.8740 -0.5081
   15MOL   H336 7084   4.727   0.670   2.458  0.3192  1.0128 -0.4670
   15MOL   H337 7085   4.767   0.513   2.418 -0.9302 -0.0975  0.5497
   15MOL   O338 7086   4.968   0.483   2.583  0.3383  0.0478  0.4331
   15MOL   C339 7087   5.053   0.454   2.690 -0.4686  0.2382  0.2815
   15MOL   C340 7088   5.178   0.538   2.694 -0.0076  0.4733 -0.4124
   15MOL   C341 7089   5.157   0.690   2.699  0.1146  0.5000  0.2409
   15MOL   C342 7090   5.294   0.758   2.712  0.1827  0.4550  0.0201
   15MOL   O343 7091   5.275   0.902   2.736  0.3609 -0.4934 -0.5442
   15MOL   C344 7092   5.286   0.984   2.621  0.1482  0.5162 -0.1898
   15MOL   O345 7093   5.315   0.944   2.509  0.6845  0.4713  0.4027
   15MOL   C346 7094   5.244   1.126   2.642 -0.2981  0.0863  0.2972
   15MOL   C347 7095   5.098   1.142   2.674  0.1163  0.2948  0.0034
   15MOL   C348 7096   5.062   1.180   2.819  0.1591  0.7000 -0.6391
   15MOL   O349 7097   5.084   1.284   2.874  0.0516 -0.0375 -0.2131
   15MOL   H350 7098   4.998   0.470   2.783 -0.0809  0.6065  0.4510
   15MOL   H351 7099   5.076   0.349   2.672  0.3791  0.5104 -0.2842
   15MOL   H352 7100   5.242   0.518   2.607  1.5058  0.6879  0.6240
   15MOL   H353 7101   5.232   0.501   2.781 -2.1268 -0.3491  0.5667
   15MOL   H354 7102   5.086   0.714   2.778  1.2209  2.2789  0.7298
   15MOL   H355 7103   5.107   0.719   2.607  2.1588  2.2168 -0.3574
   15MOL   H356 7104   5.352   0.715   2.794  0.0049 -0.0033 -0.0934
   15MOL   H357 7105   5.349   0.738   2.621 -0.3506 -3.3127  0.4393
   15MOL   H358 7106   5.259   1.179   2.548  1.1074  1.2104  1.1430
   15MOL   H359 7107   5.298   1.181   2.719 -1.3377 -0.0575  1.1456
   15MOL   H360 7108   5.069   1.234   2.623  1.5330  0.3290 -0.7485
   15MOL   H361 7109   5.032   1.060   2.644 -1.6699  2.3903 -2.0569
   15MOL   O362 7110   5.022   1.070   2.883 -0.1827 -0.1413  0.1460
   15MOL   C363 7111   5.001   1.065   3.018  0.4226 -0.2328 -0.6861
   15MOL   C364 7112   4.955   0.926   3.068  0.1242  0.5357 -0.4436
   15MOL   C365 7113   4.836   0.866   2.995 -0.0460  0.6045  0.1759
   15MOL   C366 7114   4.805   0.710   3.043  0.0664  0.1915 -0.1106
   15MOL   O367 7115   4.770   0.713   3.184 -0.4552  0.4341  0.0295
   15MOL   C368 7116   4.852   0.666   3.280  0.2641  0.2611  0.0770
   15MOL   O369 7117   4.969   0.640   3.258  0.2742  0.3202  0.3060
   15MOL   C370 7118   4.786   0.661   3.412 -0.1052 -0.4294  0.4942
   15MOL   C371 7119   4.720   0.523   3.428 -0.4081 -0.0938  0.3807
   15MOL   C372 7120   4.692   0.498   3.581  0.6760  0.2178  0.6448
   15MOL   O373 7121   4.618   0.572   3.643 -0.3993  0.7465  0.0052
   15MOL   H374 7122   5.094   1.090   3.069 -0.4506 -1.2929  1.5165
   15MOL   H375 7123   4.920   1.132   3.047 -0.3036 -1.3126 -0.1558
   15MOL   H376 7124   4.937   0.933   3.176  1.3114 -0.7582 -0.1552
   15MOL   H377 7125   5.038   0.857   3.055 -1.4588 -1.5312  0.1553
   15MOL   H378 7126   4.846   0.873   2.887 -1.3924 -0.7848 -0.0494
   15MOL   H379 7127   4.750   0.928   3.020 -2.4184 -2.4670 -0.0566
   15MOL   H380 7128   4.711   0.682   2.996  0.4653 -2.6843  0.6958
   15MOL   H381 7129   4.885   0.640   3.022  1.2864  1.2850  0.7829
   15MOL   H382 7130   4.708   0.737   3.421 -2.3652 -2.7317  0.8442
   15MOL   H383 7131   4.854   0.671   3.497 -0.1609 -3.6201  0.9810
   15MOL   H384 7132   4.630   0.529   3.368 -0.4575  2.8236  0.6921
   15MOL   H385 7133   4.783   0.442   3.389  0.1758 -0.1679  1.4405
   15MOL   O386 7134   4.760   0.388   3.633  0.3265  0.1833 -0.0655
   15MOL   C387 7135   4.733   0.350   3.766  0.4935 -0.2021 -0.0484
   15MOL   C388 7136   4.761   0.199   3.786  1.0604  0.1500  0.0241
   15MOL   C389 7137   4.677   0.099   3.703 -0.1927  0.3788 -0.0270
   15MOL   C390 7138   4.662   7.833   3.752  0.2879 -0.0947  0.3569
   15MOL   O391 7139   4.585   7.746   3.663 -0.1128  0.4748  0.4068
   15MOL   C392 7140   4.578   7.617   3.685 -0.7057  0.2234  0.4612
   15MOL   O393 7141   4.643   7.554   3.769  0.0244 -0.2683 -0.1047
   15MOL   C394 7142   4.506   7.543   3.583 -0.2554 -0.0640 -0.1484
   15MOL   C395 7143   4.363   7.500   3.624  0.4555 -0.0935  0.3389
   15MOL   C396 7144   4.257   7.598   3.582  0.1108 -0.3175 -0.3706
   15MOL   O397 7145   4.274   7.720   3.615  0.5903 -0.4577 -0.0147
   15MOL   H398 7146   4.786   0.420   3.831 -1.2598 -0.7239  2.0426
   15MOL   H399 7147   4.627   0.377   3.771  0.5150 -0.4206  2.1134
   15MOL   H400 7148   4.752   0.174   3.892  1.2584 -0.1351 -0.0263
   15MOL   H401 7149   4.865   0.196   3.754  0.7948  0.8051 -0.9114
   15MOL   H402 7150   4.721   0.083   3.604  0.9676 -0.4045  0.6182
   15MOL   H403 7151   4.574   0.133   3.689 -0.7196 -0.2060  2.2277
   15MOL   H404 7152   4.764   7.796   3.742  0.1461 -0.9901  2.0298
   15MOL   H405 7153   4.625   7.831   3.855 -2.2771  0.5646 -0.5190
   15MOL   H406 7154   4.569   7.461   3.548 -0.9063  0.2950 -2.2347
   15MOL   H407 7155   4.489   7.591   3.487 -1.5807  1.3270  0.7774
   15MOL   H408 7156   4.344   7.398   3.591  2.2168 -0.5204  0.5638
   15MOL   H409 7157   4.359   7.490   3.732 -1.2156  0.8862  0.3877
   15MOL   O410 7158   4.158   7.553   3.503 -0.2333  0.2403 -0.3311
   15MOL   C411 7159   4.053   7.643   3.472  0.4850  0.3654 -0.1393
   15MOL   C412 7160   3.967   7.580   3.367  0.1666 -0.2928  0.1019
   15MOL   C413 7161   3.881   7.466   3.428  0.2237 -0.4009  0.8785
   15MOL   C414 7162   3.761   7.425   3.345 -0.2673  0.0324  0.3627
   15MOL   O415 7163   3.791   7.365   3.214  0.1154 -0.3326 -0.4724
   15MOL   C416 7164   3.792   7.439   3.102  0.2838 -0.4595 -0.1664
   15MOL   O417 7165   3.765   7.557   3.095 -0.8136 -0.1923  0.0102
   15MOL   C418 7166   3.810   7.356   2.978 -0.5039 -0.5232 -0.7877
   15MOL   C419 7167   3.956   7.331   2.942  0.8033  0.3109 -0.0365
   15MOL   C420 7168   3.995   7.360   2.798  0.8082  0.6048 -0.6279
   15MOL   O421 7169   3.936   7.456   2.744  0.0588 -1.2173 -0.2891
   15MOL   H422 7170   3.989   7.683   3.550 -0.5700 -0.2700 -0.6649
   15MOL   H423 7171   4.099   7.730   3.426 -2.2633  1.3750 -1.0593
   15MOL   H424 7172   4.041   7.539   3.298 -0.6063  1.2941 -1.7327
   15MOL   H425 7173   3.900   7.650   3.316 -0.0002 -0.8810 -0.4905
   15MOL   H426 7174   3.841   7.514   3.517  1.3334  1.7585  0.2382
   15MOL   H427 7175   3.925   7.374   3.467 -0.4301 -1.1164 -0.0451
   15MOL   H428 7176   3.692   7.365   3.405  0.9050 -1.0533  0.6391
   15MOL   H429 7177   3.700   7.512   3.322  0.1735  1.0940  3.0171
   15MOL   H430 7178   3.759   7.395   2.890  2.5115  0.6488 -2.1020
   15MOL   H431 7179   3.759   7.261   2.999  0.1851 -0.6475  0.3896
   15MOL   H432 7180   4.028   7.380   3.007 -0.4936  1.1235  0.8000
   15MOL   H433 7181   3.982   7.225   2.947 -0.6656  0.0217  1.8415
   15MOL   O434 7182   4.092   7.283   2.751 -0.2527 -0.1353 -0.3916
   15MOL   C435 7183   4.142   7.303   2.619 -0.4993 -0.5751 -0.0611
   15MOL   C436 7184   4.276   7.383   2.629  0.1028  0.2490  0.0055
   15MOL   C437 7185   4.319   7.440   2.492  0.2517 -0.6856 -0.2408
   15MOL   C438 7186   4.424   7.554   2.500 -0.0367  0.1246  0.0669
   15MOL   O439 7187   4.379   7.686   2.527 -0.0325  0.5351  0.2830
   15MOL   C440 7188   4.387   7.744   2.642 -0.7735 -0.0001 -0.2380
   15MOL   O441 7189   4.437   7.689   2.739 -0.0983 -0.1650  0.0010
   15MOL   C442 7190   4.315   0.006   2.651 -0.9035  0.3265 -0.5148
   15MOL   C443 7191   4.386   0.095   2.759  0.4149  0.0023 -0.0728
   15MOL   C444 7192   4.423   0.233   2.706 -0.3410  0.3267  0.9534
   15MOL   O445 7193   4.380   0.330   2.761  0.7040 -0.5834 -0.4802
   15MOL   H446 7194   4.152   7.203   2.577  2.5402 -0.4498  0.2692
   15MOL   H447 7195   4.066   7.354   2.560  0.6408 -0.1232 -1.1545
   15MOL   H448 7196   4.346   7.304   2.655  0.0766 -0.3232 -1.5960
   15MOL   H449 7197   4.263   7.454   2.710 -3.4117  1.0311 -1.1471
   15MOL   H450 7198   4.230   7.481   2.444  0.3497 -1.4977 -1.1380
   15MOL   H451 7199   4.364   7.351   2.446  0.0990 -0.7424 -0.2809
   15MOL   H452 7200   4.506   7.539   2.570 -0.8409  1.4754  1.3286
   15MOL   H453 7201   4.459   7.562   2.397 -1.2346  0.3686 -0.3205
   15MOL   H454 7202   4.215   7.852   2.681 -0.9511  1.3463  0.3231
   15MOL   H455 7203   4.308   0.052   2.552 -0.4609 -0.2564 -0.8252
   15MOL   H456 7204   4.326   0.109   2.849  0.3951 -0.3485 -0.0321
   15MOL   H457 7205   4.476   0.045   2.794  0.1981 -0.2753  0.0863
   15MOL   O458 7206   4.507   0.230   2.600 -0.9360 -0.0227 -0.1235
   15MOL   C459 7207   4.553   0.344   2.533  0.0129  0.3362  1.0177
   15MOL   C460 7208   4.459   0.411   2.438  0.1961  0.0395  0.3947
   15MOL   C461 7209   4.404   0.316   2.332 -0.0233 -0.2252  0.5706
   15MOL   C462 7210   4.322   0.393   2.227 -0.1172  0.5571  0.2527
   15MOL   O463 7211   4.284   0.313   2.111  0.2776 -0.3656  0.7253
   15MOL   C464 7212   4.336   0.339   1.989  0.3678 -0.4330 -0.0046
   15MOL   O465 7213   4.421   0.431   1.970 -0.1241  1.1682 -0.2028
   15MOL   C466 7214   4.271   0.258   1.874 -0.1248 -0.2495  0.4892
   15MOL   C467 7215   4.133   0.312   1.823 -0.1351  0.0588 -0.2457
   15MOL   C468 7216   4.138   0.423   1.723  0.1609 -0.3279 -0.0611
   15MOL   O469 7217   4.220   0.415   1.636  0.5314 -0.3768 -0.0147
   15MOL   H470 7218   4.585   0.422   2.601  0.5826  3.0413 -2.1919
   15MOL   H471 7219   4.636   0.309   2.472  0.0303  2.2815 -0.1254
   15MOL   H472 7220   4.506   0.489   2.379  1.3002 -0.6950  0.2739
   15MOL   H473 7221   4.382   0.462   2.495 -1.3354 -0.0663 -1.5147
   15MOL   H474 7222   4.370   0.223   2.376  1.0563  0.3290  2.6476
   15MOL   H475 7223   4.491   0.280   2.277 -0.8882 -0.3405 -0.7473
   15MOL   H476 7224   4.226   0.428   2.268 -0.8046  0.3643 -1.1781
   15MOL   H477 7225   4.378   0.483   2.203 -1.6375  1.8282  1.3086
   15MOL   H478 7226   4.241   0.166   1.925 -0.1802 -0.5833 -0.1384
   15MOL   H479 7227   4.338   0.233   1.791 -1.0468  2.7408 -1.2037
   15MOL   H480 7228   4.072   0.235   1.776 -0.7701  0.1114  0.4780
   15MOL   H481 7229   4.080   0.335   1.916 -0.4222 -3.8723  0.6366
   15MOL   H482 7230   4.051   0.489   1.724 -0.3301 -0.9922  2.4983
   16MOL     O1 7231   2.423   5.166   5.691 -0.1786  0.5016 -0.0671
   16MOL     C2 7232   2.315   5.221   5.766 -0.3414  0.0263 -0.4203
   16MOL     C3 7233   2.375   5.255   5.910  0.7186  0.1254 -0.0557
   16MOL     C4 7234   2.422   5.124   5.983 -0.7599 -0.6169  0.3418
   16MOL     C5 7235   2.475   5.140   6.123 -0.6664  0.5202  0.2405
   16MOL     O6 7236   2.388   5.183   6.225  0.0984 -0.8736  0.3989
   16MOL     C7 7237   2.306   5.087   6.275  0.7033 -0.0863 -0.5710
   16MOL     O8 7238   2.321   4.966   6.263  0.1391 -0.1280  0.0474
   16MOL     C9 7239   2.198   5.150   6.352 -0.1687 -0.3679  0.0385
   16MOL    C10 7240   2.111   5.044   6.419  0.2836  0.2435  0.0277
   16MOL    C11 7241   2.035   5.109   6.529 -0.2603 -0.5866 -0.7163
   16MOL    O12 7242   2.095   5.164   6.624  0.0616 -0.0963  0.0999
   16MOL    H13 7243   2.287   5.316   5.720 -0.5495  1.2327  2.1333
   16MOL    H14 7244   2.233   5.150   5.779 -0.2074 -0.0788 -0.1412
   16MOL    H15 7245   2.293   5.306   5.961  0.9203  0.9299 -0.5133
   16MOL    H16 7246   2.457   5.328   5.905 -0.4696  1.5783  1.3317
   16MOL    H17 7247   2.502   5.066   5.937 -0.6046  1.5099 -2.1290
   16MOL    H18 7248   2.343   5.049   5.974 -0.2934 -1.0275 -0.3813
   16MOL    H19 7249   2.519   5.044   6.150 -1.4061 -0.0371 -0.4958
   16MOL    H20 7250   2.564   5.203   6.119  0.1378 -0.5650  0.5742
   16MOL    H21 7251   2.136   5.207   6.282  2.1285  1.3761 -0.6378
   16MOL    H22 7252   2.232   5.226   6.422  0.7860 -1.9112  1.2719
   16MOL    H23 7253   2.048   4.996   6.343  1.3776 -1.9220  0.4491
   16MOL    H24 7254   2.164   4.960   6.462 -2.1652 -1.8339 -0.8825
   16MOL    H25 7255   2.379   5.139   5.612 -1.4484  1.7638  0.1752
   16MOL    O26 7256   1.901   5.097   6.512 -0.0925 -0.0966 -0.2709
   16MOL    C27 7257   1.816   5.166   6.603  0.4756 -0.6907 -0.5733
   16MOL    C28 7258   1.761   5.063   6.707  0.3649  0.2613  0.4340
   16MOL    C29 7259   1.687   4.946   6.650  0.2142 -0.4335 -0.2343
   16MOL    C30 7260   1.632   4.861   6.764 -0.1627 -0.1760 -0.6152
   16MOL    O31 7261   1.559   4.750   6.705  0.1696 -0.5351 -0.7809
   16MOL    C32 7262   1.597   4.624   6.732 -0.4664  1.2446 -0.6438
   16MOL    O33 7263   1.682   4.593   6.819 -0.4416 -0.3448 -0.0431
   16MOL    C34 7264   1.528   4.522   6.643  0.6332 -0.3330 -0.2787
   16MOL    C35 7265   1.374   4.549   6.642 -0.4107 -0.2167 -0.1819
   16MOL    C36 7266   1.320   4.619   6.514  0.7097  0.5178 -0.5336
   16MOL    O37 7267   1.198   4.612   6.494 -0.1280  0.3558 -0.0846
   16MOL    H38 7268   1.879   5.240   6.653  2.0072 -0.9897 -2.0219
   16MOL    H39 7269   1.741   5.221   6.547 -0.2195 -0.3400  0.6740
   16MOL    H40 7270   1.696   5.112   6.781  0.6606  0.6226  0.4568
   16MOL    H41 7271   1.850   5.033   6.761  2.5540  0.3136 -3.0461
   16MOL    H42 7272   1.750   4.881   6.589 -1.9972 -1.2546 -1.6976
   16MOL    H43 7273   1.603   4.968   6.584  1.7649 -1.2500 -2.5305
   16MOL    H44 7274   1.708   4.831   6.837 -0.3464  1.0436  0.0812
   16MOL    H45 7275   1.561   4.919   6.822  1.2674  2.3855 -1.3719
   16MOL    H46 7276   1.545   4.424   6.687  0.1438  0.9032  2.8008
   16MOL    H47 7277   1.561   4.533   6.540 -0.8184  1.3867 -0.5951
   16MOL    H48 7278   1.327   4.451   6.647 -0.0800 -0.2915  2.2739
   16MOL    H49 7279   1.336   4.615   6.720  1.9422  0.2419  0.6251
   16MOL    O50 7280   1.407   4.684   6.434  0.7124  0.4199 -0.1638
   16MOL    C51 7281   1.368   4.737   6.312  0.2483  0.0861 -0.3940
   16MOL    C52 7282   1.470   4.853   6.281 -0.3263 -0.5400  0.0784
   16MOL    C53 7283   1.611   4.800   6.289  0.2644  0.2431  0.0324
   16MOL    C54 7284   1.719   4.902   6.235  0.1453  0.4693  0.6285
   16MOL    O55 7285   1.849   4.852   6.238 -0.1857  0.9206 -0.1393
   16MOL    C56 7286   1.894   4.787   6.134  0.5561 -0.0246 -0.0212
   16MOL    O57 7287   1.840   4.773   6.022  0.4366  0.1228 -0.0431
   16MOL    C58 7288   2.023   4.713   6.157  0.3327 -0.3362  0.0588
   16MOL    C59 7289   2.103   4.670   6.037 -1.0489  0.1320  0.4220
   16MOL    C60 7290   2.154   4.522   6.042 -0.6864 -1.3902 -0.4082
   16MOL    O61 7291   2.123   4.447   6.137 -0.0428 -0.5077 -0.0572
   16MOL    H62 7292   1.372   4.668   6.228 -2.2761  1.7458 -1.9782
   16MOL    H63 7293   1.267   4.779   6.310  0.6828  1.2540  0.9292
   16MOL    H64 7294   1.458   4.936   6.350 -2.1997  1.2775 -2.3745
   16MOL    H65 7295   1.454   4.889   6.180 -0.7246 -1.3914 -0.1679
   16MOL    H66 7296   1.623   4.712   6.226 -1.5688 -0.6519  0.8809
   16MOL    H67 7297   1.650   4.761   6.383 -2.0113  0.9874  1.3398
   16MOL    H68 7298   1.696   4.940   6.136  0.8014  0.1150  0.3356
   16MOL    H69 7299   1.722   4.993   6.296 -0.5472  0.0476  1.2889
   16MOL    H70 7300   1.996   4.631   6.223  0.5941 -2.2521 -2.1640
   16MOL    H71 7301   2.081   4.780   6.220 -0.6672 -2.4134  3.2878
   16MOL    H72 7302   2.077   4.703   5.937  0.5116 -0.0933 -0.0675
   16MOL    H73 7303   2.196   4.727   6.042 -0.3035 -0.9422 -0.7562
   16MOL    O74 7304   2.233   4.485   5.938  0.0959  0.1279 -0.6722
   16MOL    C75 7305   2.264   4.346   5.921 -0.0798 -0.3716  0.1017
   16MOL    C76 7306   2.344   4.315   5.801  0.0509 -0.4659  0.0171
   16MOL    C77 7307   2.241   4.283   5.692  0.0820 -0.2195 -0.6789
   16MOL    C78 7308   2.313   4.258   5.564  0.4179 -0.0929  0.3493
   16MOL    O79 7309   2.227   4.179   5.481 -0.1341  0.5220  0.4448
   16MOL    C80 7310   2.254   4.056   5.439 -0.6088  0.5355 -0.5452
   16MOL    O81 7311   2.358   3.990   5.463  0.1167 -0.3051  1.1002
   16MOL    C82 7312   2.146   3.994   5.351  0.1910  0.0245 -0.1944
   16MOL    C83 7313   2.196   3.931   5.219  0.0931  0.1723 -0.7540
   16MOL    C84 7314   2.117   3.808   5.166  0.4707 -0.4284 -0.4030
   16MOL    O85 7315   2.072   3.718   5.246  0.1840  0.1225 -0.4129
   16MOL    H86 7316   2.317   4.324   6.013 -1.0685  0.7989  0.9719
   16MOL    H87 7317   2.178   4.279   5.924  0.9549 -1.7400 -0.5037
   16MOL    H88 7318   2.410   4.230   5.814 -1.0599 -1.3342  0.0398
   16MOL    H89 7319   2.412   4.391   5.762 -0.5765  0.2568  0.3296
   16MOL    H90 7320   2.173   4.366   5.675  1.2372  1.0228  0.6580
   16MOL    H91 7321   2.189   4.194   5.727  0.2417  0.5389  1.6092
   16MOL    H92 7322   2.334   4.354   5.518 -0.8482 -0.6724 -1.5065
   16MOL    H93 7323   2.407   4.204   5.579 -0.4538 -1.7387  0.0681
   16MOL    H94 7324   2.086   4.084   5.333 -1.5567 -1.3446 -1.4497
   16MOL    H95 7325   2.087   3.922   5.408 -1.4480 -0.7289 -2.7650
   16MOL    H96 7326   2.188   3.996   5.131  0.0317 -1.0525 -1.6667
   16MOL    H97 7327   2.296   3.898   5.247  0.2021  0.6069 -0.6209
   16MOL    O98 7328   2.101   3.806   5.040  0.4797 -0.1555  0.2254
   16MOL    C99 7329   2.009   3.709   4.993 -0.0146 -0.4358  0.1354
   16MOL   C100 7330   2.046   3.690   4.846 -0.9229  0.1081 -0.3048
   16MOL   C101 7331   2.014   3.836   4.781  0.0044  0.7584  0.3713
   16MOL   C102 7332   2.012   3.831   4.630 -0.6553  0.1492  0.5901
   16MOL   O103 7333   1.901   3.758   4.589  0.0110  0.2719  0.2829
   16MOL   C104 7334   1.886   3.721   4.464 -0.2164 -0.7177 -1.0611
   16MOL   O105 7335   1.970   3.743   4.379 -0.1384 -0.7725 -0.2540
   16MOL   C106 7336   1.763   3.634   4.441 -0.5311  0.5826 -0.1866
   16MOL   C107 7337   1.653   3.719   4.382  0.0332  0.2296 -0.8722
   16MOL   C108 7338   1.513   3.681   4.432  0.8049 -0.1321 -0.2839
   16MOL   O109 7339   1.487   3.580   4.501 -0.3321  0.3212  0.2720
   16MOL   H110 7340   2.033   3.610   5.031  0.9378 -0.0393  0.5690
   16MOL   H111 7341   1.905   3.740   5.003  0.4534  1.5092 -0.7258
   16MOL   H112 7342   1.986   3.609   4.804 -0.2946 -0.8037  0.5534
   16MOL   H113 7343   2.151   3.666   4.828 -1.0754 -1.4520  0.7550
   16MOL   H114 7344   2.099   3.902   4.800  0.8749 -0.0664 -0.5757
   16MOL   H115 7345   1.926   3.889   4.818 -0.6470  0.6062 -0.9097
   16MOL   H116 7346   2.005   3.928   4.581 -0.3420 -0.4664 -0.7073
   16MOL   H117 7347   2.103   3.790   4.586 -0.7170 -1.3201  1.7996
   16MOL   H118 7348   1.731   3.598   4.539 -0.1266 -0.7827 -0.5388
   16MOL   H119 7349   1.792   3.545   4.384  2.2594  2.1648 -1.3014
   16MOL   H120 7350   1.674   3.826   4.380 -0.8026  0.4185  0.0821
   16MOL   H121 7351   1.655   3.689   4.277  1.4988  2.0149 -1.3626
   16MOL   O122 7352   1.426   3.776   4.398 -0.3816  0.3431 -0.0440
   16MOL   C123 7353   1.291   3.751   4.423  0.0186 -0.2419  0.1081
   16MOL   C124 7354   1.235   3.822   4.548  0.1206 -0.0067 -0.1543
   16MOL   C125 7355   1.101   3.759   4.594  0.6258 -0.4224 -0.4226
   16MOL   C126 7356   0.980   3.803   4.508 -0.3623 -0.3049  0.0226
   16MOL   O127 7357   0.994   3.733   4.388  0.1130  0.0020  0.0498
   16MOL   C128 7358   0.890   3.728   4.297  0.3915  0.1766  0.3447
   16MOL   O129 7359   0.782   3.786   4.309 -0.0028  0.9785  0.7483
   16MOL   C130 7360   0.925   3.637   4.182  0.3543 -0.5676  0.7117
   16MOL   C131 7361   0.918   3.487   4.213  0.3067  0.6646  0.1584
   16MOL   C132 7362   1.048   3.421   4.253 -0.9774  0.5972  0.6782
   16MOL   O133 7363   1.139   3.399   4.180 -0.4026 -0.4332  0.3074
   16MOL   H134 7364   1.243   3.791   4.333  0.9280 -0.4848 -0.4928
   16MOL   H135 7365   1.260   3.646   4.431 -1.5185  0.3662  2.4882
   16MOL   H136 7366   1.209   3.926   4.526 -1.6111 -0.3885  0.0744
   16MOL   H137 7367   1.308   3.812   4.629 -0.2113 -1.8492 -0.0612
   16MOL   H138 7368   1.099   3.798   4.696  0.3832 -2.0613  0.2128
   16MOL   H139 7369   1.095   3.651   4.603  2.2509 -0.7426 -2.6516
   16MOL   H140 7370   0.888   3.773   4.559 -0.2632 -0.1497  0.2962
   16MOL   H141 7371   0.965   3.911   4.500 -0.3055 -0.2850  0.1861
   16MOL   H142 7372   1.021   3.660   4.135 -1.2801  0.6242 -2.1474
   16MOL   H143 7373   0.841   3.659   4.117  0.4153  0.9586  1.1259
   16MOL   H144 7374   0.844   3.459   4.289  0.0678  1.3268  0.1674
   16MOL   H145 7375   0.888   3.433   4.123  0.2072  3.7960 -1.7447
   16MOL   O146 7376   1.044   3.398   4.386 -0.1895 -0.4871  0.1445
   16MOL   C147 7377   1.160   3.366   4.452 -0.1534 -0.4875  0.5228
   16MOL   C148 7378   1.126   3.343   4.599 -0.6241  1.2119 -0.1931
   16MOL   C149 7379   1.250   3.298   4.677  0.4304 -0.2112 -0.2578
   16MOL   C150 7380   1.219   3.262   4.815 -0.1697  0.1143  0.7049
   16MOL   O151 7381   1.329   3.276   4.896 -0.4942  0.6838 -0.6607
   16MOL   C152 7382   1.360   3.183   4.986 -0.0431  0.5431  0.1497
   16MOL   O153 7383   1.283   3.092   5.019 -0.5164  0.8753 -0.4388
   16MOL   C154 7384   1.495   3.207   5.058  0.0391  0.2939 -0.1557
   16MOL   C155 7385   1.609   3.151   4.967 -0.9059  0.2523 -0.5731
   16MOL   C156 7386   1.643   3.243   4.848  0.5793 -0.1635 -0.1264
   16MOL   O157 7387   1.675   3.202   4.736 -0.5838  0.1011  0.9123
   16MOL   H158 7388   1.214   3.276   4.423  0.2249  0.2765 -1.1940
   16MOL   H159 7389   1.227   3.452   4.452 -1.6856  0.7134  0.3897
   16MOL   H160 7390   1.045   3.271   4.601 -0.0778  0.6046  0.4130
   16MOL   H161 7391   1.083   3.428   4.653  1.1313  1.0432  1.5416
   16MOL   H162 7392   1.322   3.379   4.678 -0.1442  0.3099 -0.5006
   16MOL   H163 7393   1.307   3.223   4.622 -0.3871  0.9437 -2.7463
   16MOL   H164 7394   1.153   3.332   4.867  0.0674  0.1667  0.9339
   16MOL   H165 7395   1.170   3.164   4.818 -0.6528  0.3492  0.6650
   16MOL   H166 7396   1.483   3.154   5.152  0.1890 -0.7414 -0.7070
   16MOL   H167 7397   1.508   3.310   5.089  0.3847  0.8624 -2.1576
   16MOL   H168 7398   1.701   3.136   5.022 -0.7931 -0.4607 -0.9411
   16MOL   H169 7399   1.582   3.051   4.930 -0.2155 -0.3374  0.4944
   16MOL   O170 7400   1.629   3.373   4.877  0.3717 -0.5449  0.3366
   16MOL   C171 7401   1.682   3.464   4.788  0.5456  0.6401 -0.1367
   16MOL   C172 7402   1.664   3.605   4.835 -0.4810 -0.1294  0.6213
   16MOL   C173 7403   1.515   3.632   4.868  1.4315  0.4999  0.1079
   16MOL   C174 7404   1.492   3.782   4.915 -0.1585  0.6273 -0.1823
   16MOL   O175 7405   1.524   3.870   4.809  0.8356 -0.0801  0.5159
   16MOL   C176 7406   1.608   3.971   4.829 -0.3884 -0.0649  0.3192
   16MOL   O177 7407   1.629   4.022   4.943  0.2114  0.2433 -0.0233
   16MOL   C178 7408   1.662   4.022   4.702  0.1742 -0.5560  0.1442
   16MOL   C179 7409   1.764   4.132   4.719  0.7153  0.8053  0.4677
   16MOL   C180 7410   1.706   4.279   4.713 -0.2435  0.0015 -0.7995
   16MOL   O181 7411   1.779   4.367   4.665 -0.5047 -0.2194 -0.2107
   16MOL   H182 7412   1.789   3.454   4.771  0.6398  1.2683  0.0725
   16MOL   H183 7413   1.632   3.456   4.691 -0.6050 -3.0222  0.6944
   16MOL   H184 7414   1.690   3.670   4.753 -1.0698 -2.5948 -1.5926
   16MOL   H185 7415   1.723   3.630   4.923 -0.8495  0.1681  0.7857
   16MOL   H186 7416   1.474   3.563   4.942 -1.2371  2.9312  0.9433
   16MOL   H187 7417   1.462   3.616   4.775  2.6093 -0.2342 -0.4429
   16MOL   H188 7418   1.396   3.804   4.962 -0.2086  1.4653 -0.6583
   16MOL   H189 7419   1.561   3.793   4.999 -0.9751  0.7245  0.4942
   16MOL   H190 7420   1.589   4.063   4.633 -1.0516  0.5709  2.0728
   16MOL   H191 7421   1.698   3.932   4.653 -0.1905 -0.3930 -0.4239
   16MOL   H192 7422   1.814   4.126   4.815 -0.4394  0.3294  1.0492
   16MOL   H193 7423   1.842   4.122   4.643  0.8616 -0.9025  0.8340
   16MOL   O194 7424   1.582   4.294   4.757  0.2020 -0.0845  0.0762
   16MOL   C195 7425   1.523   4.421   4.771 -0.2265  0.4903  0.1756
   16MOL   C196 7426   1.438   4.424   4.901 -0.7005 -0.3925 -0.1159
   16MOL   C197 7427   1.525   4.433   5.031  0.3305  0.6492  0.1898
   16MOL   C198 7428   1.586   4.570   5.060  0.8201 -0.0230 -0.3003
   16MOL   O199 7429   1.476   4.664   5.079  0.2342  0.1024  0.3068
   16MOL   C200 7430   1.436   4.754   4.989  0.4788 -0.5391  1.3766
   16MOL   O201 7431   1.494   4.784   4.884 -0.4836 -0.6135  0.4223
   16MOL   C202 7432   1.327   4.845   5.036 -0.2054 -0.5722 -0.2145
   16MOL   C203 7433   1.372   4.979   5.103  0.5717  0.1210 -0.1681
   16MOL   C204 7434   1.369   4.972   5.259 -0.1779  0.1845 -0.6624
   16MOL   O205 7435   1.274   5.013   5.324  0.0506  0.2019  0.9374
   16MOL   H206 7436   1.589   4.507   4.760  1.4266 -0.8119 -0.2467
   16MOL   H207 7437   1.459   4.435   4.684  1.5021 -2.3709 -1.6623
   16MOL   H208 7438   1.368   4.341   4.910 -1.5256  0.3087  0.1104
   16MOL   H209 7439   1.380   4.517   4.897  0.7084  0.5256  0.4188
   16MOL   H210 7440   1.608   4.364   5.020 -1.7368 -1.8462 -0.2731
   16MOL   H211 7441   1.464   4.401   5.115 -0.4177  3.8314  0.9210
   16MOL   H212 7442   1.644   4.567   5.152 -0.6066 -0.2458  0.6086
   16MOL   H213 7443   1.658   4.604   4.986 -0.5040  1.8488 -0.7670
   16MOL   H214 7444   1.249   4.798   5.095  1.0115 -2.1864  0.1710
   16MOL   H215 7445   1.289   4.879   4.940  0.4830  0.7208 -0.0414
   16MOL   H216 7446   1.475   5.003   5.078  0.8756 -0.3877  0.5714
   16MOL   H217 7447   1.302   5.059   5.081  1.3765  1.1600  0.9865
   16MOL   O218 7448   1.483   4.923   5.313 -0.5480  0.7064 -0.3143
   16MOL   C219 7449   1.511   4.908   5.456 -0.3324 -0.0769  0.1525
   16MOL   C220 7450   1.663   4.905   5.476  0.2410  0.1915 -0.0866
   16MOL   C221 7451   1.741   5.028   5.411  0.2034  0.4359 -0.5284
   16MOL   C222 7452   1.887   5.053   5.448 -0.2392 -0.9650 -0.7401
   16MOL   O223 7453   1.889   5.065   5.591  0.0199 -0.1680  0.2870
   16MOL   C224 7454   1.957   5.172   5.657  0.0299 -0.5925 -0.7311
   16MOL   O225 7455   2.056   5.227   5.613  0.3330 -0.0020 -0.2861
   16MOL   C226 7456   1.909   5.208   5.797  0.0560  0.3149 -0.9278
   16MOL   C227 7457   1.897   5.090   5.893 -0.8091 -0.6073  0.7444
   16MOL   C228 7458   1.935   5.128   6.038  0.6653  0.5291 -0.8793
   16MOL   O229 7459   2.040   5.103   6.091 -0.3184  0.1159  0.7013
   16MOL   H230 7460   1.465   4.991   5.510  1.8868  2.1895 -1.3072
   16MOL   H231 7461   1.486   4.810   5.496  1.4233 -0.8844 -0.6847
   16MOL   H232 7462   1.706   4.813   5.437 -0.3078  0.0002 -0.2501
   16MOL   H233 7463   1.679   4.912   5.584  1.1336  1.7440 -0.3026
   16MOL   H234 7464   1.698   5.128   5.425  2.0698  1.0208  1.1839
   16MOL   H235 7465   1.741   5.017   5.303  0.5057  1.3105 -0.6264
   16MOL   H236 7466   1.962   4.982   5.411  2.3437  1.5520 -0.5646
   16MOL   H237 7467   1.909   5.151   5.405  0.0706 -0.5908  0.2753
   16MOL   H238 7468   1.810   5.254   5.785 -0.5455 -0.2953  1.5021
   16MOL   H239 7469   1.965   5.295   5.832  0.5657  0.2510 -1.5926
   16MOL   H240 7470   1.794   5.054   5.886 -0.9882 -0.1335  0.8896
   16MOL   H241 7471   1.955   5.004   5.860  0.3596 -0.6235  2.7741
   16MOL   O242 7472   1.829   5.190   6.102  0.6510 -0.6767 -0.3917
   16MOL   C243 7473   1.859   5.264   6.218  0.7023  0.0620  0.1811
   16MOL   C244 7474   1.903   5.409   6.188 -0.3854 -0.2474  0.0848
   16MOL   C245 7475   1.802   5.497   6.117  0.3549 -0.2312 -0.6236
   16MOL   C246 7476   1.864   5.620   6.035 -0.3187  0.3947  0.1693
   16MOL   O247 7477   1.945   5.557   5.937 -0.4015 -0.3748 -0.1361
   16MOL   C248 7478   2.003   5.631   5.846  0.1141  0.0231 -0.2352
   16MOL   O249 7479   1.991   5.750   5.837  0.0284  0.3276  0.5537
   16MOL   C250 7480   2.093   5.557   5.763 -0.1672 -0.4053 -0.2632
   16MOL   C251 7481   2.238   5.595   5.796 -0.2950 -0.2208  0.7110
   16MOL   C252 7482   2.320   5.633   5.672 -0.3640 -0.1769  0.3411
   16MOL   O253 7483   2.317   5.743   5.618 -0.2409 -0.2764  0.2221
   16MOL   H254 7484   1.770   5.272   6.280 -0.5176 -1.4147 -1.3233
   16MOL   H255 7485   1.926   5.206   6.281  0.7672 -0.8493 -0.7054
   16MOL   H256 7486   1.996   5.403   6.131 -0.0472  1.0717  0.4835
   16MOL   H257 7487   1.929   5.448   6.286 -0.5381 -1.5982  0.6668
   16MOL   H258 7488   1.724   5.530   6.186  0.9848 -0.5607  0.2517
   16MOL   H259 7489   1.749   5.433   6.046  1.0314 -0.6887 -0.7219
   16MOL   H260 7490   1.787   5.686   5.995 -1.5396 -1.4842 -0.6541
   16MOL   H261 7491   1.928   5.675   6.104 -2.0248  1.1102  1.2201
   16MOL   H262 7492   2.068   5.588   5.661 -3.3861 -1.4186  0.1704
   16MOL   H263 7493   2.082   5.449   5.771  0.9307 -0.5115 -0.0308
   16MOL   H264 7494   2.242   5.676   5.870  0.8867  2.2269 -1.9405
   16MOL   H265 7495   2.291   5.518   5.852  2.9962  0.2143 -1.6498
   16MOL   O266 7496   2.404   5.538   5.630 -0.3711  0.2076 -0.2299
   16MOL   C267 7497   2.492   5.545   5.525  0.3251  0.1412 -0.8826
   16MOL   C268 7498   2.638   5.576   5.560  0.8716  0.5223 -0.6094
   16MOL   C269 7499   2.706   5.457   5.649 -0.2689 -0.1240 -0.1476
   16MOL   C270 7500   2.836   5.501   5.708 -0.2697  0.7969  0.1393
   16MOL   O271 7501   2.834   5.618   5.781  0.4325  0.0409  0.0845
   16MOL   C272 7502   2.796   5.615   5.908  0.1339  0.7401 -0.5239
   16MOL   O273 7503   2.758   5.519   5.974  0.4552 -0.2107 -0.4714
   16MOL   C274 7504   2.796   5.751   5.964 -0.8965  0.3574  0.4636
   16MOL   C275 7505   2.669   5.816   5.897  0.4511  0.1707 -0.6696
   16MOL   C276 7506   2.579   5.882   5.998  0.1091 -0.2802  0.2640
   16MOL   O277 7507   2.463   5.856   5.996  0.1317  0.6437 -0.0233
   16MOL   H278 7508   2.486   5.450   5.472  1.9735  0.6048 -1.9212
   16MOL   H279 7509   2.452   5.621   5.458  4.5504  1.6677 -1.8146
   16MOL   H280 7510   2.641   5.665   5.622  0.2546 -0.3366  0.6872
   16MOL   H281 7511   2.697   5.586   5.469 -1.0844  3.7848 -1.5869
   16MOL   H282 7512   2.738   5.387   5.572  2.5736  0.4675  0.4343
   16MOL   H283 7513   2.630   5.417   5.714 -0.6325  0.2701 -0.3271
   16MOL   H284 7514   2.889   5.425   5.766 -1.2352  1.1355  1.5001
   16MOL   H285 7515   2.914   5.522   5.635 -0.7360  0.8352 -0.3455
   16MOL   H286 7516   2.883   5.803   5.925 -1.4550  0.6254 -0.4493
   16MOL   H287 7517   2.798   5.749   6.073 -1.8763  0.0481  0.4752
   16MOL   H288 7518   2.704   5.897   5.834 -0.2472  1.5641  0.6968
   16MOL   H289 7519   2.616   5.750   5.829 -2.6624  0.0138  1.7675
   16MOL   O290 7520   2.648   5.967   6.073  1.0440  0.1346 -0.4830
   16MOL   C291 7521   2.582   6.044   6.173 -0.4927 -0.2958  0.9243
   16MOL   C292 7522   2.551   6.192   6.159 -1.0071 -0.4516  0.5966
   16MOL   C293 7523   2.686   6.273   6.164 -0.0336 -0.0619  0.3303
   16MOL   C294 7524   2.658   6.424   6.168  0.2869  0.7237  0.3511
   16MOL   O295 7525   2.784   6.494   6.173 -0.2483 -0.1243  0.2305
   16MOL   C296 7526   2.785   6.622   6.200 -0.0702  0.0141  0.0810
   16MOL   O297 7527   2.679   6.684   6.221 -0.0583  0.2982  0.7643
   16MOL   C298 7528   2.920   6.679   6.202  0.0629  0.9287  0.4796
   16MOL   C299 7529   2.932   6.829   6.241 -0.4147 -0.3711 -0.1818
   16MOL   C300 7530   2.923   6.850   6.388 -0.4812 -0.3573 -0.0060
   16MOL   O301 7531   2.817   6.886   6.437 -0.3048  0.3109  0.3714
   16MOL   H302 7532   2.492   5.993   6.206  0.2662 -2.8796 -0.8154
   16MOL   H303 7533   2.635   6.028   6.266 -0.0740 -0.8074  0.6033
   16MOL   H304 7534   2.512   6.224   6.256 -0.3661 -0.9543  1.0266
   16MOL   H305 7535   2.482   6.205   6.075 -2.1815 -3.5737  1.0283
   16MOL   H306 7536   2.745   6.240   6.078  0.4870  0.4791  0.4802
   16MOL   H307 7537   2.750   6.250   6.248  1.3131  0.2779 -0.5901
   16MOL   H308 7538   2.607   6.457   6.078  1.3986 -3.0268 -1.7835
   16MOL   H309 7539   2.588   6.458   6.245  1.2042  1.9700  0.6532
   16MOL   H310 7540   2.977   6.662   6.110  1.8222 -0.2747  1.7737
   16MOL   H311 7541   2.960   6.611   6.276  0.6670 -0.4806 -1.1162
   16MOL   H312 7542   3.026   6.879   6.217 -0.0878  1.3638  4.1830
   16MOL   H313 7543   2.842   6.870   6.196 -1.2162 -1.2627  0.5970
   16MOL   O314 7544   3.043   6.817   6.450  0.2648 -0.0786  0.1622
   16MOL   C315 7545   3.038   6.807   6.597 -0.8524  0.2529 -0.0821
   16MOL   C316 7546   2.983   6.668   6.652  0.4263  0.6105  0.1842
   16MOL   C317 7547   2.963   6.662   6.807  0.8511  0.3752  0.2222
   16MOL   C318 7548   2.936   6.520   6.862 -0.2973  0.6941  0.7098
   16MOL   O319 7549   2.952   6.516   7.005 -0.1905 -0.1554  0.2244
   16MOL   C320 7550   2.945   6.397   7.059 -0.1102  0.2825  0.0367
   16MOL   O321 7551   2.905   6.291   7.011 -0.3240  0.2976 -0.7210
   16MOL   C322 7552   2.991   6.402   7.197 -0.0647 -0.6954  0.4609
   16MOL   C323 7553   3.143   6.389   7.192  0.7120 -0.3510  0.2808
   16MOL   C324 7554   3.197   6.441   7.325 -0.4703 -0.4561  0.0298
   16MOL   O325 7555   3.156   6.541   7.380 -0.4189  0.4041  0.4160
   16MOL   H326 7556   3.136   6.818   6.643 -1.5887  1.8437  1.1382
   16MOL   H327 7557   2.975   6.891   6.626 -0.7061 -0.5100  2.6366
   16MOL   H328 7558   3.043   6.584   6.618 -1.2007  0.3830 -2.2864
   16MOL   H329 7559   2.882   6.652   6.613  0.0258 -1.0828  1.8451
   16MOL   H330 7560   2.902   6.741   6.850  1.1074 -0.2327  1.7265
   16MOL   H331 7561   3.062   6.679   6.849  0.7552  1.9250 -0.1249
   16MOL   H332 7562   2.832   6.498   6.839 -0.1576 -0.6702  1.3501
   16MOL   H333 7563   2.990   6.435   6.822  0.4710 -0.7492  4.6004
   16MOL   H334 7564   2.957   6.324   7.264 -0.3796 -0.7563  0.2334
   16MOL   H335 7565   2.969   6.498   7.242 -1.0875  0.3006 -2.0755
   16MOL   H336 7566   3.163   6.282   7.188 -1.8799 -0.7969 -1.7189
   16MOL   H337 7567   3.187   6.445   7.109  0.1118  0.6733  0.6447
   16MOL   O338 7568   3.278   6.350   7.377  0.3027  0.3329 -0.4214
   16MOL   C339 7569   3.360   6.391   7.478 -0.5035 -0.4868 -0.5615
   16MOL   C340 7570   3.314   6.335   7.615 -0.6365  0.4984  0.6514
   16MOL   C341 7571   3.187   6.400   7.660 -0.5965 -0.4520  0.4130
   16MOL   C342 7572   3.145   6.359   7.800 -0.2877 -0.0875 -0.1019
   16MOL   O343 7573   3.031   6.444   7.828 -0.0609 -1.0902  0.0344
   16MOL   C344 7574   2.995   6.447   0.086  0.5693 -0.4963 -0.9075
   16MOL   O345 7575   3.036   6.371   0.176  0.0280  0.3906  0.9413
   16MOL   C346 7576   2.889   6.551   0.116  0.2207  0.0398 -0.6134
   16MOL   C347 7577   2.785   6.507   0.219  0.1699  0.3339  0.2149
   16MOL   C348 7578   2.662   6.594   0.212  0.5034 -0.3728 -0.0743
   16MOL   O349 7579   2.605   6.640   0.311  0.5062 -0.6244 -0.1631
   16MOL   H350 7580   3.456   6.348   7.447  0.0754  0.4626 -0.1008
   16MOL   H351 7581   3.373   6.499   7.478  0.0056 -0.5498  0.5696
   16MOL   H352 7582   3.398   6.350   7.683  0.1940  1.7958 -0.6360
   16MOL   H353 7583   3.288   6.229   7.608  0.3224  0.4494 -3.0397
   16MOL   H354 7584   3.101   6.381   7.596 -1.5088  0.8906  1.2166
   16MOL   H355 7585   3.205   6.507   7.657 -1.5533 -0.2540  1.3730
   16MOL   H356 7586   3.117   6.257   7.775  0.0829 -0.0027 -0.9060
   16MOL   H357 7587   3.218   6.362   0.006  0.1453 -1.6797 -0.4098
   16MOL   H358 7588   2.848   6.583   0.020  0.7851 -0.2343 -0.9491
   16MOL   H359 7589   2.945   6.637   0.152  3.1522 -1.9974 -0.1668
   16MOL   H360 7590   2.758   6.405   0.195 -0.6504  0.2395  1.5188
   16MOL   H361 7591   2.818   6.506   0.323 -0.3473  0.5687  0.3814
   16MOL   O362 7592   2.620   6.613   0.092  0.5170 -0.4792  0.0121
   16MOL   C363 7593   2.503   6.679   0.061  0.6616 -0.2471 -1.2359
   16MOL   C364 7594   2.498   6.726   7.792 -0.5550 -0.6842  0.2935
   16MOL   C365 7595   2.357   6.788   7.758  1.0039 -0.3658  0.1520
   16MOL   C366 7596   2.351   6.835   7.610 -0.8226 -0.5004 -0.6904
   16MOL   O367 7597   2.364   6.722   7.526 -0.3560  0.3538 -0.5629
   16MOL   C368 7598   2.457   6.719   7.436 -0.1752 -0.0526  0.3492
   16MOL   O369 7599   2.532   6.812   7.402 -0.2001  0.3570  0.3321
   16MOL   C370 7600   2.463   6.583   7.367 -0.6292  0.0629 -0.3352
   16MOL   C371 7601   2.461   6.458   7.461 -0.0937  0.2086 -0.0500
   16MOL   C372 7602   2.612   6.416   7.479 -0.3185 -0.1109 -0.3232
   16MOL   O373 7603   2.663   6.326   7.420  0.1901  0.2846  0.3497
   16MOL   H374 7604   2.422   6.608   0.074  0.7096  0.0188  0.6167
   16MOL   H375 7605   2.480   6.766   0.123 -0.0380 -1.6013  0.4466
   16MOL   H376 7606   2.519   6.637   7.732  0.9699 -0.5669  0.6192
   16MOL   H377 7607   2.570   6.806   7.773 -1.8522  0.1616 -1.1273
   16MOL   H378 7608   2.326   6.874   7.817 -0.2688 -0.6639 -0.0752
   16MOL   H379 7609   2.279   6.717   7.783  0.9605  0.1660  1.5381
   16MOL   H380 7610   2.252   6.873   7.584 -0.1084  2.8732  1.2813
   16MOL   H381 7611   2.415   6.920   7.588 -1.2154  0.2042  0.7881
   16MOL   H382 7612   2.552   6.588   7.304 -2.5850 -0.8459 -3.2422
   16MOL   H383 7613   2.374   6.574   7.305 -0.1493 -1.3783 -0.8065
   16MOL   H384 7614   2.431   6.478   7.564 -2.7486 -0.0091 -0.7412
   16MOL   H385 7615   2.401   6.379   7.415  1.5129 -0.4440 -1.0896
   16MOL   O386 7616   2.691   6.500   7.558  0.4093  0.2690  0.3065
   16MOL   C387 7617   2.826   6.490   7.571 -0.1034  0.4171 -0.0798
   16MOL   C388 7618   2.890   6.625   7.586  0.2344  0.3008 -0.0289
   16MOL   C389 7619   2.871   6.729   7.475 -0.0680  0.3848 -0.0093
   16MOL   C390 7620   2.953   6.844   7.508  0.3895 -0.9827  0.3886
   16MOL   O391 7621   2.926   6.960   7.421 -0.0736  0.7743 -0.2877
   16MOL   C392 7622   2.853   7.059   7.466  0.4698  0.2115 -0.8052
   16MOL   O393 7623   2.782   7.066   7.565 -0.1578 -0.0324  0.1308
   16MOL   C394 7624   2.852   7.176   7.365  0.7365 -0.2732  0.2623
   16MOL   C395 7625   2.792   7.139   7.229  0.7019  1.1551  0.2396
   16MOL   C396 7626   2.894   7.138   7.111 -0.1484 -0.0667 -0.2485
   16MOL   O397 7627   3.005   7.180   7.118 -0.2109 -0.7673  0.0656
   16MOL   H398 7628   2.848   6.422   7.654 -0.7488 -0.3582 -0.5269
   16MOL   H399 7629   2.871   6.450   7.480 -1.1763  1.6396 -1.1678
   16MOL   H400 7630   2.997   6.605   7.602 -0.1637 -1.2630  0.8258
   16MOL   H401 7631   2.854   6.676   7.676  1.4550  2.2133 -0.5876
   16MOL   H402 7632   2.767   6.762   7.469  0.2947  1.5959  0.2170
   16MOL   H403 7633   2.906   6.696   7.377 -2.0057  0.9540 -0.9188
   16MOL   H404 7634   2.948   6.879   7.611  2.5464 -0.1118  0.2088
   16MOL   H405 7635   3.053   6.805   7.491  0.3713 -1.5095  1.4433
   16MOL   H406 7636   2.954   7.201   7.336  0.0931  0.3681 -1.5329
   16MOL   H407 7637   2.799   7.258   7.415 -0.1919 -0.2779 -0.6969
   16MOL   H408 7638   2.759   7.035   7.233 -1.5701  1.9319  3.8113
   16MOL   H409 7639   2.706   7.200   7.203 -0.6568  1.0634  4.1420
   16MOL   O410 7640   2.837   7.082   7.006  0.1441 -0.5649  0.7945
   16MOL   C411 7641   2.913   7.075   6.888  0.4698 -0.0373 -0.7078
   16MOL   C412 7642   2.874   7.185   6.792 -0.2714  0.8606  0.0724
   16MOL   C413 7643   2.723   7.190   6.768  0.4486  0.1236 -0.8389
   16MOL   C414 7644   2.660   7.054   6.719 -0.2084  1.5950  0.1072
   16MOL   O415 7645   2.633   6.964   6.823 -0.1855  0.0793 -0.3288
   16MOL   C416 7646   2.536   6.995   6.916  0.3859 -0.0006 -1.2760
   16MOL   O417 7647   2.452   7.085   6.912 -0.1677 -0.3242  0.1598
   16MOL   C418 7648   2.530   6.901   7.029 -0.0195 -0.0434  0.2972
   16MOL   C419 7649   2.453   6.778   6.997  0.1882  0.1774  0.1641
   16MOL   C420 7650   2.538   6.651   6.989 -0.2512 -0.3039  0.2115
   16MOL   O421 7651   2.663   6.651   6.993 -0.4300 -0.4509  0.1539
   16MOL   H422 7652   3.017   7.089   6.917  0.6036  0.7946 -1.5491
   16MOL   H423 7653   2.898   6.982   6.833 -0.5302  0.3237 -1.0660
   16MOL   H424 7654   2.922   7.185   6.694  1.4739  0.1904  0.9109
   16MOL   H425 7655   2.910   7.274   6.844 -0.9218  0.0105  2.0206
   16MOL   H426 7656   2.700   7.266   6.694 -0.7844 -0.5752 -1.1862
   16MOL   H427 7657   2.676   7.226   6.859 -4.1050 -3.0596 -1.7916
   16MOL   H428 7658   2.563   7.065   6.671  1.2233  2.0799 -2.7863
   16MOL   H429 7659   2.718   7.005   6.641  0.5092  0.5434  1.2965
   16MOL   H430 7660   2.477   6.960   7.103  0.3082  2.0851 -1.1293
   16MOL   H431 7661   2.620   6.871   7.084  0.8431  1.4067 -0.2817
   16MOL   H432 7662   2.364   6.759   7.057  1.4498  0.9929  2.3248
   16MOL   H433 7663   2.406   6.791   6.899 -0.2632  1.4829  0.5499
   16MOL   O434 7664   2.474   6.539   6.971 -0.2322  0.2882  0.2612
   16MOL   C435 7665   2.547   6.412   6.959 -0.0533 -0.2425  0.0091
   16MOL   C436 7666   2.493   6.312   7.070 -0.3293  0.2812  0.2367
   16MOL   C437 7667   2.567   6.182   7.075 -0.3381  0.2967 -0.2689
   16MOL   C438 7668   2.487   6.074   7.143  0.1245  0.9314 -0.8249
   16MOL   O439 7669   2.574   5.963   7.167 -0.8196  0.6980 -0.5357
   16MOL   C440 7670   2.570   5.892   7.287  0.3160 -0.2621 -0.8844
   16MOL   O441 7671   2.523   5.939   7.396  0.2755 -0.3851 -0.3006
   16MOL   C442 7672   2.653   5.763   7.291 -0.3132 -0.1479 -0.0227
   16MOL   C443 7673   2.583   5.636   7.237  0.5738 -0.6447 -0.6065
   16MOL   C444 7674   2.655   5.550   7.138  0.5801  0.5574 -0.1567
   16MOL   O445 7675   2.758   5.584   7.083 -0.0826  0.3473 -0.4977
   16MOL   H446 7676   2.549   6.364   6.862  0.7100 -3.6185  1.6205
   16MOL   H447 7677   2.651   6.423   6.992  0.2925  1.2494 -1.5520
   16MOL   H448 7678   2.387   6.298   7.050 -0.4818 -3.0236  2.8789
   16MOL   H449 7679   2.491   6.352   7.172  0.7048 -1.6589  1.0585
   16MOL   H450 7680   2.658   6.205   7.131 -0.4424  1.8069 -0.7008
   16MOL   H451 7681   2.608   6.153   6.979  0.2299 -3.6405  1.0696
   16MOL   H452 7682   2.439   6.125   7.226  0.6279  1.8723 -1.1049
   16MOL   H453 7683   2.406   6.036   7.081  1.0404 -1.6085 -0.5614
   16MOL   H454 7684   2.671   5.740   7.396 -3.7381 -3.0697  0.0210
   16MOL   H455 7685   2.747   5.784   7.240  0.3363 -0.0223  1.2175
   16MOL   H456 7686   2.538   5.578   7.318 -0.3914 -1.8542 -1.9817
   16MOL   H457 7687   2.492   5.670   7.187 -0.0623  0.2717  1.1032
   16MOL   O458 7688   2.592   5.434   7.111  0.4161 -0.2679 -0.3899
   16MOL   C459 7689   2.640   5.353   7.006 -0.2447  0.1425 -0.3137
   16MOL   C460 7690   2.658   5.202   7.054  0.1626  0.4698 -0.4212
   16MOL   C461 7691   2.747   5.193   7.178 -0.2047 -0.5197  1.4251
   16MOL   C462 7692   2.779   5.055   7.223  0.3988  0.2340 -0.3795
   16MOL   O463 7693   2.833   4.968   7.128 -0.3177 -0.2848  0.0938
   16MOL   C464 7694   2.896   4.861   7.166  0.8519  0.6707 -0.3369
   16MOL   O465 7695   2.916   4.828   7.280  0.3430 -0.2248 -0.8052
   16MOL   C466 7696   2.953   4.786   7.045  0.5037 -0.2029  0.2249
   16MOL   C467 7697   2.951   4.631   7.066 -0.2546 -0.1375 -0.1386
   16MOL   C468 7698   3.092   4.574   7.066  0.3362 -0.7287  0.7201
   16MOL   O469 7699   3.167   4.589   6.970  0.3253  1.1710  0.1678
   16MOL   H470 7700   2.582   5.351   6.913  0.2016  1.7512 -0.6380
   16MOL   H471 7701   2.741   5.378   6.974 -0.1417 -0.0683 -0.1534
   16MOL   H472 7702   2.700   5.150   6.968 -0.3879 -0.1120 -0.3439
   16MOL   H473 7703   2.557   5.162   7.069  1.1130 -1.3504  1.4028
   16MOL   H474 7704   2.706   5.260   7.254 -2.7889 -1.3332  0.7970
   16MOL   H475 7705   2.843   5.235   7.150 -0.1305 -0.8560  1.1799
   16MOL   H476 7706   2.850   5.072   7.304  0.0637 -1.4885  0.2957
   16MOL   H477 7707   2.694   4.998   7.259  1.7887  0.1862  3.0688
   16MOL   H478 7708   3.060   4.810   7.048  0.3389  0.9947 -2.2349
   16MOL   H479 7709   2.903   4.805   6.950  0.6310 -1.2024 -0.0400
   16MOL   H480 7710   2.907   4.608   7.163 -1.0292 -0.7098 -0.6200
   16MOL   H481 7711   2.898   4.586   6.982  2.2384 -0.3469 -1.6270
   16MOL   H482 7712   3.122   4.496   7.136 -0.9396 -0.0872  2.0016
   17MOL     O1 7713   2.472   4.619   3.663 -0.2493  0.9103  0.5122
   17MOL     C2 7714   2.554   4.506   3.674 -0.0310 -1.1346 -0.2257
   17MOL     C3 7715   2.515   4.413   3.784 -0.3888 -0.2291  0.0896
   17MOL     C4 7716   2.540   4.467   3.926 -0.5690  0.5031 -0.0068
   17MOL     C5 7717   2.539   4.354   4.031 -0.1345  0.5631  0.8610
   17MOL     O6 7718   2.551   4.407   4.159 -0.6294 -0.2337  0.1734
   17MOL     C7 7719   2.575   4.314   4.258  0.6897  0.5222  0.2489
   17MOL     O8 7720   2.560   4.194   4.240 -0.2143  0.0024  0.1021
   17MOL     C9 7721   2.609   4.379   4.390  0.1534  0.0065  0.0771
   17MOL    C10 7722   2.510   4.479   4.451  0.5085 -0.8260  0.6314
   17MOL    C11 7723   2.565   4.543   4.569  0.3091 -0.0614 -0.1019
   17MOL    O12 7724   2.595   4.476   4.668  0.1715 -0.2922  0.3230
   17MOL    H13 7725   2.550   4.456   3.578  2.6652  0.6273 -1.3262
   17MOL    H14 7726   2.654   4.539   3.703 -1.7291  1.5617  3.0993
   17MOL    H15 7727   2.579   4.326   3.770  0.9399  0.8115 -0.4738
   17MOL    H16 7728   2.420   4.361   3.774 -1.6622  1.7960  1.3563
   17MOL    H17 7729   2.458   4.534   3.952 -0.9305  0.0593 -0.0007
   17MOL    H18 7730   2.636   4.518   3.933 -0.1127 -0.1747 -1.1977
   17MOL    H19 7731   2.439   4.310   4.024 -0.3179  1.1442 -0.1830
   17MOL    H20 7732   2.604   4.269   4.009 -2.4203 -1.2948  1.0658
   17MOL    H21 7733   2.708   4.421   4.370 -0.4981  1.4288 -0.2157
   17MOL    H22 7734   2.623   4.310   4.473 -1.0019 -0.1779  0.1137
   17MOL    H23 7735   2.488   4.560   4.381  1.3442 -1.1911 -0.0597
   17MOL    H24 7736   2.422   4.424   4.483 -1.4739  0.8921 -1.6895
   17MOL    H25 7737   2.498   4.687   3.724  3.4852  0.0945 -0.0149
   17MOL    O26 7738   2.578   4.666   4.555  0.0597  0.3414 -0.6744
   17MOL    C27 7739   2.648   4.738   4.656  0.8134  0.2782  0.5386
   17MOL    C28 7740   2.800   4.747   4.626 -0.3032  0.3560 -0.0366
   17MOL    C29 7741   2.834   4.860   4.522 -0.7541 -0.2850  0.2700
   17MOL    C30 7742   2.964   4.844   4.439 -0.2771 -0.0471  0.5292
   17MOL    O31 7743   3.051   4.949   4.463 -0.0277  0.3039 -0.4968
   17MOL    C32 7744   3.042   5.051   4.385  0.2119  0.7152 -0.0805
   17MOL    O33 7745   2.962   5.072   4.297  0.5906 -0.4499  0.8358
   17MOL    C34 7746   3.146   5.163   4.422  0.2331 -0.3760  0.2809
   17MOL    C35 7747   3.119   5.301   4.361  0.2659 -0.1361  0.7754
   17MOL    C36 7748   3.193   5.316   4.229 -0.0196  0.5976 -0.4456
   17MOL    O37 7749   3.283   5.245   4.186 -0.0665 -0.5690  0.4180
   17MOL    H38 7750   2.595   4.833   4.662  0.9834  0.4599 -0.7291
   17MOL    H39 7751   2.629   4.693   4.753 -0.7357 -0.7351 -0.2164
   17MOL    H40 7752   2.832   4.655   4.578 -1.4376  0.2384 -0.5729
   17MOL    H41 7753   2.860   4.756   4.717  1.7989  1.4327 -1.4816
   17MOL    H42 7754   2.835   4.959   4.568  3.2699 -1.7496  3.5990
   17MOL    H43 7755   2.756   4.870   4.446  1.0298  1.3355 -1.3831
   17MOL    H44 7756   3.007   4.745   4.455 -0.2640 -0.0078  0.7287
   17MOL    H45 7757   2.942   4.849   4.332  0.0592 -2.7012  0.2826
   17MOL    H46 7758   3.245   5.125   4.398  1.1471  0.4697  2.5665
   17MOL    H47 7759   3.145   5.164   4.531  1.4194  1.2501  0.2907
   17MOL    H48 7760   3.012   5.300   4.342  0.1582 -0.4677  1.3679
   17MOL    H49 7761   3.140   5.380   4.433 -2.1025  0.1010  1.2588
   17MOL    O50 7762   3.159   5.432   4.157  0.0052  0.1637  0.5507
   17MOL    C51 7763   3.235   5.470   4.044  0.0219 -0.3143  0.0013
   17MOL    C52 7764   3.289   5.610   4.046 -0.2285  0.2463  0.2479
   17MOL    C53 7765   3.388   5.637   3.930  0.1920 -0.4340  0.1001
   17MOL    C54 7766   3.452   5.771   3.956  0.0339  0.1695  0.0498
   17MOL    O55 7767   3.507   5.826   3.838  0.1621  1.0215  0.5389
   17MOL    C56 7768   3.465   5.949   3.795 -0.0879  0.3074  0.1684
   17MOL    O57 7769   3.393   6.023   3.863  0.3676 -0.2432  0.3585
   17MOL    C58 7770   3.518   5.989   3.658 -0.6426  0.5947  0.1072
   17MOL    C59 7771   3.430   5.954   3.539  0.4146 -0.0471  0.4542
   17MOL    C60 7772   3.489   5.845   3.450 -0.1255  0.0331  0.5214
   17MOL    O61 7773   3.535   5.871   3.341 -0.2850 -0.2711 -0.1510
   17MOL    H62 7774   3.314   5.397   4.029  0.1465  0.1512 -1.6857
   17MOL    H63 7775   3.170   5.471   3.956 -0.6034  0.2145  0.4614
   17MOL    H64 7776   3.354   5.622   4.132 -0.2065 -0.1047  0.2795
   17MOL    H65 7777   3.210   5.686   4.046  0.2248  0.7156  0.5297
   17MOL    H66 7778   3.334   5.632   3.836 -1.8867 -0.4208  1.2635
   17MOL    H67 7779   3.463   5.559   3.914 -0.2177 -0.3057 -2.6380
   17MOL    H68 7780   3.366   5.828   3.991  0.3774 -1.0256  2.9505
   17MOL    H69 7781   3.526   5.780   4.035 -0.1115  1.3631  0.0593
   17MOL    H70 7782   3.617   5.944   3.647 -0.4288  0.7538  1.2473
   17MOL    H71 7783   3.532   6.097   3.664 -0.9972  0.5911  0.9698
   17MOL    H72 7784   3.331   5.930   3.577  0.2210 -0.5067 -0.3277
   17MOL    H73 7785   3.419   6.040   3.473 -3.3010 -0.1988  0.7273
   17MOL    O74 7786   3.495   5.730   3.512  0.1461 -0.1747  0.3160
   17MOL    C75 7787   3.564   5.625   3.455 -0.3493  0.5248 -0.5907
   17MOL    C76 7788   3.634   5.531   3.555  0.0323  0.4029 -0.0977
   17MOL    C77 7789   3.716   5.434   3.470 -0.2877  0.7134  0.1374
   17MOL    C78 7790   3.745   5.305   3.546  0.2137  0.5076  0.3551
   17MOL    O79 7791   3.626   5.219   3.565 -0.0972  0.2164  0.2613
   17MOL    C80 7792   3.603   5.127   3.474 -0.2100 -0.1727  0.2661
   17MOL    O81 7793   3.657   5.110   3.362  0.2203 -0.2341  0.1205
   17MOL    C82 7794   3.490   5.035   3.517  0.5967  0.2412  0.0442
   17MOL    C83 7795   3.519   4.965   3.657 -0.6814 -0.1821  0.4701
   17MOL    C84 7796   3.479   4.816   3.656  0.4693  0.0838 -0.1775
   17MOL    O85 7797   3.367   4.783   3.694 -0.0255  0.0541 -0.1065
   17MOL    H86 7798   3.491   5.574   3.392 -1.2210  1.4060 -0.2952
   17MOL    H87 7799   3.645   5.663   3.392  0.3395 -1.3441 -0.8784
   17MOL    H88 7800   3.559   5.478   3.613 -0.0025  2.0468  1.3739
   17MOL    H89 7801   3.696   5.589   3.623 -0.1414  0.9651 -0.4193
   17MOL    H90 7802   3.812   5.467   3.430  0.1213 -2.4101 -1.6297
   17MOL    H91 7803   3.664   5.410   3.377 -1.4085  1.0836  0.6639
   17MOL    H92 7804   3.822   5.247   3.496  1.0951  0.2945  1.9331
   17MOL    H93 7805   3.780   5.330   3.646 -2.3609  2.0579  0.9238
   17MOL    H94 7806   3.474   4.956   3.444 -0.6138 -0.3139  0.8980
   17MOL    H95 7807   3.395   5.089   3.516  0.2157 -0.4044  0.7576
   17MOL    H96 7808   3.624   4.967   3.684 -1.6313  0.9243  4.3922
   17MOL    H97 7809   3.461   5.018   3.733 -0.3225 -1.2803  1.5436
   17MOL    O98 7810   3.580   4.741   3.615 -0.0400  0.3777  0.3559
   17MOL    C99 7811   3.594   4.599   3.636 -0.1862 -0.1137 -0.1467
   17MOL   C100 7812   3.679   4.567   3.765  0.1821  0.1012  0.2012
   17MOL   C101 7813   3.822   4.563   3.732 -0.5089  0.4888  0.2278
   17MOL   C102 7814   3.870   4.431   3.666 -1.3425 -0.5109  0.3994
   17MOL   O103 7815   3.899   4.347   3.769 -0.5552  0.5584 -0.1756
   17MOL   C104 7816   4.023   4.296   3.786 -0.1313  0.8448 -0.3156
   17MOL   O105 7817   4.119   4.319   3.716 -0.0801 -0.5119  0.1752
   17MOL   C106 7818   4.021   4.191   3.890 -0.1882  0.6304  0.1810
   17MOL   C107 7819   3.926   4.069   3.865  0.2893 -0.4073  0.5411
   17MOL   C108 7820   3.795   4.093   3.944  0.4762  0.2816 -0.7847
   17MOL   O109 7821   3.796   4.060   4.063 -0.5505  0.0993 -0.0060
   17MOL   H110 7822   3.493   4.556   3.640  0.2694 -1.2340 -0.4480
   17MOL   H111 7823   3.649   4.560   3.550  1.6159  2.1404 -0.0563
   17MOL   H112 7824   3.648   4.470   3.804  1.7849 -1.1566 -1.5666
   17MOL   H113 7825   3.675   4.641   3.844  1.4482 -0.2369  0.5799
   17MOL   H114 7826   3.874   4.590   3.824 -1.6744  1.5274  0.5844
   17MOL   H115 7827   3.842   4.647   3.665 -1.3165 -0.9586 -1.9050
   17MOL   H116 7828   3.794   4.375   3.611  0.0790 -1.0694 -1.0544
   17MOL   H117 7829   3.955   4.465   3.606 -1.1715  0.3471  1.1211
   17MOL   H118 7830   3.987   4.245   3.978  0.4071  1.7150 -0.2387
   17MOL   H119 7831   4.124   4.161   3.910  0.2383 -0.4368 -3.2372
   17MOL   H120 7832   3.897   4.049   3.762  1.2609 -1.4234  0.4489
   17MOL   H121 7833   3.971   3.978   3.905 -1.2824 -0.9969  0.9718
   17MOL   O122 7834   3.696   4.147   3.869 -0.2896 -0.3477 -0.2699
   17MOL   C123 7835   3.570   4.131   3.926  0.0234  0.3224  0.3085
   17MOL   C124 7836   3.467   4.204   3.844  0.0818 -0.1664 -0.2099
   17MOL   C125 7837   3.322   4.190   3.905 -0.5178  0.3095 -0.0749
   17MOL   C126 7838   3.212   4.259   3.822 -0.7503  0.3018 -0.1455
   17MOL   O127 7839   3.190   4.184   3.700  0.4615  0.6162 -0.1334
   17MOL   C128 7840   3.068   4.194   3.639 -0.0310 -0.5015 -0.1395
   17MOL   O129 7841   2.965   4.224   3.699  0.0417  0.1043  0.1918
   17MOL   C130 7842   3.065   4.146   3.497  0.2523  0.3026 -0.5880
   17MOL   C131 7843   2.931   4.121   3.442 -0.0325  0.4307 -0.5775
   17MOL   C132 7844   2.876   4.246   3.374 -0.8014  0.3183  0.5419
   17MOL   O133 7845   2.886   4.353   3.434  0.0204  0.4110  0.7078
   17MOL   H134 7846   3.551   4.024   3.936 -1.0496  0.6189  1.6087
   17MOL   H135 7847   3.580   4.177   4.025 -2.0969  1.3279  0.0753
   17MOL   H136 7848   3.462   4.167   3.742 -1.7954 -0.9590  0.1416
   17MOL   H137 7849   3.491   4.310   3.846 -0.5186 -0.0151 -0.7521
   17MOL   H138 7850   3.327   4.233   4.005  1.0740 -1.1361  0.4855
   17MOL   H139 7851   3.301   4.085   3.925  0.4257  0.2061  0.3957
   17MOL   H140 7852   3.120   4.262   3.880 -2.7980 -0.2556 -3.2218
   17MOL   H141 7853   3.236   4.359   3.786 -0.7256  0.2391 -0.3066
   17MOL   H142 7854   3.112   4.049   3.483  1.2049  0.3711  1.9653
   17MOL   H143 7855   3.121   4.218   3.437  1.1057 -0.3049 -0.5376
   17MOL   H144 7856   2.946   4.043   3.367 -3.8281  0.2648 -1.2384
   17MOL   H145 7857   2.857   4.088   3.516  0.6681  1.0302  0.4103
   17MOL   O146 7858   2.813   4.221   3.254 -0.3136 -0.0990  0.4124
   17MOL   C147 7859   2.746   4.336   3.193 -0.3919  0.2447  0.5440
   17MOL   C148 7860   2.728   4.312   3.039  0.1954  0.0398  0.4469
   17MOL   C149 7861   2.623   4.203   2.997 -0.2570  0.3587  0.5835
   17MOL   C150 7862   2.619   4.195   2.845 -0.6143 -0.0416 -0.2233
   17MOL   O151 7863   2.593   4.322   2.789 -0.4038  0.6333  1.4376
   17MOL   C152 7864   2.481   4.370   2.751  0.3591 -0.3215 -0.5412
   17MOL   O153 7865   2.370   4.313   2.760  0.4722  0.1315 -0.0672
   17MOL   C154 7866   2.491   4.515   2.712  0.2985  0.5211 -0.1209
   17MOL   C155 7867   2.542   4.608   2.824  0.1849 -0.3461  0.0778
   17MOL   C156 7868   2.436   4.652   2.924  0.3101  0.9231  0.1193
   17MOL   O157 7869   2.329   4.702   2.884  0.2436 -0.6534 -0.4877
   17MOL   H158 7870   2.654   4.352   3.248 -0.4721  2.7829 -0.2830
   17MOL   H159 7871   2.808   4.425   3.204 -0.5563  0.4133  0.1393
   17MOL   H160 7872   2.827   4.273   3.017 -0.0736 -2.5628  3.4780
   17MOL   H161 7873   2.707   4.414   3.006  2.3335  0.4551  0.3037
   17MOL   H162 7874   2.526   4.229   3.039 -0.3934  1.8478 -0.6083
   17MOL   H163 7875   2.660   4.106   3.029  1.4101  0.3551 -1.2333
   17MOL   H164 7876   2.711   4.157   2.802 -0.0511  0.2557  0.6984
   17MOL   H165 7877   2.543   4.124   2.814 -0.6733 -0.9360  1.8572
   17MOL   H166 7878   2.395   4.553   2.679  0.5486 -0.2073 -1.7524
   17MOL   H167 7879   2.566   4.513   2.633  0.2965 -0.8829 -0.0969
   17MOL   H168 7880   2.628   4.565   2.876  3.1062  3.1389 -1.6604
   17MOL   H169 7881   2.588   4.695   2.778  0.2751 -0.5189 -0.1610
   17MOL   O170 7882   2.469   4.624   3.054 -0.0255 -0.0517 -0.1605
   17MOL   C171 7883   2.388   4.680   3.156  0.9743 -0.2698  0.1353
   17MOL   C172 7884   2.427   4.618   3.293  0.0357  0.4943 -0.0337
   17MOL   C173 7885   2.343   4.495   3.333  0.3365 -0.3507  0.4716
   17MOL   C174 7886   2.328   4.384   3.218 -0.1063  0.2659  0.5887
   17MOL   O175 7887   2.237   4.279   3.270  0.8381  0.7051 -0.4146
   17MOL   C176 7888   2.186   4.179   3.192  0.6022 -0.6039 -0.8497
   17MOL   O177 7889   2.206   4.163   3.073  0.1561  0.8795 -0.2169
   17MOL   C178 7890   2.094   4.082   3.266  0.0380  0.4570 -0.0797
   17MOL   C179 7891   2.178   3.995   3.368 -0.3401  0.0338  0.2396
   17MOL   C180 7892   2.148   4.015   3.518 -0.6248 -0.5885  0.0215
   17MOL   O181 7893   2.141   3.925   3.599  0.2906  0.2136 -0.0353
   17MOL   H182 7894   2.405   4.787   3.171 -1.1496  0.1484 -0.3825
   17MOL   H183 7895   2.284   4.657   3.134  1.4361 -0.4654 -1.8883
   17MOL   H184 7896   2.402   4.694   3.367  0.4561  1.1608 -0.5547
   17MOL   H185 7897   2.532   4.595   3.312 -0.1805  0.2882  0.9269
   17MOL   H186 7898   2.240   4.527   3.349  0.4087  0.2996 -0.3241
   17MOL   H187 7899   2.381   4.450   3.425 -1.9961 -1.1028  1.0958
   17MOL   H188 7900   2.306   4.420   3.118  0.9869 -0.1335  0.1998
   17MOL   H189 7901   2.423   4.331   3.206 -0.3689  0.4911 -2.9112
   17MOL   H190 7902   2.045   4.017   3.194  0.5168  1.9674 -1.8204
   17MOL   H191 7903   2.017   4.145   3.310  2.8569  3.8041  0.2971
   17MOL   H192 7904   2.157   3.889   3.358 -0.3032 -0.2017  2.5021
   17MOL   H193 7905   2.281   4.024   3.349 -0.5707  0.8550  0.2014
   17MOL   O194 7906   2.132   4.146   3.546  0.8877  0.2694  0.4604
   17MOL   C195 7907   2.097   4.183   3.676  0.2017  0.5552 -0.3174
   17MOL   C196 7908   1.946   4.207   3.685 -0.2900 -0.0268 -0.0034
   17MOL   C197 7909   1.900   4.301   3.574  0.6251 -0.6388 -1.1091
   17MOL   C198 7910   1.980   4.421   3.549  0.0174  0.5797 -0.1984
   17MOL   O199 7911   1.896   4.506   3.471 -0.4859 -0.4031  0.6302
   17MOL   C200 7912   1.950   4.622   3.428  0.2186  0.2902  0.3560
   17MOL   O201 7913   2.065   4.650   3.430  0.0236  0.0118  0.6922
   17MOL   C202 7914   1.836   4.718   3.388  0.3251 -1.0433  0.2279
   17MOL   C203 7915   1.738   4.732   3.504  0.2019 -0.4653 -0.1115
   17MOL   C204 7916   1.621   4.638   3.480 -0.3952  0.6528 -0.3969
   17MOL   O205 7917   1.600   4.542   3.551  0.5507 -0.3363 -0.2331
   17MOL   H206 7918   2.120   4.108   3.752 -1.1332  0.0419 -0.3979
   17MOL   H207 7919   2.153   4.271   3.706  0.3937  0.5058 -0.5369
   17MOL   H208 7920   1.913   4.241   3.784  2.8796 -0.1159  1.1652
   17MOL   H209 7921   1.899   4.109   3.680 -1.2201  0.3347  1.3126
   17MOL   H210 7922   1.798   4.332   3.599  0.7022 -0.5777 -0.8666
   17MOL   H211 7923   1.896   4.252   3.477 -1.2376  1.1036 -1.9592
   17MOL   H212 7924   2.016   4.469   3.640 -2.8842 -0.3870  1.5245
   17MOL   H213 7925   2.071   4.396   3.493  0.3139  1.3588 -0.0674
   17MOL   H214 7926   1.792   4.694   3.291  0.4749  0.8354 -0.3226
   17MOL   H215 7927   1.894   4.809   3.370  3.0610 -2.3044  2.2920
   17MOL   H216 7928   1.773   4.707   3.605  1.0399 -1.0636 -0.5435
   17MOL   H217 7929   1.707   4.836   3.500 -0.9741 -0.8674 -1.6420
   17MOL   O218 7930   1.550   4.676   3.372 -0.0375 -0.0002  1.0429
   17MOL   C219 7931   1.430   4.612   3.340 -0.5108  0.2647  0.0415
   17MOL   C220 7932   1.423   4.570   3.191  0.3142 -0.3344  0.0521
   17MOL   C221 7933   1.554   4.490   3.161 -0.1236  0.2883 -0.7719
   17MOL   C222 7934   1.540   4.427   3.026  0.6206  0.1950  0.5521
   17MOL   O223 7935   1.515   4.507   2.916  0.0836  0.1329 -0.0610
   17MOL   C224 7936   1.473   4.456   2.797 -0.0004 -0.2469 -0.0902
   17MOL   O225 7937   1.455   4.336   2.780 -0.2483  0.3709 -0.1205
   17MOL   C226 7938   1.456   4.557   2.689 -0.4092  0.2571 -0.1269
   17MOL   C227 7939   1.579   4.619   2.625 -0.4607  0.2666 -0.1123
   17MOL   C228 7940   1.584   4.771   2.648  0.2445 -0.9317 -0.0753
   17MOL   O229 7941   1.559   4.859   2.567  0.6702 -0.4665 -0.1700
   17MOL   H230 7942   1.416   4.523   3.401 -2.1671  1.3457  1.2639
   17MOL   H231 7943   1.349   4.677   3.372  0.0247  0.5340  0.8527
   17MOL   H232 7944   1.436   4.664   3.136 -2.0877  0.3655  0.6469
   17MOL   H233 7945   1.332   4.525   3.152  0.3903 -0.6249  0.2141
   17MOL   H234 7946   1.571   4.415   3.238  0.8398 -0.4195 -1.6584
   17MOL   H235 7947   1.636   4.561   3.166  1.0903 -1.2657  3.2104
   17MOL   H236 7948   1.618   4.352   3.012 -0.7863 -1.2198  0.2347
   17MOL   H237 7949   1.451   4.364   3.032 -1.0808  2.5054  0.3888
   17MOL   H238 7950   1.386   4.634   2.723 -0.4638 -0.0525  0.4624
   17MOL   H239 7951   1.405   4.505   2.608  1.0582  0.8195 -1.4665
   17MOL   H240 7952   1.667   4.568   2.666 -0.1406 -1.4333 -2.7497
   17MOL   H241 7953   1.593   4.610   2.517  3.9878 -2.8791  0.5875
   17MOL   O242 7954   1.635   4.797   2.772 -0.0422  0.2264 -0.2443
   17MOL   C243 7955   1.646   4.931   2.816  0.5112  0.7704  0.0255
   17MOL   C244 7956   1.616   4.956   2.964 -0.2063 -0.2742 -0.5077
   17MOL   C245 7957   1.465   4.934   2.998  0.2262 -0.3019 -0.0619
   17MOL   C246 7958   1.448   4.949   3.152  0.0544 -0.5542 -0.6472
   17MOL   O247 7959   1.432   5.082   3.198 -0.5577  0.4475  0.0700
   17MOL   C248 7960   1.311   5.151   3.170  0.8941  0.1416 -0.6863
   17MOL   O249 7961   1.198   5.105   3.151  0.2149 -0.0718  0.6595
   17MOL   C250 7962   1.331   5.297   3.209  1.0572 -0.3334 -0.2186
   17MOL   C251 7963   1.453   5.368   3.134 -0.0466  0.2168 -0.1941
   17MOL   C252 7964   1.415   5.460   3.021 -0.4480  0.2801 -1.0612
   17MOL   O253 7965   1.303   5.506   3.007 -0.2168 -0.2003 -0.4898
   17MOL   H254 7966   1.749   4.961   2.795  0.6968 -1.1662 -2.1164
   17MOL   H255 7967   1.583   5.001   2.761  0.6643  0.2302 -0.8581
   17MOL   H256 7968   1.632   5.058   2.999 -1.4209  0.0850 -0.9681
   17MOL   H257 7969   1.667   4.886   3.030 -2.3303 -1.7532 -0.3767
   17MOL   H258 7970   1.434   4.834   2.969 -0.9081  0.0969 -0.2316
   17MOL   H259 7971   1.400   5.002   2.944  0.3520 -0.5351 -0.5041
   17MOL   H260 7972   1.369   4.877   3.177 -1.6959  0.2357 -3.6330
   17MOL   H261 7973   1.535   4.909   3.203  0.4807 -0.1087 -1.0302
   17MOL   H262 7974   1.329   5.302   3.318  0.4075  0.5314 -0.2631
   17MOL   H263 7975   1.238   5.345   3.178  0.5471 -0.4917  1.0383
   17MOL   H264 7976   1.511   5.432   3.201 -2.9124  0.1826  2.4190
   17MOL   H265 7977   1.524   5.291   3.103  1.2051  0.8689  0.9744
   17MOL   O266 7978   1.516   5.481   2.942 -0.0884  0.0468 -0.1837
   17MOL   C267 7979   1.508   5.572   2.835  0.5595  0.1379 -1.2572
   17MOL   C268 7980   1.637   5.634   2.795  0.0582 -0.4801 -0.1743
   17MOL   C269 7981   1.688   5.739   2.897  0.2008  0.3070  0.0870
   17MOL   C270 7982   1.830   5.796   2.866  0.0780 -0.2214  0.0427
   17MOL   O271 7983   1.838   5.906   2.781  0.5757  0.1928 -0.0808
   17MOL   C272 7984   1.940   5.987   2.774 -0.3187  0.2195  0.3406
   17MOL   O273 7985   2.040   5.981   2.841  0.2338 -0.0692 -0.2910
   17MOL   C274 7986   1.920   6.106   2.684 -0.3216  0.5495 -0.8356
   17MOL   C275 7987   2.052   6.140   2.606  0.2147 -0.0346  0.4769
   17MOL   C276 7988   2.066   6.075   2.467  0.2604 -0.0465  0.2914
   17MOL   O277 7989   2.138   5.981   2.444 -0.2830 -0.4742 -0.0449
   17MOL   H278 7990   1.465   5.526   2.746  2.5961 -0.3495 -2.0107
   17MOL   H279 7991   1.435   5.648   2.863  1.0353  0.0553  0.2608
   17MOL   H280 7992   1.626   5.689   2.701 -5.3308  0.4260  0.8360
   17MOL   H281 7993   1.710   5.555   2.777  0.1627  0.3280 -3.5530
   17MOL   H282 7994   1.687   5.700   2.999 -1.1164  1.7175  0.6178
   17MOL   H283 7995   1.612   5.816   2.891  0.4310  0.4760 -0.6737
   17MOL   H284 7996   1.888   5.811   2.957  0.0776  0.2971 -0.0400
   17MOL   H285 7997   1.875   5.718   2.805 -2.3835 -0.5731 -1.4132
   17MOL   H286 7998   1.881   6.186   2.746  1.7011 -0.2021  1.4676
   17MOL   H287 7999   1.838   6.094   2.612 -2.3160  0.4094  1.3910
   17MOL   H288 8000   2.052   6.248   2.587  0.9112  0.1311  1.4098
   17MOL   H289 8001   2.144   6.109   2.655  1.4305  0.7282 -1.2498
   17MOL   O290 8002   1.987   6.125   2.377 -0.0412 -0.7609 -0.3333
   17MOL   C291 8003   1.969   6.067   2.245 -0.2694  0.0473 -0.2895
   17MOL   C292 8004   2.032   6.162   2.152  0.4838 -0.3672  0.4405
   17MOL   C293 8005   1.954   6.293   2.127  0.1576 -0.1882 -0.0273
   17MOL   C294 8006   2.037   6.396   2.041 -0.5899  0.4606 -0.1668
   17MOL   O295 8007   1.982   6.524   2.049  0.0361 -0.3260 -0.2652
   17MOL   C296 8008   1.879   6.553   1.965  0.5866 -0.1714  0.3054
   17MOL   O297 8009   1.842   6.487   1.872 -0.1104 -0.3369  0.1718
   17MOL   C298 8010   1.816   6.690   1.999 -0.0208 -0.2315  0.0561
   17MOL   C299 8011   1.715   6.703   2.112  0.4816 -0.0064 -0.4523
   17MOL   C300 8012   1.584   6.627   2.102 -0.8536  0.8245  0.1561
   17MOL   O301 8013   1.529   6.562   2.195 -0.3785  0.5263 -0.6861
   17MOL   H302 8014   1.996   5.961   2.251 -2.0012 -0.3377  1.0126
   17MOL   H303 8015   1.863   6.058   2.220  0.1688  1.7794 -3.0022
   17MOL   H304 8016   2.041   6.107   2.058  1.0026  0.2899  0.1026
   17MOL   H305 8017   2.131   6.177   2.194 -0.6335  0.7679  2.7216
   17MOL   H306 8018   1.945   6.343   2.224 -1.0046 -2.0583  0.8737
   17MOL   H307 8019   1.857   6.277   2.080  0.6049 -3.0270 -0.1022
   17MOL   H308 8020   2.141   6.394   2.074 -0.5269  0.8267 -0.3417
   17MOL   H309 8021   2.042   6.356   1.939  1.8648  0.6907 -0.1756
   17MOL   H310 8022   1.770   6.705   1.902  1.3007 -0.9922 -0.7019
   17MOL   H311 8023   1.893   6.768   1.999 -0.2352 -0.0141  0.5986
   17MOL   H312 8024   1.772   6.663   2.196 -0.2849  1.2485  0.7064
   17MOL   H313 8025   1.700   6.809   2.135 -0.3109 -0.3825  0.8283
   17MOL   O314 8026   1.533   6.635   1.974  0.1025  0.5695  0.2996
   17MOL   C315 8027   1.431   6.535   1.939  0.8655  0.4245 -0.0172
   17MOL   C316 8028   1.487   6.444   1.838 -0.1366  0.1164 -0.0282
   17MOL   C317 8029   1.383   6.376   1.750 -0.2815 -0.4054 -0.4567
   17MOL   C318 8030   1.438   6.256   1.666 -0.3293 -0.4535  0.0284
   17MOL   O319 8031   1.476   6.154   1.751  0.0087  0.0694  0.0563
   17MOL   C320 8032   1.396   6.066   1.801 -0.1250 -0.0776  0.1738
   17MOL   O321 8033   1.278   6.060   1.760 -0.6494  0.7901 -0.0484
   17MOL   C322 8034   1.462   5.963   1.896 -0.5060  0.2426 -0.2259
   17MOL   C323 8035   1.564   6.030   1.990 -0.0199  0.3033  0.3421
   17MOL   C324 8036   1.502   6.098   2.107 -0.1605  0.0323 -0.4285
   17MOL   O325 8037   1.382   6.093   2.126  0.2568  0.3380 -0.2042
   17MOL   H326 8038   1.386   6.490   2.027  3.6414  0.6753  1.5993
   17MOL   H327 8039   1.354   6.600   1.895 -0.1410  0.2397  1.4520
   17MOL   H328 8040   1.532   6.359   1.891 -1.0613  0.1630  0.8456
   17MOL   H329 8041   1.569   6.496   1.789 -0.7586  0.9669 -0.1813
   17MOL   H330 8042   1.338   6.449   1.682  0.8231 -0.3262 -1.1215
   17MOL   H331 8043   1.296   6.351   1.810 -2.1727  0.8852 -2.5919
   17MOL   H332 8044   1.371   6.215   1.590 -0.2780  0.0820 -0.3127
   17MOL   H333 8045   1.526   6.286   1.610 -0.7229  0.0273 -0.3470
   17MOL   H334 8046   1.508   5.882   1.840 -1.8981 -1.0092  0.3920
   17MOL   H335 8047   1.384   5.914   1.955 -1.4098 -0.5542 -2.0738
   17MOL   H336 8048   1.641   5.958   2.018  0.1303  0.5070  0.4631
   17MOL   H337 8049   1.625   6.109   1.945  1.5994  0.7971  3.2283
   17MOL   O338 8050   1.592   6.172   2.174  0.3639 -0.8369 -0.4271
   17MOL   C339 8051   1.553   6.221   2.301  0.0723 -0.2056 -0.0169
   17MOL   C340 8052   1.682   6.221   2.395 -0.3320 -0.1941  0.2477
   17MOL   C341 8053   1.653   6.290   2.528  0.6240  0.3552 -0.5038
   17MOL   C342 8054   1.670   6.445   2.521  0.2593  0.0600 -0.2094
   17MOL   O343 8055   1.644   6.517   2.644 -0.1400  0.0950  0.0756
   17MOL   C344 8056   1.720   6.515   2.748 -0.4804  0.2337 -0.2113
   17MOL   O345 8057   1.822   6.446   2.763 -0.2577 -0.0950  0.3456
   17MOL   C346 8058   1.673   6.617   2.845  0.3229  0.0867 -0.6382
   17MOL   C347 8059   1.779   6.673   2.934 -0.4652  0.1062  0.3257
   17MOL   C348 8060   1.735   6.797   2.992  0.9585  0.5580  0.3442
   17MOL   O349 8061   1.744   6.900   2.927  0.1279  0.1117 -0.4500
   17MOL   H350 8062   1.516   6.324   2.295 -2.1467 -1.1097 -2.8238
   17MOL   H351 8063   1.468   6.168   2.343  0.3749  1.3065  2.6498
   17MOL   H352 8064   1.766   6.276   2.352 -0.2172  0.7645  1.6610
   17MOL   H353 8065   1.728   6.124   2.413 -0.3072 -0.1675  0.3324
   17MOL   H354 8066   1.716   6.244   2.604  0.4631  2.2515  0.8344
   17MOL   H355 8067   1.556   6.268   2.572  2.2551 -3.3553  1.4746
   17MOL   H356 8068   1.769   6.470   2.481 -0.2666 -1.1509 -2.3531
   17MOL   H357 8069   1.592   6.485   2.456 -0.6455 -2.7819 -0.9485
   17MOL   H358 8070   1.592   6.562   2.892  0.2727  1.2260  0.6616
   17MOL   H359 8071   1.627   6.701   2.793 -2.7192 -0.7657  0.5981
   17MOL   H360 8072   1.804   6.597   3.009 -0.5771 -0.6404 -0.3835
   17MOL   H361 8073   1.871   6.685   2.877  0.0806  0.8950  1.3540
   17MOL   O362 8074   1.696   6.779   3.116  0.1432  0.1687  0.0062
   17MOL   C363 8075   1.651   6.891   3.197 -0.7271  0.0300 -0.3679
   17MOL   C364 8076   1.493   6.908   3.190  0.5552  0.8382 -0.4542
   17MOL   C365 8077   1.441   7.013   3.290 -1.0702 -0.1226  0.1007
   17MOL   C366 8078   1.420   6.954   3.434  0.5295  0.1314 -0.5209
   17MOL   O367 8079   1.372   7.065   3.512  0.5700 -0.2195  0.2520
   17MOL   C368 8080   1.335   7.038   3.635  0.1414  1.0069 -0.1228
   17MOL   O369 8081   1.327   6.927   3.688 -0.2679  0.5156 -0.1657
   17MOL   C370 8082   1.291   7.158   3.723  0.5972  0.6680 -0.2167
   17MOL   C371 8083   1.320   7.145   3.873 -0.1017  0.6229 -0.0762
   17MOL   C372 8084   1.467   7.161   3.900  0.4484 -0.8719  0.0801
   17MOL   O373 8085   1.534   7.242   3.841 -0.6064  0.2882  1.1653
   17MOL   H374 8086   1.683   6.870   3.299 -2.5557  2.4169  0.7396
   17MOL   H375 8087   1.713   6.976   3.169 -0.4241 -0.0816 -0.0449
   17MOL   H376 8088   1.455   6.811   3.222  0.7440  0.0822 -2.4776
   17MOL   H377 8089   1.457   6.923   3.089  0.6833  2.2281 -0.3004
   17MOL   H378 8090   1.351   7.052   3.244 -0.7917  0.2992 -0.0867
   17MOL   H379 8091   1.518   7.090   3.294  2.9724 -3.9114 -0.7031
   17MOL   H380 8092   1.343   6.878   3.424 -1.3955  2.2015 -2.1512
   17MOL   H381 8093   1.514   6.929   3.483 -0.7542 -2.8068  0.5168
   17MOL   H382 8094   1.185   7.176   3.706  0.2204 -2.3516 -1.4459
   17MOL   H383 8095   1.348   7.245   3.689 -0.4829  0.6994 -2.0676
   17MOL   H384 8096   1.257   7.221   3.920 -0.3379  1.5653 -1.8512
   17MOL   H385 8097   1.273   7.052   3.904 -0.8200  0.2575 -2.1887
   17MOL   O386 8098   1.508   7.077   3.996 -0.4946  0.0267 -0.1317
   17MOL   C387 8099   1.640   7.075   4.045  0.6013 -0.7516  0.3083
   17MOL   C388 8100   1.723   6.959   3.973 -0.0084  0.0201 -0.0329
   17MOL   C389 8101   1.874   6.970   4.000  0.4862  0.1995  0.1742
   17MOL   C390 8102   1.949   6.856   3.923  1.1139 -0.5093  0.4806
   17MOL   O391 8103   2.085   6.885   3.934  0.2664 -0.3620 -0.3137
   17MOL   C392 8104   2.165   6.776   3.928 -0.3169 -0.1500  0.9239
   17MOL   O393 8105   2.130   6.662   3.937 -0.3690  0.0933 -0.1001
   17MOL   C394 8106   2.311   6.808   3.906 -0.0295 -0.5152 -0.3697
   17MOL   C395 8107   2.340   6.839   3.756  0.2945  0.1302 -0.2286
   17MOL   C396 8108   2.490   6.820   3.709  0.3904 -0.0998  0.4109
   17MOL   O397 8109   2.535   6.877   3.609 -0.5161  0.0350  0.2073
   17MOL   H398 8110   1.696   7.165   4.023  2.7931 -2.4585 -1.4115
   17MOL   H399 8111   1.628   7.064   4.153  0.0142 -1.4744  0.1783
   17MOL   H400 8112   1.707   6.961   3.865 -0.0578 -1.8588 -0.0781
   17MOL   H401 8113   1.692   6.858   3.998  2.3238 -0.6002  0.5115
   17MOL   H402 8114   1.895   6.950   4.105 -1.8075 -0.4635  0.5273
   17MOL   H403 8115   1.914   7.067   3.969  1.2657 -0.7563 -1.9111
   17MOL   H404 8116   1.912   6.763   3.966 -0.8327 -0.1598 -0.3503
   17MOL   H405 8117   1.932   6.856   3.815  0.3926  1.2765  0.5737
   17MOL   H406 8118   2.374   6.733   3.953 -0.1836  0.4341  1.3765
   17MOL   H407 8119   2.336   6.897   3.964  2.7697 -0.8053 -1.0912
   17MOL   H408 8120   2.282   6.774   3.689  1.0487  1.2326 -1.9861
   17MOL   H409 8121   2.320   6.944   3.737 -0.2601 -0.4311 -2.9647
   17MOL   O410 8122   2.560   6.739   3.789 -0.0764 -0.3875  0.5361
   17MOL   C411 8123   2.694   6.703   3.755  0.1455  0.3405 -0.0919
   17MOL   C412 8124   2.702   6.561   3.812 -0.0803  0.0696  0.4556
   17MOL   C413 8125   2.817   6.487   3.740 -0.5325  0.1007  0.2458
   17MOL   C414 8126   2.836   6.340   3.801  0.2209 -0.3454 -0.5864
   17MOL   O415 8127   2.941   6.269   3.742  1.1983 -0.5905  0.0015
   17MOL   C416 8128   3.068   6.295   3.793  0.2089  0.5241  0.3285
   17MOL   O417 8129   3.095   6.365   3.891 -0.2338 -0.7410  0.1718
   17MOL   C418 8130   3.180   6.234   3.714 -0.8062  0.1537 -0.1481
   17MOL   C419 8131   3.313   6.312   3.711  0.1978 -0.3320  0.8492
   17MOL   C420 8132   3.355   6.324   3.565  0.0224  0.6881 -0.1875
   17MOL   O421 8133   3.458   6.277   3.524 -0.3414 -0.4081  0.1754
   17MOL   H422 8134   2.712   6.713   3.648 -3.0197  0.1979 -0.6986
   17MOL   H423 8135   2.766   6.757   3.816 -0.3003 -1.1920  1.8459
   17MOL   H424 8136   2.612   6.503   3.791 -1.0881  1.2386  1.5017
   17MOL   H425 8137   2.724   6.566   3.919  0.0488 -0.8695  0.4785
   17MOL   H426 8138   2.913   6.532   3.763 -0.2418 -0.5234  0.2704
   17MOL   H427 8139   2.811   6.472   3.632  1.1399 -0.4444  0.2181
   17MOL   H428 8140   2.860   6.367   3.903 -0.9877 -0.0496 -0.3731
   17MOL   H429 8141   2.751   6.272   3.794 -0.5214  0.4483  0.5589
   17MOL   H430 8142   3.151   6.190   3.618  0.6740 -1.9435  0.3264
   17MOL   H431 8143   3.195   6.144   3.774 -1.4923 -1.1013 -1.8019
   17MOL   H432 8144   3.296   6.415   3.744 -1.0452 -0.1736 -0.2568
   17MOL   H433 8145   3.393   6.263   3.767  3.9771  2.2758 -1.9398
   17MOL   O434 8146   3.257   6.386   3.496 -0.2988  0.1474 -0.2368
   17MOL   C435 8147   3.285   6.410   3.359  0.3868  0.2760  0.4100
   17MOL   C436 8148   3.249   6.276   3.284 -0.5190 -0.0499 -0.4118
   17MOL   C437 8149   3.254   6.314   3.135 -0.1359 -0.1842 -0.2526
   17MOL   C438 8150   3.189   6.209   3.048  0.1495 -0.5378 -0.0862
   17MOL   O439 8151   3.054   6.220   3.058  0.3347  0.6642  0.3661
   17MOL   C440 8152   2.977   6.239   2.947 -0.4878 -0.6817  0.2596
   17MOL   O441 8153   3.023   6.256   2.832 -0.2623  0.0887 -0.3245
   17MOL   C442 8154   2.823   6.229   2.967  0.0592 -0.1459 -0.1289
   17MOL   C443 8155   2.779   6.287   3.099  0.2424 -1.0045  0.4221
   17MOL   C444 8156   2.726   6.433   3.092  0.7404 -0.1497  0.0985
   17MOL   O445 8157   2.774   6.506   3.008 -0.1392 -0.0510 -0.0412
   17MOL   H446 8158   3.211   6.486   3.332  0.3797 -0.0381 -0.4898
   17MOL   H447 8159   3.386   6.441   3.332  0.6816 -1.4161 -0.5354
   17MOL   H448 8160   3.145   6.260   3.315 -0.8713  2.4648 -0.1381
   17MOL   H449 8161   3.309   6.190   3.312 -0.6488 -0.2521 -0.7580
   17MOL   H450 8162   3.358   6.309   3.100 -0.3086 -0.6767 -0.7144
   17MOL   H451 8163   3.213   6.410   3.107  0.0280  0.1490  0.6368
   17MOL   H452 8164   3.232   6.212   2.948 -2.1294  5.0346 -1.0439
   17MOL   H453 8165   3.224   6.110   3.079  4.4059  0.5709 -1.0352
   17MOL   H454 8166   2.803   6.124   2.949  1.4277 -0.4703  0.1959
   17MOL   H455 8167   2.777   6.289   2.888 -1.1978  0.1484  0.8198
   17MOL   H456 8168   2.709   6.214   3.139 -0.0176 -0.6164  0.6742
   17MOL   H457 8169   2.855   6.303   3.175 -1.1589 -0.1896  1.6780
   17MOL   O458 8170   2.643   6.458   3.189 -0.2509 -0.6992 -0.4510
   17MOL   C459 8171   2.609   6.592   3.222 -0.2246  0.5042  0.7690
   17MOL   C460 8172   2.478   6.609   3.297 -0.3121 -0.3569 -0.5927
   17MOL   C461 8173   2.485   6.554   3.439  0.6103 -0.2069  0.1664
   17MOL   C462 8174   2.357   6.560   3.518  0.7560  0.6264 -0.6624
   17MOL   O463 8175   2.378   6.492   3.638 -0.4726  0.3629 -0.1109
   17MOL   C464 8176   2.273   6.438   3.700 -0.4485  0.5232 -0.1679
   17MOL   O465 8177   2.157   6.432   3.666  0.3396  0.7712  0.3279
   17MOL   C466 8178   2.310   6.388   3.835 -0.3770 -0.3776 -0.0925
   17MOL   C467 8179   2.438   6.295   3.828 -0.1836 -0.0440 -0.4500
   17MOL   C468 8180   2.397   6.149   3.841  0.3812  0.4202 -0.2291
   17MOL   O469 8181   2.281   6.113   3.827 -0.1824  0.1785  0.0360
   17MOL   H470 8182   2.689   6.644   3.275  1.6230 -0.0446 -1.3737
   17MOL   H471 8183   2.600   6.649   3.129 -2.3541 -0.4874  0.3369
   17MOL   H472 8184   2.400   6.555   3.244  0.8191 -1.8041 -0.8088
   17MOL   H473 8185   2.447   6.713   3.300  0.8122  0.0920 -3.2021
   17MOL   H474 8186   2.558   6.608   3.499  1.1601  1.5074 -1.9769
   17MOL   H475 8187   2.517   6.449   3.439 -0.5818 -0.5792  1.1550
   17MOL   H476 8188   2.320   6.660   3.541 -1.6720  0.3029 -2.9223
   17MOL   H477 8189   2.273   6.520   3.462 -1.2725  1.5863  1.5835
   17MOL   H478 8190   2.227   6.345   3.891  1.3999 -1.8195  1.4980
   17MOL   H479 8191   2.336   6.472   3.898 -0.7586  2.8989 -4.0981
   17MOL   H480 8192   2.498   6.306   3.738  1.5283  1.2274  0.7933
   17MOL   H481 8193   2.496   6.321   3.917  0.7719 -1.6539 -0.5709
   17MOL   H482 8194   2.473   6.073   3.862 -1.4717 -1.0446  1.4031
   18MOL     O1 8195   7.148   2.502   7.089  0.6386  0.2893 -0.0068
   18MOL     C2 8196   7.162   2.372   7.027 -0.6713  0.4305 -0.0312
   18MOL     C3 8197   7.231   2.388   6.895 -0.1695 -0.5575  0.2219
   18MOL     C4 8198   7.148   2.468   6.796  0.2880 -0.0196 -0.4004
   18MOL     C5 8199   7.216   2.465   6.658 -0.7885  0.3886  0.4330
   18MOL     O6 8200   7.160   2.562   6.576  0.0659 -0.0043  0.7122
   18MOL     C7 8201   7.207   2.570   6.452 -0.4546  0.3405  0.0938
   18MOL     O8 8202   7.300   2.509   6.401 -0.4318 -0.2548  0.0540
   18MOL     C9 8203   7.122   2.671   6.367  0.3865 -0.0118 -0.4817
   18MOL    C10 8204   7.214   2.763   6.279  0.2221  0.3805 -0.5807
   18MOL    C11 8205   7.153   2.774   6.135  0.4453 -0.3786 -0.5220
   18MOL    O12 8206   7.065   2.857   6.117  0.0985 -0.1917  0.0575
   18MOL    H13 8207   7.225   2.331   7.106 -2.4070  0.8930  1.6343
   18MOL    H14 8208   7.070   2.314   7.031 -1.4206  1.6651  1.0645
   18MOL    H15 8209   7.244   2.289   6.852 -1.1448 -0.6106  0.0366
   18MOL    H16 8210   7.327   2.434   6.919 -0.9759  1.1113  0.3430
   18MOL    H17 8211   7.130   2.570   6.832  1.3160  0.8034 -2.1432
   18MOL    H18 8212   7.052   2.418   6.782 -1.6409  2.7965  2.0136
   18MOL    H19 8213   7.322   2.488   6.666 -0.3340 -2.1806  2.6161
   18MOL    H20 8214   7.206   2.367   6.610 -0.7305  0.6221 -0.0575
   18MOL    H21 8215   7.056   2.735   6.427  1.2342  1.3484 -0.9737
   18MOL    H22 8216   7.062   2.605   6.305 -0.0870 -0.9786  0.9881
   18MOL    H23 8217   7.234   2.862   6.320  3.0511  0.1082 -1.2121
   18MOL    H24 8218   7.314   2.719   6.275  0.1402  0.1517 -0.1028
   18MOL    H25 8219   7.174   2.502   7.180 -3.1521  0.3807  1.1466
   18MOL    O26 8220   7.208   2.692   6.053  0.0594  0.5364 -0.2743
   18MOL    C27 8221   7.166   2.691   5.916 -0.6204  0.4916 -0.7302
   18MOL    C28 8222   7.208   2.557   5.856 -0.0495 -0.3940 -0.0506
   18MOL    C29 8223   7.170   2.440   5.948  0.2555 -0.2014 -0.5131
   18MOL    C30 8224   7.159   2.316   5.871 -0.2297  0.4409 -0.4590
   18MOL    O31 8225   7.282   2.298   5.816 -0.4750  0.1373  0.7767
   18MOL    C32 8226   7.374   2.228   5.879  0.1720 -0.8011 -0.3056
   18MOL    O33 8227   7.358   2.172   5.991 -0.3538 -0.0135 -0.0833
   18MOL    C34 8228   7.497   2.191   5.799 -0.2254  0.5592  0.3818
   18MOL    C35 8229   7.582   2.315   5.776 -0.2103 -1.0064 -0.2023
   18MOL    C36 8230   7.573   2.369   5.634 -0.4235 -0.5866  0.0699
   18MOL    O37 8231   7.493   2.455   5.590 -0.2136  0.0398 -0.3820
   18MOL    H38 8232   7.057   2.691   5.925 -0.9283 -2.9547 -3.4619
   18MOL    H39 8233   7.199   2.776   5.857 -0.8265 -0.8587 -2.8177
   18MOL    H40 8234   7.315   2.545   5.842 -0.2839 -0.8924 -1.4293
   18MOL    H41 8235   7.159   2.552   5.759  0.5078 -2.0603 -0.2741
   18MOL    H42 8236   7.074   2.447   6.000  0.4996 -0.0518 -0.0782
   18MOL    H43 8237   7.242   2.424   6.028 -1.3594  1.8077  1.4235
   18MOL    H44 8238   7.115   2.231   5.922  1.1938 -0.7383 -1.1791
   18MOL    H45 8239   7.089   2.322   5.787  0.8178  0.3297 -1.3441
   18MOL    H46 8240   7.471   2.138   5.707  1.4299  1.9531 -0.9257
   18MOL    H47 8241   7.547   2.122   5.867  0.2496  1.0367  0.5159
   18MOL    H48 8242   7.550   2.403   5.832  0.3929  1.6191 -3.8204
   18MOL    H49 8243   7.685   2.290   5.803 -0.0555 -1.7144 -1.4296
   18MOL    O50 8244   7.669   2.317   5.556  0.5432  0.2205  0.0775
   18MOL    C51 8245   7.699   2.377   5.432 -0.3633 -0.2948  0.4463
   18MOL    C52 8246   7.818   2.298   5.373  0.7332  0.7470 -0.1073
   18MOL    C53 8247   7.830   2.328   5.226 -0.0323 -0.7580  0.9145
   18MOL    C54 8248   0.083   2.273   5.162  0.1767 -0.0839  0.6630
   18MOL    O55 8249   0.200   2.340   5.203  0.4107  0.0115  0.4206
   18MOL    C56 8250   0.290   2.279   5.279  0.0255  0.2874  0.2915
   18MOL    O57 8251   0.291   2.160   5.315  0.0891 -0.2323  0.0139
   18MOL    C58 8252   0.397   2.374   5.335  0.2615 -0.4572  0.4427
   18MOL    C59 8253   0.339   2.455   5.457 -0.3381  0.4396  0.2991
   18MOL    C60 8254   0.398   2.599   5.468  0.0097 -0.6559  0.3866
   18MOL    O61 8255   0.332   2.691   5.515 -0.1170  0.3524 -0.1138
   18MOL    H62 8256   7.620   2.363   5.357  1.2217  0.6515 -1.4461
   18MOL    H63 8257   7.724   2.483   5.445 -0.3025 -0.2458 -0.0599
   18MOL    H64 8258   7.792   2.192   5.376  0.3369  0.8544  0.3820
   18MOL    H65 8259   0.040   2.314   5.421 -0.5043  2.4801  1.8753
   18MOL    H66 8260   7.838   2.436   5.216  1.7273 -0.8419  1.3536
   18MOL    H67 8261   7.741   2.302   5.168 -0.9856 -3.7728  3.5930
   18MOL    H68 8262   0.090   2.165   5.172  0.2384 -0.1662 -0.2342
   18MOL    H69 8263   0.078   2.296   5.056 -0.1495  1.5939  1.0343
   18MOL    H70 8264   0.415   2.446   5.255 -2.8422  0.6871  0.7257
   18MOL    H71 8265   0.479   2.319   5.381  0.5959 -1.1226 -0.9094
   18MOL    H72 8266   0.231   2.463   5.458 -0.3802 -0.0815  0.4055
   18MOL    H73 8267   0.358   2.414   5.557 -1.5249  1.8227  1.0988
   18MOL    O74 8268   0.522   2.610   5.418 -0.4467  0.0413  0.1861
   18MOL    C75 8269   0.609   2.723   5.441 -0.4011 -0.1885  0.3274
   18MOL    C76 8270   0.739   2.682   5.509 -0.0214 -0.5393  0.1267
   18MOL    C77 8271   0.828   2.801   5.542  0.3148 -0.4396  0.3089
   18MOL    C78 8272   0.962   2.745   5.602 -0.1095  0.5217 -0.6396
   18MOL    O79 8273   0.941   2.696   5.734 -0.0468  0.3529 -0.6328
   18MOL    C80 8274   1.036   2.673   5.821 -0.2445 -0.0718  0.5921
   18MOL    O81 8275   1.148   2.715   5.807  0.1009  0.0011 -0.7534
   18MOL    C82 8276   0.990   2.585   5.940 -0.6272  0.0295  0.1704
   18MOL    C83 8277   0.921   2.451   5.895  0.5587 -0.0373  0.4571
   18MOL    C84 8278   1.014   2.333   5.895  0.0929 -0.3778  0.2033
   18MOL    O85 8279   1.028   2.273   5.788  0.0154  0.7339  0.2159
   18MOL    H86 8280   0.634   2.776   5.349 -3.2602 -1.2257 -1.1065
   18MOL    H87 8281   0.555   2.785   5.513 -0.0039 -0.7302  1.1024
   18MOL    H88 8282   0.801   2.619   5.445 -0.8674 -2.2624  0.9573
   18MOL    H89 8283   0.719   2.624   5.599  1.7549 -0.9387  0.2850
   18MOL    H90 8284   0.780   2.878   5.602  0.7864  0.4203 -0.3876
   18MOL    H91 8285   0.844   2.844   5.443 -1.3566  3.1612  1.5445
   18MOL    H92 8286   1.006   2.662   5.545  0.5978 -0.4584  1.3019
   18MOL    H93 8287   1.032   2.828   5.609  1.3122 -0.4651 -2.5091
   18MOL    H94 8288   0.930   2.636   6.015  0.0174 -0.9458  1.3632
   18MOL    H95 8289   1.081   2.556   5.992 -0.8507 -0.2993  0.3805
   18MOL    H96 8290   0.846   2.422   5.969  2.0131 -2.0488  1.2002
   18MOL    H97 8291   0.872   2.461   5.799  0.9808 -0.5727  0.1833
   18MOL    O98 8292   1.066   2.296   6.014 -0.0641  0.2295  0.0576
   18MOL    C99 8293   1.161   2.189   6.008 -0.1747  0.0771 -0.0687
   18MOL   C100 8294   1.314   2.236   5.996  0.2702  0.0566  0.2140
   18MOL   C101 8295   1.358   2.324   6.110 -0.4453  0.7537 -0.4557
   18MOL   C102 8296   1.293   2.460   6.116 -0.4693  0.1768  0.1426
   18MOL   O103 8297   1.338   2.538   6.002  0.3637  0.0138  0.1212
   18MOL   C104 8298   1.454   2.617   6.018  0.0083  0.2165  0.2811
   18MOL   O105 8299   1.519   2.638   6.121 -0.1042 -0.0308 -0.3933
   18MOL   C106 8300   1.499   2.697   5.892  0.3437 -0.3453 -0.5247
   18MOL   C107 8301   1.642   2.675   5.855 -0.4882  0.0572  0.6896
   18MOL   C108 8302   1.671   2.731   5.718  0.0552  0.6112 -1.3226
   18MOL   O109 8303   1.586   2.801   5.662 -0.4479 -0.0791 -0.0936
   18MOL   H110 8304   1.150   2.132   6.100  0.1064 -1.3273 -0.8893
   18MOL   H111 8305   1.132   2.113   5.935 -2.6525  0.0733  0.8901
   18MOL   H112 8306   1.319   2.292   5.902 -0.8626 -0.7803 -0.3570
   18MOL   H113 8307   1.381   2.151   5.983 -0.7561 -0.8979  1.0483
   18MOL   H114 8308   1.467   2.333   6.113 -0.5028  1.3151 -0.1156
   18MOL   H115 8309   1.332   2.272   6.202  0.4012 -1.4106 -1.3939
   18MOL   H116 8310   1.184   2.459   6.113 -0.4945 -0.4343  1.0883
   18MOL   H117 8311   1.314   2.525   6.200 -0.9377 -0.6843  0.9432
   18MOL   H118 8312   1.489   2.801   5.922 -0.5857 -1.0494  1.6789
   18MOL   H119 8313   1.440   2.688   5.800 -0.4383  1.8936 -0.2694
   18MOL   H120 8314   1.697   2.735   5.928  0.3867  1.0251 -0.7377
   18MOL   H121 8315   1.663   2.569   5.871 -1.4803 -0.0876  1.1184
   18MOL   O122 8316   1.796   2.683   5.668  0.6289  0.2500 -0.0782
   18MOL   C123 8317   1.832   2.718   5.538  0.9958  0.1656  0.0221
   18MOL   C124 8318   1.861   2.593   5.449  0.4904 -0.0617 -0.5825
   18MOL   C125 8319   1.921   2.626   5.309  0.4405  0.6646 -0.7835
   18MOL   C126 8320   1.904   2.535   5.186  0.0254 -0.1234 -0.6271
   18MOL   O127 8321   2.014   2.545   5.096  0.1434 -0.6241  0.0481
   18MOL   C128 8322   2.033   2.454   4.990  0.8843  0.2898  0.1290
   18MOL   O129 8323   1.961   2.362   4.961  0.6360 -0.1900  0.1966
   18MOL   C130 8324   2.156   2.504   4.906 -0.5137 -0.3666 -0.1193
   18MOL   C131 8325   2.172   2.458   4.757  0.2081  0.7818 -0.4758
   18MOL   C132 8326   2.310   2.419   4.733  0.4972 -0.2131  0.4750
   18MOL   O133 8327   2.401   2.499   4.710 -0.3898 -0.0952 -0.0593
   18MOL   H134 8328   1.750   2.782   5.505  0.6974 -0.3040 -0.1703
   18MOL   H135 8329   1.921   2.780   5.530 -1.2184  3.1948 -2.0468
   18MOL   H136 8330   1.767   2.538   5.446 -0.6616  1.8298 -0.4153
   18MOL   H137 8331   1.933   2.532   5.504  1.4960  1.9151  0.3411
   18MOL   H138 8332   2.025   2.656   5.325 -0.1038  1.0343  2.3091
   18MOL   H139 8333   1.864   2.711   5.275 -0.2734  0.6397  0.3391
   18MOL   H140 8334   1.897   2.436   5.231  1.2067 -0.4316 -1.1084
   18MOL   H141 8335   1.809   2.554   5.134  0.2649  0.2916 -0.9174
   18MOL   H142 8336   2.247   2.486   4.964 -0.5611  0.8859  0.3566
   18MOL   H143 8337   2.156   2.613   4.898  0.7365 -0.5182 -2.5840
   18MOL   H144 8338   2.116   2.366   4.742  2.6243 -1.0296  1.2918
   18MOL   H145 8339   2.144   2.535   4.684 -0.1044  0.1694 -1.0033
   18MOL   O146 8340   2.328   2.280   4.754 -0.0727  0.2904 -0.2274
   18MOL   C147 8341   2.438   2.214   4.713  0.1437 -0.3966  0.3945
   18MOL   C148 8342   2.405   2.152   4.576  0.5379  0.4843  0.7767
   18MOL   C149 8343   2.292   2.044   4.573 -0.4173  0.0325  0.2430
   18MOL   C150 8344   2.252   2.003   4.432 -0.1052 -0.7087 -0.1750
   18MOL   O151 8345   2.205   2.112   4.355  0.2228 -0.4343  0.1555
   18MOL   C152 8346   2.070   2.131   4.344  0.2489  0.1937 -0.0146
   18MOL   O153 8347   1.983   2.049   4.361 -0.0720 -0.0102 -0.4956
   18MOL   C154 8348   2.048   2.273   4.296  0.8211  0.2879  0.0783
   18MOL   C155 8349   2.092   2.383   4.403 -0.0837  0.0897  0.2816
   18MOL   C156 8350   2.181   2.495   4.349 -0.1416 -0.6036  0.4996
   18MOL   O157 8351   2.193   2.597   4.414  1.0659 -0.7795  0.2509
   18MOL   H158 8352   2.520   2.284   4.697  0.4869 -1.3085 -1.9651
   18MOL   H159 8353   2.465   2.128   4.776 -2.5822 -0.2548  1.8111
   18MOL   H160 8354   2.498   2.110   4.540  0.5764  1.4286 -0.2437
   18MOL   H161 8355   2.364   2.228   4.510  0.3548  0.8421  1.2986
   18MOL   H162 8356   2.206   2.086   4.625  1.0933  1.7079  1.4437
   18MOL   H163 8357   2.326   1.954   4.625 -0.1887 -2.1478 -3.4936
   18MOL   H164 8358   2.345   1.985   4.377 -1.2199 -2.0581 -1.6664
   18MOL   H165 8359   2.199   1.908   4.438  1.0782 -1.3505  0.3527
   18MOL   H166 8360   1.942   2.278   4.272  1.0807 -0.3087 -1.1872
   18MOL   H167 8361   2.097   2.286   4.199  0.5599  2.2171  0.1861
   18MOL   H168 8362   2.000   2.427   4.441  0.9819  3.0764 -0.4969
   18MOL   H169 8363   2.147   2.343   4.489 -2.6371 -2.7081  0.6790
   18MOL   O170 8364   2.238   2.465   4.222  0.3749  0.3335 -0.4934
   18MOL   C171 8365   2.308   2.559   4.150  0.1064 -0.3245 -0.2276
   18MOL   C172 8366   2.456   2.528   4.173 -1.5134  0.5573  0.0216
   18MOL   C173 8367   2.549   2.639   4.137 -0.8916 -0.4227  0.4666
   18MOL   C174 8368   2.697   2.627   4.199 -0.3152 -0.4365  0.4660
   18MOL   O175 8369   2.789   2.718   4.139 -0.1052 -0.5708  0.1762
   18MOL   C176 8370   2.918   2.689   4.124  0.8140  0.2312  0.5796
   18MOL   O177 8371   2.967   2.581   4.155  0.2197 -0.6937  0.4813
   18MOL   C178 8372   3.002   2.803   4.068 -0.3244  0.2163  0.3949
   18MOL   C179 8373   3.149   2.763   4.048 -0.0799  0.1180  0.0712
   18MOL   C180 8374   3.247   2.846   4.127  0.1174 -0.6669 -0.2751
   18MOL   O181 8375   3.236   2.970   4.143 -0.5381  0.0366 -0.0466
   18MOL   H182 8376   2.265   2.561   4.050 -1.0319  1.3271  0.2830
   18MOL   H183 8377   2.279   2.657   4.189  0.8753 -0.6329  1.1535
   18MOL   H184 8378   2.467   2.439   4.111  2.3756  2.3994 -2.0504
   18MOL   H185 8379   2.465   2.505   4.280  0.0836 -2.8540 -0.7530
   18MOL   H186 8380   2.513   2.739   4.163  0.5895  0.4581 -0.7571
   18MOL   H187 8381   2.553   2.652   4.029 -1.3195  0.1233  0.5102
   18MOL   H188 8382   2.702   2.653   4.304 -0.6732  1.5230  0.0125
   18MOL   H189 8383   2.731   2.524   4.186 -0.3930 -0.3194 -0.7423
   18MOL   H190 8384   2.991   2.892   4.129 -0.0999  0.5275 -0.0211
   18MOL   H191 8385   2.963   2.840   3.974  0.4879  2.5490  0.9594
   18MOL   H192 8386   3.170   2.656   4.061  0.8147  0.3359  0.4046
   18MOL   H193 8387   3.169   2.801   3.947  2.4169  1.7366  1.1416
   18MOL   O194 8388   3.349   2.772   4.173 -0.2689 -0.2706  0.3719
   18MOL   C195 8389   3.447   2.839   4.250 -0.2924  0.9719  0.0928
   18MOL   C196 8390   3.559   2.750   4.309 -0.0230  0.6126  0.6110
   18MOL   C197 8391   3.648   2.686   4.200 -0.8497 -0.0310 -0.7874
   18MOL   C198 8392   3.775   2.637   4.267 -1.2816  1.0873  0.1785
   18MOL   O199 8393   3.856   2.727   4.342  0.1089 -0.3305 -0.2704
   18MOL   C200 8394   3.951   2.797   4.269  0.1252 -0.0007  0.3632
   18MOL   O201 8395   3.960   2.798   4.145  0.1022  0.5033 -0.4074
   18MOL   C202 8396   4.032   2.891   4.349 -0.2383  0.8691  0.9283
   18MOL   C203 8397   3.944   2.980   4.441 -0.0399 -0.3010  0.2167
   18MOL   C204 8398   3.987   2.965   4.588 -0.1342 -0.5841  0.0828
   18MOL   O205 8399   3.971   3.062   4.665  0.1280 -0.4180  0.6578
   18MOL   H206 8400   3.495   2.916   4.190  1.3388 -1.1851 -1.4446
   18MOL   H207 8401   3.387   2.885   4.328 -0.7631  1.3978 -0.5131
   18MOL   H208 8402   3.517   2.674   4.375  0.7171  1.4644  2.0780
   18MOL   H209 8403   3.627   2.810   4.369  0.8049 -0.1418  0.4385
   18MOL   H210 8404   3.685   2.757   4.126  1.6343 -0.4369  0.0237
   18MOL   H211 8405   3.587   2.612   4.148 -0.2530 -0.5897 -0.6926
   18MOL   H212 8406   3.745   2.565   4.343 -1.9646 -0.3722 -1.4228
   18MOL   H213 8407   3.844   2.582   4.202 -0.2269  1.6672  0.7844
   18MOL   H214 8408   4.089   2.953   4.280  1.9607  0.0209  1.9176
   18MOL   H215 8409   4.106   2.829   4.401 -1.5062  0.2045  1.9661
   18MOL   H216 8410   3.950   3.088   4.426  1.7597 -0.0972  2.1719
   18MOL   H217 8411   3.840   2.948   4.439 -0.3746  0.5295  2.2491
   18MOL   O218 8412   4.028   2.840   4.617  0.0025 -0.6203  0.1761
   18MOL   C219 8413   4.073   2.813   4.748  0.0380  0.2906  0.7781
   18MOL   C220 8414   4.143   2.681   4.768  0.6189  0.2243 -0.5978
   18MOL   C221 8415   4.277   2.648   4.697 -0.4486  0.0940 -0.4649
   18MOL   C222 8416   4.271   2.650   4.545 -0.5756  0.0126  0.2848
   18MOL   O223 8417   4.170   2.567   4.496  0.1313 -0.4592 -0.0004
   18MOL   C224 8418   4.202   2.443   4.459 -0.5225 -0.4577  0.5044
   18MOL   O225 8419   4.309   2.389   4.490 -0.3129 -0.0405  0.6175
   18MOL   C226 8420   4.102   2.362   4.381  0.2628  0.2557  0.0787
   18MOL   C227 8421   4.108   2.414   4.238  0.9131 -0.7624  0.8458
   18MOL   C228 8422   4.172   2.313   4.151  0.9514  0.1159  0.4505
   18MOL   O229 8423   4.144   2.191   4.159 -0.7482  0.1296  0.4047
   18MOL   H230 8424   4.137   2.894   4.786  1.9570  0.0969 -1.9104
   18MOL   H231 8425   3.986   2.826   4.812 -3.0049 -1.2371 -2.9324
   18MOL   H232 8426   4.079   2.593   4.760 -0.5078  0.9194  0.5646
   18MOL   H233 8427   4.166   2.676   4.874 -1.4396  0.4412 -0.1158
   18MOL   H234 8428   4.306   2.553   4.741  0.7588  0.2828 -0.8437
   18MOL   H235 8429   4.357   2.715   4.730  0.5157  0.0828 -2.6932
   18MOL   H236 8430   4.252   2.753   4.515  0.8014 -0.8281 -3.7573
   18MOL   H237 8431   4.364   2.615   4.499 -1.7201 -2.4220 -0.2783
   18MOL   H238 8432   4.006   2.389   4.424 -0.9546 -0.5046 -2.0874
   18MOL   H239 8433   4.108   2.253   4.381 -0.5518  0.2033  1.1969
   18MOL   H240 8434   4.004   2.430   4.207  1.1905 -2.5735 -1.1433
   18MOL   H241 8435   4.159   2.509   4.222  0.8537 -0.7196  0.9174
   18MOL   O242 8436   4.268   2.370   4.068 -0.0462  0.2884 -0.0262
   18MOL   C243 8437   4.349   2.289   3.985 -0.0836  0.4446 -0.4328
   18MOL   C244 8438   4.263   2.240   3.865  0.0362 -0.1000 -0.3298
   18MOL   C245 8439   4.345   2.166   3.768  0.1771  0.4947  0.3521
   18MOL   C246 8440   4.259   2.127   3.646  0.2216 -0.0711 -0.4214
   18MOL   O247 8441   4.250   2.241   3.569  0.2342 -0.4426  0.0896
   18MOL   C248 8442   4.129   2.290   3.537 -0.1274 -0.1619 -0.1615
   18MOL   O249 8443   4.022   2.256   3.585  0.0197 -0.4909  0.3802
   18MOL   C250 8444   4.129   2.397   3.432  0.2271  0.8891 -0.0940
   18MOL   C251 8445   4.095   2.528   3.503 -0.8281  0.0379  0.0247
   18MOL   C252 8446   4.127   2.649   3.420 -0.8794 -0.1845  0.6565
   18MOL   O253 8447   4.050   2.687   3.329  0.2352  0.0109  0.7181
   18MOL   H254 8448   4.416   2.366   3.945  0.8272 -0.1403 -0.0527
   18MOL   H255 8449   4.391   2.207   4.043  0.8828 -2.1407 -4.5395
   18MOL   H256 8450   4.214   2.327   3.822 -0.6724 -0.7469 -0.8504
   18MOL   H257 8451   4.185   2.177   3.908  0.6870  0.2065  1.3450
   18MOL   H258 8452   4.379   2.077   3.821 -1.8691 -0.9930 -0.7601
   18MOL   H259 8453   4.432   2.218   3.728 -0.6152  0.0952 -1.9826
   18MOL   H260 8454   4.308   2.045   3.593  0.1928  1.3789 -2.7652
   18MOL   H261 8455   4.168   2.073   3.672  0.3544 -0.8874 -1.6079
   18MOL   H262 8456   4.049   2.387   3.359 -0.2463  0.5650  0.4694
   18MOL   H263 8457   4.223   2.397   3.376 -0.8031 -1.7707 -1.9261
   18MOL   H264 8458   3.990   2.522   3.529 -1.2114  0.1528 -1.4341
   18MOL   H265 8459   4.146   2.542   3.598 -0.0124  1.0298 -0.5497
   18MOL   O266 8460   4.251   2.693   3.445  0.2853  0.2135  0.4226
   18MOL   C267 8461   4.303   2.795   3.349  0.4994 -0.1543 -0.6525
   18MOL   C268 8462   4.455   2.801   3.328  0.8004  0.4652  0.1076
   18MOL   C269 8463   4.533   2.839   3.456 -0.4749 -0.4441  0.7772
   18MOL   C270 8464   4.530   2.724   3.562  0.3174  1.1395 -0.3071
   18MOL   O271 8465   4.588   2.610   3.510  0.0237  0.4363 -0.5569
   18MOL   C272 8466   4.556   2.492   3.564  0.2093  0.5280 -0.2774
   18MOL   O273 8467   4.466   2.465   3.649 -0.4912 -0.4568 -0.3685
   18MOL   C274 8468   4.624   2.379   3.489  0.2240 -0.3780 -0.0831
   18MOL   C275 8469   4.613   2.407   3.340 -0.2699  0.5386  0.5623
   18MOL   C276 8470   4.747   2.461   3.279 -0.2678 -0.3389 -0.2542
   18MOL   O277 8471   4.859   2.408   3.314 -0.0037 -0.4516 -0.0049
   18MOL   H278 8472   4.258   2.782   3.251 -1.1783  0.0919  0.0755
   18MOL   H279 8473   4.269   2.896   3.370  1.8023  0.5487 -1.8134
   18MOL   H280 8474   4.478   2.883   3.260 -1.0034  0.8143 -0.0939
   18MOL   H281 8475   4.495   2.713   3.278  2.1157  1.0958  0.0145
   18MOL   H282 8476   4.494   2.925   3.511  2.2006 -0.4641  2.8876
   18MOL   H283 8477   4.639   2.858   3.436 -0.8869 -0.0749 -1.1171
   18MOL   H284 8478   4.581   2.752   3.654 -1.2132 -2.8923  1.8548
   18MOL   H285 8479   4.427   2.694   3.582  1.1907 -1.8242 -0.0503
   18MOL   H286 8480   4.575   2.283   3.507 -2.2449  0.8496  0.0329
   18MOL   H287 8481   4.723   2.362   3.531 -1.0453  0.5571  3.4889
   18MOL   H288 8482   4.589   2.316   3.284 -1.5413  2.0128 -1.3659
   18MOL   H289 8483   4.530   2.474   3.316  1.7427  2.1537 -2.1604
   18MOL   O290 8484   4.727   2.566   3.190 -0.3484  0.3128  0.0832
   18MOL   C291 8485   4.845   2.632   3.135  0.4710  0.1217 -0.7414
   18MOL   C292 8486   4.807   2.700   3.007 -1.2286  0.0543  0.0913
   18MOL   C293 8487   4.708   2.822   3.018 -0.3667  0.4618 -0.0530
   18MOL   C294 8488   4.630   2.836   2.870 -0.2407  1.1648  0.2810
   18MOL   O295 8489   4.563   2.963   2.886 -0.0831 -0.0717 -0.4578
   18MOL   C296 8490   4.440   2.962   2.941  0.9221 -0.3124 -0.0419
   18MOL   O297 8491   4.369   2.869   2.985 -0.3590  0.0966 -0.3540
   18MOL   C298 8492   4.384   3.108   2.942 -0.7932  0.3728 -0.0960
   18MOL   C299 8493   4.333   3.144   3.084  0.4139 -0.0347  0.3744
   18MOL   C300 8494   4.447   3.169   3.183 -0.1152 -0.3012  0.2333
   18MOL   O301 8495   4.437   3.120   3.295  0.0008  0.7402 -0.4227
   18MOL   H302 8496   4.876   2.705   3.210 -0.6579 -1.1674  1.0502
   18MOL   H303 8497   4.926   2.560   3.124 -0.5837 -1.0925 -0.6606
   18MOL   H304 8498   4.777   2.631   2.928  4.0408 -1.3922 -0.8009
   18MOL   H305 8499   4.888   2.747   2.952 -0.4933  0.4004  1.4576
   18MOL   H306 8500   4.760   2.916   3.035 -0.1256  0.1453  0.9853
   18MOL   H307 8501   4.633   2.822   3.097  1.4877 -1.2101  1.7593
   18MOL   H308 8502   4.695   2.830   2.783 -0.4226  1.1099  0.1476
   18MOL   H309 8503   4.550   2.766   2.848  2.2647 -0.8688 -2.7490
   18MOL   H310 8504   4.312   3.127   2.862  0.7717  0.4619 -1.5236
   18MOL   H311 8505   4.470   3.172   2.922  0.3153 -0.5849  1.5283
   18MOL   H312 8506   4.287   3.243   3.080  1.8553  0.6857  1.3241
   18MOL   H313 8507   4.260   3.079   3.132  4.6709 -3.3590  2.6728
   18MOL   O314 8508   4.539   3.249   3.133 -0.6029 -0.6843  0.5847
   18MOL   C315 8509   4.664   3.249   3.197 -0.1564  0.1770 -0.1943
   18MOL   C316 8510   4.692   3.389   3.262 -0.9047 -0.4263  0.5984
   18MOL   C317 8511   4.639   3.406   3.405  0.2725 -0.9716  0.2867
   18MOL   C318 8512   4.747   3.379   3.504 -1.2813  0.8030 -0.7431
   18MOL   O319 8513   4.782   3.240   3.516  0.7958  0.3833 -0.8753
   18MOL   C320 8514   4.910   3.193   3.544  0.5217 -0.5137 -0.7468
   18MOL   O321 8515   5.001   3.266   3.583  0.1108 -0.1738  0.6666
   18MOL   C322 8516   4.932   3.043   3.525  0.0327  0.7097 -0.1202
   18MOL   C323 8517   4.886   2.982   3.387 -0.5414 -0.2677 -0.2506
   18MOL   C324 8518   4.987   3.017   3.272 -0.1677  0.1038  0.7718
   18MOL   O325 8519   5.060   2.930   3.222 -0.1112 -0.3420  0.3108
   18MOL   H326 8520   4.669   3.184   3.284 -0.2581  1.8728  1.0918
   18MOL   H327 8521   4.723   3.206   3.116 -1.2348 -0.4135 -0.6942
   18MOL   H328 8522   4.632   3.461   3.205  0.1762  0.1722  0.2052
   18MOL   H329 8523   4.797   3.415   3.247 -0.9316 -1.8707 -2.6528
   18MOL   H330 8524   4.555   3.339   3.422  0.0710 -0.2158  2.4038
   18MOL   H331 8525   4.605   3.507   3.425  2.0212 -0.5082  1.0666
   18MOL   H332 8526   4.833   3.440   3.474 -1.0123  0.5055 -0.5702
   18MOL   H333 8527   4.718   3.422   3.600  0.2110  1.6542 -0.6462
   18MOL   H334 8528   4.869   2.994   3.599  1.8274  1.1001  1.7217
   18MOL   H335 8529   5.031   3.014   3.561 -0.2240  0.6331  0.5373
   18MOL   H336 8530   4.883   2.874   3.396  0.1119 -0.3865 -1.3637
   18MOL   H337 8531   4.786   3.013   3.357 -0.6500 -1.8318 -1.6057
   18MOL   O338 8532   5.000   3.144   3.238 -0.1600  0.4970 -0.6130
   18MOL   C339 8533   5.101   3.190   3.148 -0.2689  0.2151  0.0977
   18MOL   C340 8534   5.123   3.341   3.171 -0.6514  0.2380 -0.0294
   18MOL   C341 8535   5.238   3.384   3.076  0.5493  0.1894 -0.1481
   18MOL   C342 8536   5.230   3.536   3.053 -0.8174 -0.0435  0.1417
   18MOL   O343 8537   5.334   3.573   2.962 -0.1192 -0.5605 -0.3014
   18MOL   C344 8538   5.382   3.698   2.984  0.1968 -0.2737  0.8177
   18MOL   O345 8539   5.339   3.791   3.055 -0.0464  0.6688 -0.2246
   18MOL   C346 8540   5.505   3.711   2.893 -0.2598 -0.0651  0.0748
   18MOL   C347 8541   5.577   3.844   2.918  0.2917  0.2542 -0.2396
   18MOL   C348 8542   5.543   3.956   2.823  0.2312 -0.5282  0.2752
   18MOL   O349 8543   5.470   4.049   2.848 -0.2477 -0.1686  0.4630
   18MOL   H350 8544   5.194   3.134   3.155  1.0728  2.5716  2.3038
   18MOL   H351 8545   5.086   3.167   3.043 -0.6597  0.8291  0.0170
   18MOL   H352 8546   5.144   3.365   3.275 -0.5727  3.2005 -0.6704
   18MOL   H353 8547   5.026   3.388   3.153  0.3576  2.4649  0.1887
   18MOL   H354 8548   5.240   3.327   2.983  1.6594  0.7471 -0.4772
   18MOL   H355 8549   5.333   3.367   3.127 -0.9686 -1.4896  2.2729
   18MOL   H356 8550   5.129   3.565   3.025  0.4086  3.2524 -1.0416
   18MOL   H357 8551   5.249   3.583   3.150  0.2518  0.4986 -0.3191
   18MOL   H358 8552   5.483   3.708   2.786  1.2138  1.6060 -0.2941
   18MOL   H359 8553   5.580   3.634   2.914  0.1111  0.3463  0.2579
   18MOL   H360 8554   5.554   3.879   3.018 -0.6744  2.0728 -1.0833
   18MOL   H361 8555   5.683   3.821   2.930 -0.1179 -1.3513  0.5285
   18MOL   O362 8556   5.603   3.940   2.704  0.3751  0.2878 -0.3150
   18MOL   C363 8557   5.595   4.048   2.602  0.5047  0.0227  0.3145
   18MOL   C364 8558   5.494   3.998   2.496 -0.1064 -0.1377  0.2751
   18MOL   C365 8559   5.464   4.101   2.380  0.4199 -0.2858 -0.0119
   18MOL   C366 8560   5.342   4.057   2.287 -0.1075 -0.1114 -0.1855
   18MOL   O367 8561   5.372   3.945   2.209  0.8006 -0.4222 -0.2077
   18MOL   C368 8562   5.301   3.841   2.224  0.2056  0.0519  0.3603
   18MOL   O369 8563   5.199   3.835   2.287 -0.9714  1.0419 -0.5095
   18MOL   C370 8564   5.357   3.725   2.143  0.2972 -0.2418 -0.3655
   18MOL   C371 8565   5.304   3.734   2.005  0.2674  0.2375 -0.4088
   18MOL   C372 8566   5.415   3.774   1.905 -0.6298 -0.0264 -0.3033
   18MOL   O373 8567   5.462   3.688   1.830  0.1303 -0.0114 -0.0599
   18MOL   H374 8568   5.561   4.148   2.630 -2.1294 -1.4983  2.8369
   18MOL   H375 8569   5.696   4.063   2.565  0.6576  0.8072  1.0253
   18MOL   H376 8570   5.405   3.976   2.555  0.0115  1.6319  1.1522
   18MOL   H377 8571   5.527   3.904   2.451 -0.8053 -1.3400  2.2174
   18MOL   H378 8572   5.554   4.113   2.320  0.7885  0.0040  0.5957
   18MOL   H379 8573   5.446   4.200   2.422 -0.7700 -0.1272 -0.8673
   18MOL   H380 8574   5.254   4.056   2.352  0.3655 -0.2705  0.4505
   18MOL   H381 8575   5.332   4.136   2.212  0.2781  2.2431  2.1728
   18MOL   H382 8576   5.334   3.627   2.184  1.3589  0.2547  1.4669
   18MOL   H383 8577   5.466   3.732   2.141  0.4634 -2.2945  0.3131
   18MOL   H384 8578   5.263   3.638   1.974 -2.4105  1.3082 -0.2553
   18MOL   H385 8579   5.218   3.800   1.998  0.7093  0.9755  0.9461
   18MOL   O386 8580   5.457   3.900   1.912  0.1977  0.3932  0.3348
   18MOL   C387 8581   5.565   3.926   1.825 -0.5686  0.1715 -0.3442
   18MOL   C388 8582   5.614   4.064   1.844  0.4115 -0.0011  0.0468
   18MOL   C389 8583   5.523   4.183   1.793  0.0983 -0.1140 -0.5553
   18MOL   C390 8584   5.387   4.188   1.872  0.3228  0.0303  0.2184
   18MOL   O391 8585   5.326   4.320   1.854 -0.9406  0.4158  0.2312
   18MOL   C392 8586   5.263   4.350   1.736 -0.1233 -0.0066 -0.9340
   18MOL   O393 8587   5.231   4.263   1.650 -0.5368  0.4649 -0.1098
   18MOL   C394 8588   5.224   4.494   1.729  0.5891 -1.4169 -0.0955
   18MOL   C395 8589   5.213   4.558   1.593  0.2749 -1.2672 -0.3397
   18MOL   C396 8590   5.352   4.611   1.558 -0.0495  0.6433 -0.5423
   18MOL   O397 8591   5.361   4.734   1.567  0.1005 -0.0023  0.6525
   18MOL   H398 8592   5.646   3.860   1.855 -0.0810  1.0148  0.1888
   18MOL   H399 8593   5.547   3.905   1.719 -3.0501  1.3087 -0.1877
   18MOL   H400 8594   5.698   4.073   1.776  0.0162 -0.4857 -0.5113
   18MOL   H401 8595   5.645   4.084   1.947 -0.2400 -1.2483  0.4992
   18MOL   H402 8596   5.495   4.154   1.691 -0.1534  1.3294 -0.9142
   18MOL   H403 8597   5.576   4.277   1.778  1.6415 -1.2209 -2.2015
   18MOL   H404 8598   5.320   4.109   1.837  1.4880 -0.6612 -0.5106
   18MOL   H405 8599   5.397   4.166   1.978  2.7697 -1.5212 -0.2925
   18MOL   H406 8600   5.268   4.560   1.804 -1.0399 -0.5484  0.1322
   18MOL   H407 8601   5.119   4.493   1.759  0.5071 -3.0887 -0.4064
   18MOL   H408 8602   5.183   4.484   1.519  0.1635  0.4449 -2.0759
   18MOL   H409 8603   5.140   4.639   1.599  1.6928  0.3795 -3.7321
   18MOL   O410 8604   5.445   4.520   1.531 -0.4134 -0.8699  0.2498
   18MOL   C411 8605   5.575   4.564   1.492  0.1328 -0.2858  0.1920
   18MOL   C412 8606   5.683   4.550   1.599 -0.3158 -0.3890 -0.6117
   18MOL   C413 8607   5.807   4.641   1.583  0.1792 -0.6211  0.2774
   18MOL   C414 8608   5.893   4.654   1.709 -0.4605 -0.1884 -0.3973
   18MOL   O415 8609   6.025   4.694   1.677  0.0091 -0.2222  0.3668
   18MOL   C416 8610   6.102   4.754   1.772  0.0678 -0.1668  0.4276
   18MOL   O417 8611   6.069   4.779   1.886 -0.7069 -0.4817 -0.1414
   18MOL   C418 8612   6.233   4.808   1.711 -0.1646 -0.3052 -0.7263
   18MOL   C419 8613   6.340   4.859   1.813 -0.2898  0.1714 -0.2012
   18MOL   C420 8614   6.331   5.011   1.830  0.7990 -0.7464  0.3785
   18MOL   O421 8615   6.230   5.063   1.785 -0.6627  0.1732 -0.7615
   18MOL   H422 8616   5.605   4.500   1.409 -0.8968 -2.3722  1.3832
   18MOL   H423 8617   5.588   4.667   1.461  3.1840 -0.5653  0.3779
   18MOL   H424 8618   5.709   4.447   1.621  3.0501  0.4205 -0.5880
   18MOL   H425 8619   5.641   4.569   1.698 -1.5513 -1.5937 -0.8894
   18MOL   H426 8620   5.776   4.743   1.561  2.9046  0.4203  0.9472
   18MOL   H427 8621   5.882   4.603   1.514  0.6670 -0.3682  0.6575
   18MOL   H428 8622   5.846   4.703   1.795  0.3666 -0.9574  0.5069
   18MOL   H429 8623   5.907   4.559   1.760 -1.9414 -0.0648  0.2453
   18MOL   H430 8624   6.212   4.885   1.638 -0.0248 -1.0221 -1.5350
   18MOL   H431 8625   6.272   4.727   1.648  0.0169 -1.4581  0.8229
   18MOL   H432 8626   6.359   4.804   1.905  0.5300  3.1496  1.4558
   18MOL   H433 8627   6.438   4.844   1.768 -0.3817 -2.8637  0.4658
   18MOL   O434 8628   6.442   5.067   1.883  0.4072  0.0320  0.0049
   18MOL   C435 8629   6.436   5.201   1.916 -0.5237  0.1562  0.3080
   18MOL   C436 8630   6.406   5.222   2.069  0.2703 -0.2353  0.2283
   18MOL   C437 8631   6.315   5.343   2.101  0.0856 -0.4731 -0.7781
   18MOL   C438 8632   6.263   5.334   2.248 -0.3815 -0.6690  0.8905
   18MOL   O439 8633   6.189   5.453   2.283  0.5951 -0.9956 -0.0293
   18MOL   C440 8634   6.252   5.556   2.345 -0.1761 -0.4975  0.3446
   18MOL   O441 8635   6.375   5.575   2.358 -0.2660 -0.5812  0.1373
   18MOL   C442 8636   6.148   5.657   2.394  0.4570  0.1284 -0.0237
   18MOL   C443 8637   6.166   5.701   2.544  0.1562 -0.0147 -0.1787
   18MOL   C444 8638   6.195   5.846   2.584  0.6813  0.3972  0.0396
   18MOL   O445 8639   6.103   5.924   2.614 -0.0233 -0.7441  0.2268
   18MOL   H446 8640   6.526   5.256   1.885 -0.6577  0.9176  1.2556
   18MOL   H447 8641   6.357   5.252   1.861  0.6893  3.0087  1.1056
   18MOL   H448 8642   6.496   5.222   2.130 -0.2804 -0.6344  1.0475
   18MOL   H449 8643   6.355   5.131   2.101 -1.9252  0.3208 -1.5887
   18MOL   H450 8644   6.226   5.353   2.039  0.9314  3.1691 -1.5344
   18MOL   H451 8645   6.368   5.438   2.092 -1.6516  0.6840  0.6964
   18MOL   H452 8646   6.196   5.248   2.256 -1.2090 -0.1255 -0.0795
   18MOL   H453 8647   6.350   5.339   2.313  1.0074 -1.9275 -0.8356
   18MOL   H454 8648   6.052   5.606   2.401  1.7714 -2.4649 -0.4140
   18MOL   H455 8649   6.140   5.742   2.326  0.1526 -0.2391 -0.4506
   18MOL   H456 8650   6.073   5.671   2.592  0.9142  0.3259  1.5274
   18MOL   H457 8651   6.247   5.643   2.588  0.2900  1.4939  1.6175
   18MOL   O458 8652   6.321   5.871   2.593  0.4275  0.5390  0.3452
   18MOL   C459 8653   6.351   5.988   2.667 -0.5353  0.8692 -0.4023
   18MOL   C460 8654   6.501   5.968   2.705  0.8370 -0.0659 -0.6614
   18MOL   C461 8655   6.518   5.893   2.838 -0.7794 -0.4736 -0.1133
   18MOL   C462 8656   6.406   5.794   2.867  0.3771 -0.6586 -0.6514
   18MOL   O463 8657   6.428   5.738   2.998 -0.2077 -0.5021 -0.2458
   18MOL   C464 8658   6.515   5.639   3.034  0.4717  0.0307 -1.2554
   18MOL   O465 8659   6.593   5.585   2.958 -0.2456 -0.2879  0.1786
   18MOL   C466 8660   6.509   5.610   3.182 -0.1519  0.1329 -0.8071
   18MOL   C467 8661   6.380   5.623   3.268 -0.3849 -0.1538 -0.1265
   18MOL   C468 8662   6.390   5.676   3.406 -0.0182  0.1288 -0.1834
   18MOL   O469 8663   6.438   5.788   3.420  0.6152  0.3985  0.3042
   18MOL   H470 8664   6.340   6.078   2.606 -2.9265  0.9505  0.0999
   18MOL   H471 8665   6.284   5.997   2.753 -0.8746 -1.3069 -0.4011
   18MOL   H472 8666   6.561   6.059   2.712  2.0505 -0.8902 -0.2725
   18MOL   H473 8667   6.547   5.906   2.628 -0.9889 -1.5465 -0.5900
   18MOL   H474 8668   6.532   5.958   2.924  1.2398 -0.4394 -0.4446
   18MOL   H475 8669   6.614   5.844   2.831 -1.2769 -1.2561 -1.8708
   18MOL   H476 8670   6.305   5.835   2.879  0.4154 -1.1755  1.6893
   18MOL   H477 8671   6.409   5.716   2.790  0.0587  0.6243 -1.9822
   18MOL   H478 8672   6.589   5.668   3.228  1.5207 -1.9779 -0.9681
   18MOL   H479 8673   6.544   5.507   3.194  2.3142  1.2894  3.1144
   18MOL   H480 8674   6.303   5.674   3.210  3.1981  2.2278 -2.9776
   18MOL   H481 8675   6.347   5.521   3.292  4.1796 -1.5684  0.6065
   18MOL   H482 8676   6.350   5.613   3.486 -0.4228  1.7649  0.9299
   19MOL     O1 8677   4.417   3.032   3.738 -0.0998 -0.8250 -0.1332
   19MOL     C2 8678   4.504   3.139   3.711 -0.3515  0.7697 -0.7181
   19MOL     C3 8679   4.433   3.258   3.646 -0.4120 -0.3075  0.2319
   19MOL     C4 8680   4.309   3.301   3.731  0.6298 -0.3856  0.9511
   19MOL     C5 8681   4.236   3.429   3.669 -0.1630 -0.8063 -0.2421
   19MOL     O6 8682   4.188   3.402   3.537 -0.5868  0.0053  0.5021
   19MOL     C7 8683   4.248   3.455   3.426  0.0717  0.8695  0.3686
   19MOL     O8 8684   4.351   3.524   3.427  0.1308 -0.2367 -0.4066
   19MOL     C9 8685   4.192   3.417   3.290 -0.0108  0.0359 -0.3371
   19MOL    C10 8686   4.065   3.486   3.249  0.3066  0.4399  0.4265
   19MOL    C11 8687   4.053   3.493   3.100  0.8736 -0.9679  0.2119
   19MOL    O12 8688   4.114   3.422   3.017 -0.1786  0.6430  0.1642
   19MOL    H13 8689   4.555   3.168   3.803  1.2210 -2.2537 -0.6060
   19MOL    H14 8690   4.580   3.094   3.649  0.5659  0.5676  0.5335
   19MOL    H15 8691   4.396   3.210   3.555 -1.5825  0.7441  0.1402
   19MOL    H16 8692   4.492   3.348   3.630  1.0204 -1.3044 -0.1642
   19MOL    H17 8693   4.340   3.319   3.834 -0.3436 -0.9939  1.3555
   19MOL    H18 8694   4.232   3.225   3.716  1.2236 -1.0610  1.3003
   19MOL    H19 8695   4.149   3.451   3.731 -0.3648 -2.0616 -0.0754
   19MOL    H20 8696   4.308   3.511   3.666  0.8913 -1.6053  2.0746
   19MOL    H21 8697   4.185   3.309   3.279 -0.1980  0.0537 -0.4092
   19MOL    H22 8698   4.267   3.441   3.215  0.9586 -0.9689  0.3008
   19MOL    H23 8699   3.979   3.420   3.265 -0.4174  1.2753  0.0207
   19MOL    H24 8700   4.052   3.584   3.294  0.6897 -0.0590  1.6320
   19MOL    H25 8701   4.351   3.037   3.670  0.7273  2.2861 -0.7631
   19MOL    O26 8702   3.948   3.576   3.069 -0.2552  0.0306 -0.1394
   19MOL    C27 8703   3.911   3.611   2.938 -0.3454  0.6217 -0.0560
   19MOL    C28 8704   3.811   3.721   2.932  0.1916 -0.3068 -0.4293
   19MOL    C29 8705   3.843   3.867   2.969 -0.2480 -0.2375  0.0675
   19MOL    C30 8706   3.719   3.942   2.960 -0.0651 -0.0350  0.5135
   19MOL    O31 8707   3.620   3.901   3.054 -0.4881 -0.0791  0.0886
   19MOL    C32 8708   3.495   3.904   3.019  0.2247  0.4630 -0.1809
   19MOL    O33 8709   3.448   3.965   2.922 -0.3583  0.1409 -0.3152
   19MOL    C34 8710   3.404   3.812   3.109 -0.3703 -0.3792  0.4099
   19MOL    C35 8711   3.381   3.680   3.043 -0.2360 -0.3973  0.1861
   19MOL    C36 8712   3.405   3.571   3.148 -0.4251 -0.2905  0.2102
   19MOL    O37 8713   3.314   3.532   3.216  0.2102  0.2614  0.3493
   19MOL    H38 8714   3.991   3.635   2.867 -1.3765  0.3494 -1.3282
   19MOL    H39 8715   3.856   3.527   2.894 -0.4168  1.1892 -1.0679
   19MOL    H40 8716   3.721   3.686   2.983 -1.3069 -2.4566 -4.3506
   19MOL    H41 8717   3.777   3.730   2.829  1.4745  2.7461 -0.6618
   19MOL    H42 8718   3.918   3.915   2.906  0.5781 -1.7480 -0.1406
   19MOL    H43 8719   3.888   3.886   3.067 -2.1144  0.4113  0.8077
   19MOL    H44 8720   3.740   4.049   2.967 -0.6800  0.0825  0.5711
   19MOL    H45 8721   3.679   3.926   2.859 -0.6588 -0.8032  0.8712
   19MOL    H46 8722   3.308   3.859   3.131 -1.4557 -0.9128 -2.8474
   19MOL    H47 8723   3.445   3.817   3.210  3.0098  2.0148 -0.9964
   19MOL    H48 8724   3.283   3.671   2.997  0.6597  0.7466 -2.0121
   19MOL    H49 8725   3.452   3.669   2.961  0.3015 -2.0115  0.8299
   19MOL    O50 8726   3.533   3.531   3.154  0.0238  0.0685 -0.1134
   19MOL    C51 8727   3.554   3.414   3.237 -0.4916 -0.0457  0.4320
   19MOL    C52 8728   3.561   3.438   3.388  0.0176 -1.2557  0.1582
   19MOL    C53 8729   3.633   3.327   3.467  0.0663 -0.3504 -0.0077
   19MOL    C54 8730   3.622   3.341   3.614  0.2230 -0.1228 -0.0544
   19MOL    O55 8731   3.694   3.448   3.671  0.4048  0.2270 -0.0976
   19MOL    C56 8732   3.826   3.440   3.695 -0.3367 -0.1159 -0.0159
   19MOL    O57 8733   3.895   3.343   3.672  0.2500  0.1025  0.3863
   19MOL    C58 8734   3.876   3.573   3.757 -0.6239 -0.3111 -0.3197
   19MOL    C59 8735   3.885   3.573   3.919  0.8332  0.9225 -0.0379
   19MOL    C60 8736   3.777   3.652   3.989 -0.4089  0.6904  0.8103
   19MOL    O61 8737   3.721   3.751   3.941  0.3560 -0.2736  0.5718
   19MOL    H62 8738   3.488   3.330   3.215  0.4293 -0.7460  0.3140
   19MOL    H63 8739   3.653   3.394   3.196 -1.4845  0.0558 -2.0976
   19MOL    H64 8740   3.460   3.449   3.427 -0.2232  0.0839 -0.7666
   19MOL    H65 8741   3.615   3.531   3.404 -2.3616 -0.0852  1.7665
   19MOL    H66 8742   3.739   3.337   3.446 -0.0719  2.5692  0.4652
   19MOL    H67 8743   3.590   3.230   3.441 -0.1712 -0.7042  1.6365
   19MOL    H68 8744   3.519   3.340   3.649 -0.0130 -3.4104 -0.7079
   19MOL    H69 8745   3.669   3.255   3.662  1.1489 -0.2496 -1.1816
   19MOL    H70 8746   3.829   3.662   3.716 -0.6734 -0.7206 -1.1565
   19MOL    H71 8747   3.982   3.580   3.732 -1.0080 -1.3033 -2.3419
   19MOL    H72 8748   3.884   3.470   3.954  0.4496  1.2639  0.9964
   19MOL    H73 8749   3.976   3.603   3.971  0.0111  0.1386  1.9283
   19MOL    O74 8750   3.764   3.604   4.109 -0.4062  0.1931 -0.2615
   19MOL    C75 8751   3.663   3.654   4.192  0.2170  0.1966  0.2251
   19MOL    C76 8752   3.684   3.610   4.338 -0.7804  0.0060 -0.0175
   19MOL    C77 8753   3.809   3.679   4.393 -0.2223  0.5826 -0.0005
   19MOL    C78 8754   3.827   3.642   4.538 -0.5562 -0.1473  0.5437
   19MOL    O79 8755   3.724   3.681   4.634  0.6008 -0.0753  0.6097
   19MOL    C80 8756   3.745   3.702   4.766  0.0444  0.1120 -0.4309
   19MOL    O81 8757   3.838   3.656   4.829  0.0098  0.5157 -0.1150
   19MOL    C82 8758   3.640   3.784   4.827  0.1933 -0.7500 -0.4080
   19MOL    C83 8759   3.527   3.697   4.890  0.1139  0.0144  0.5395
   19MOL    C84 8760   3.388   3.746   4.880  0.0410  0.6372  0.1823
   19MOL    O85 8761   3.310   3.754   4.978  0.5682 -0.1674  0.2031
   19MOL    H86 8762   3.641   3.760   4.187  0.2904  0.2126  0.2432
   19MOL    H87 8763   3.573   3.600   4.160 -0.0843  1.9898 -2.0634
   19MOL    H88 8764   3.704   3.504   4.331 -0.8176  0.1396 -3.0376
   19MOL    H89 8765   3.593   3.635   4.393 -0.4933  0.9584  0.0408
   19MOL    H90 8766   3.786   3.786   4.391 -1.7584  0.2571 -1.5728
   19MOL    H91 8767   3.896   3.648   4.337 -0.3319  1.5005 -0.6958
   19MOL    H92 8768   3.834   3.534   4.534  0.4341 -0.0264 -3.9637
   19MOL    H93 8769   3.931   3.670   4.559  0.2988 -0.9014 -2.4186
   19MOL    H94 8770   3.610   3.849   4.745  1.1496  1.0956  0.6825
   19MOL    H95 8771   3.683   3.843   4.909 -0.9956  1.6018 -1.4289
   19MOL    H96 8772   3.528   3.596   4.848  0.6607 -0.2682  1.2182
   19MOL    H97 8773   3.542   3.690   4.998  0.6319 -0.6554  0.4305
   19MOL    O98 8774   3.344   3.777   4.754 -0.7865 -0.0621 -0.7821
   19MOL    C99 8775   3.211   3.810   4.730  0.6375  0.0734  1.0189
   19MOL   C100 8776   3.140   3.695   4.659  0.3656  0.0210 -0.0792
   19MOL   C101 8777   3.091   3.589   4.753 -0.2900 -0.1030  0.0521
   19MOL   C102 8778   3.009   3.471   4.686  0.9663  0.8200  0.3676
   19MOL   O103 8779   3.083   3.374   4.610 -0.3196  0.3426 -0.3014
   19MOL   C104 8780   3.022   3.318   4.508  0.4351 -0.6323 -0.2354
   19MOL   O105 8781   2.907   3.336   4.465 -0.0272  0.1857  0.3815
   19MOL   C106 8782   3.108   3.226   4.426  0.0937  0.3250  0.3677
   19MOL   C107 8783   3.201   3.297   4.323 -0.5414  0.3851  0.3255
   19MOL   C108 8784   3.346   3.311   4.377  0.3787 -0.7071  1.0093
   19MOL   O109 8785   3.406   3.419   4.371 -0.1016  0.2703  0.4345
   19MOL   H110 8786   3.155   3.837   4.819  0.0847  2.5777 -0.0424
   19MOL   H111 8787   3.208   3.894   4.660 -4.5866 -0.4424  0.4317
   19MOL   H112 8788   3.207   3.650   4.585 -0.0545  1.5660 -1.4212
   19MOL   H113 8789   3.057   3.736   4.603  1.0229 -0.6097 -1.5558
   19MOL   H114 8790   3.035   3.654   4.820 -1.2951  0.4970 -1.3723
   19MOL   H115 8791   3.172   3.536   4.804 -0.5389  1.2294  1.8690
   19MOL   H116 8792   2.963   3.423   4.773  1.2998  0.8756  0.5741
   19MOL   H117 8793   2.926   3.514   4.631  0.8068  0.3400  0.2364
   19MOL   H118 8794   3.042   3.163   4.367  0.3212  0.7320 -0.3201
   19MOL   H119 8795   3.162   3.158   4.493 -0.3707  1.2879  1.7536
   19MOL   H120 8796   3.196   3.231   4.236  2.3947  0.9314 -0.3117
   19MOL   H121 8797   3.175   3.397   4.287 -0.2975  0.4178  0.2335
   19MOL   O122 8798   3.395   3.204   4.435 -0.0296 -0.6559 -0.6728
   19MOL   C123 8799   3.531   3.196   4.473  0.3258 -0.0242 -0.1617
   19MOL   C124 8800   3.561   3.266   4.613 -0.4032  0.5579 -0.7723
   19MOL   C125 8801   3.708   3.255   4.646  0.0731  0.3160 -0.6998
   19MOL   C126 8802   3.731   3.316   4.785 -0.1206  0.2542 -0.2583
   19MOL   O127 8803   3.681   3.220   4.882 -0.1613 -0.5214  0.1435
   19MOL   C128 8804   3.663   3.271   5.009  0.3461  0.0353  0.1135
   19MOL   O129 8805   3.662   3.393   5.039 -0.5534  0.1092  0.0591
   19MOL   C130 8806   3.623   3.160   5.113 -0.1852 -0.0870  0.2557
   19MOL   C131 8807   3.750   3.128   5.189 -1.0674  0.2040 -0.5278
   19MOL   C132 8808   3.731   3.121   5.338  0.0148 -0.2907  0.4860
   19MOL   O133 8809   3.648   3.045   5.388 -0.7928  0.3265  0.5286
   19MOL   H134 8810   3.539   3.089   4.486 -0.1749 -0.1478 -0.8245
   19MOL   H135 8811   3.595   3.220   4.388 -1.7590  1.4317 -1.3740
   19MOL   H136 8812   3.508   3.218   4.696  0.0377 -2.5180 -2.1915
   19MOL   H137 8813   3.549   3.374   4.601  2.0810  0.9207 -0.1073
   19MOL   H138 8814   3.765   3.307   4.569  1.2372 -2.4368 -1.7618
   19MOL   H139 8815   3.748   3.155   4.631 -0.1009  0.2981 -1.0385
   19MOL   H140 8816   3.835   3.343   4.808  0.1101 -1.1253  0.3894
   19MOL   H141 8817   3.668   3.403   4.797 -0.8962 -0.6371  2.5727
   19MOL   H142 8818   3.592   3.069   5.062 -0.6785 -0.3872  1.0961
   19MOL   H143 8819   3.540   3.196   5.174  0.7733 -0.5113  1.8289
   19MOL   H144 8820   3.776   3.026   5.163  1.2787  0.5731  0.2158
   19MOL   H145 8821   3.836   3.194   5.172 -1.9079  1.6735  0.8161
   19MOL   O146 8822   3.830   3.194   5.391  0.2638 -0.3398  0.1047
   19MOL   C147 8823   3.860   3.179   5.531 -0.0665  0.2594 -0.1686
   19MOL   C148 8824   4.012   3.155   5.539  0.3997 -0.4199 -0.0671
   19MOL   C149 8825   4.053   3.151   5.683  0.1086 -0.4330  0.0922
   19MOL   C150 8826   4.201   3.136   5.716  0.2143 -0.2354  0.3363
   19MOL   O151 8827   4.212   3.159   5.855 -0.2549 -0.0306  0.1334
   19MOL   C152 8828   4.334   3.121   5.916  0.8625  0.0937 -0.6105
   19MOL   O153 8829   4.430   3.079   5.858 -0.2820 -0.0707  0.6430
   19MOL   C154 8830   4.318   3.132   6.064 -0.5703  0.2687 -0.0710
   19MOL   C155 8831   4.232   3.012   6.126 -0.0119  0.0323  0.1420
   19MOL   C156 8832   4.115   3.081   6.188  0.2036 -0.0931 -0.4070
   19MOL   O157 8833   4.008   3.103   6.128 -0.4430 -0.1150  0.2643
   19MOL   H158 8834   3.843   3.274   5.582  1.4363  0.6928 -0.4573
   19MOL   H159 8835   3.806   3.100   5.582  0.4750 -0.1953 -0.3023
   19MOL   H160 8836   4.060   3.239   5.488  2.2351 -1.5007 -0.1693
   19MOL   H161 8837   4.039   3.071   5.475 -3.2923 -0.0409 -2.2349
   19MOL   H162 8838   3.992   3.074   5.730  0.6657 -0.6611  0.4445
   19MOL   H163 8839   4.031   3.246   5.732  2.0993 -1.1778  2.4729
   19MOL   H164 8840   4.235   3.036   5.689 -1.1247 -0.6373  0.1195
   19MOL   H165 8841   4.265   3.208   5.666 -1.0976  0.3354 -0.5407
   19MOL   H166 8842   4.279   3.232   6.086  1.4389  1.0894 -0.0558
   19MOL   H167 8843   4.415   3.139   6.113 -0.3952 -2.6552  0.0391
   19MOL   H168 8844   4.198   2.943   6.049  2.0851  0.8453 -1.5634
   19MOL   H169 8845   4.283   2.943   6.193  0.1478 -1.3689 -1.4056
   19MOL   O170 8846   4.134   3.112   6.316  0.5607 -0.1358  0.1431
   19MOL   C171 8847   4.018   3.156   6.395  0.1224 -0.3023 -0.5329
   19MOL   C172 8848   4.068   3.134   6.534 -0.1475  0.5786 -0.4351
   19MOL   C173 8849   3.966   3.197   6.639  0.2518 -0.4027  0.1849
   19MOL   C174 8850   4.004   3.167   6.783  1.2949 -0.1574 -0.6591
   19MOL   O175 8851   4.015   3.024   6.790  0.3724  0.5201 -0.6189
   19MOL   C176 8852   4.064   2.960   6.902  1.2816 -0.2982 -0.7935
   19MOL   O177 8853   4.087   3.014   7.010 -0.2765 -0.1575 -0.0367
   19MOL   C178 8854   4.095   2.811   6.874 -0.4575  1.0267 -0.4207
   19MOL   C179 8855   3.972   2.713   6.850 -0.4139  0.6493  0.4731
   19MOL   C180 8856   3.909   2.655   6.971 -0.3489 -0.4648  0.3256
   19MOL   O181 8857   3.942   2.542   7.011  0.0577  0.0133 -0.5761
   19MOL   H182 8858   3.989   3.260   6.374  0.1841 -0.3740 -0.9821
   19MOL   H183 8859   3.937   3.086   6.379 -2.7027  2.4864  0.9294
   19MOL   H184 8860   4.164   3.178   6.560  0.2708 -1.3338  1.3893
   19MOL   H185 8861   4.074   3.028   6.557 -1.3343  0.5868 -0.0136
   19MOL   H186 8862   3.862   3.167   6.626  0.1549 -0.4833  1.1035
   19MOL   H187 8863   3.972   3.305   6.629  2.5483 -0.7301 -2.6248
   19MOL   H188 8864   4.098   3.214   6.811  0.3734  1.9010 -0.9465
   19MOL   H189 8865   3.921   3.198   6.847  1.8128  1.1475 -0.6179
   19MOL   H190 8866   4.156   2.777   6.957  0.4774 -2.4093 -2.4009
   19MOL   H191 8867   4.159   2.819   6.785  0.8962  0.0875  0.4546
   19MOL   H192 8868   3.899   2.777   6.800  1.2605  1.8297 -0.5108
   19MOL   H193 8869   4.003   2.639   6.776 -1.4223 -0.2064  0.8945
   19MOL   O194 8870   3.826   2.738   7.035 -0.2344 -0.6602  0.1752
   19MOL   C195 8871   3.779   2.698   7.165 -1.0272  0.4734  0.0865
   19MOL   C196 8872   3.711   2.812   7.236  0.1545  0.1173 -0.6156
   19MOL   C197 8873   3.807   2.935   7.256 -0.4554  0.3935 -0.1286
   19MOL   C198 8874   3.737   3.047   7.324  0.3952 -0.0499 -0.8527
   19MOL   O199 8875   3.637   3.094   7.235 -0.2180 -0.1432  0.3232
   19MOL   C200 8876   3.513   3.112   7.278  0.5287  0.5231  0.0581
   19MOL   O201 8877   3.465   3.097   7.395 -0.1884  0.2195  0.2779
   19MOL   C202 8878   3.425   3.160   7.163  0.2967 -1.1707 -0.2616
   19MOL   C203 8879   3.405   3.315   7.154 -0.3045  0.0930 -0.4204
   19MOL   C204 8880   3.463   3.389   7.034 -0.4106  0.6552  0.5406
   19MOL   O205 8881   3.478   3.511   7.032 -0.3950 -0.3325 -0.4048
   19MOL   H206 8882   3.713   2.613   7.146 -1.8540  1.4201 -1.3112
   19MOL   H207 8883   3.855   2.657   7.232  1.1691  2.3799 -1.1694
   19MOL   H208 8884   3.679   2.770   7.331 -1.1979  0.6047 -0.8432
   19MOL   H209 8885   3.612   2.841   7.201  0.9132  1.3851 -1.7784
   19MOL   H210 8886   3.852   2.960   7.160  0.7481 -0.3018  0.2532
   19MOL   H211 8887   3.880   2.901   7.329 -1.7680 -1.0208  0.5761
   19MOL   H212 8888   3.691   3.009   7.415  0.2082  0.6305 -0.6662
   19MOL   H213 8889   3.792   3.133   7.362  0.2743 -1.1238  1.8730
   19MOL   H214 8890   3.321   3.131   7.180  0.0939 -0.9011 -1.0362
   19MOL   H215 8891   3.465   3.119   7.070  1.8663  1.2689 -0.7032
   19MOL   H216 8892   3.299   3.336   7.144  0.1815  2.4730 -0.9559
   19MOL   H217 8893   3.453   3.374   7.232  0.8155 -0.5011 -0.6418
   19MOL   O218 8894   3.511   3.297   6.943 -0.0469  0.4150 -0.2297
   19MOL   C219 8895   3.564   3.343   6.815 -0.2799 -0.3086 -0.5969
   19MOL   C220 8896   3.535   3.241   6.707  0.4048 -1.0326 -0.1027
   19MOL   C221 8897   3.586   3.094   6.739  0.7819 -0.3429  0.0533
   19MOL   C222 8898   3.468   3.007   6.788  0.5488  0.6839  0.2526
   19MOL   O223 8899   3.519   2.873   6.803 -0.1533 -0.0559 -0.4079
   19MOL   C224 8900   3.446   2.769   6.749  0.3316  0.7863  0.1349
   19MOL   O225 8901   3.344   2.778   6.683 -0.0244 -0.2855 -0.1466
   19MOL   C226 8902   3.510   2.634   6.774 -0.0016  0.6011  0.4106
   19MOL   C227 8903   3.518   2.590   6.918 -0.1692  0.2742  0.1874
   19MOL   C228 8904   3.378   2.586   6.990 -0.6030 -0.4688  0.2882
   19MOL   O229 8905   3.277   2.521   6.950 -0.0629  0.1151 -0.6240
   19MOL   H230 8906   3.515   3.438   6.793 -1.3948 -1.0228 -1.2784
   19MOL   H231 8907   3.671   3.363   6.805 -0.4229 -0.0067 -1.5645
   19MOL   H232 8908   3.565   3.261   6.605 -1.2216  2.4850  0.0087
   19MOL   H233 8909   3.429   3.246   6.683  0.7381  0.4470 -1.4093
   19MOL   H234 8910   3.669   3.082   6.808  0.0236  0.7337  1.1636
   19MOL   H235 8911   3.617   3.052   6.644  1.1235 -0.7903  0.3648
   19MOL   H236 8912   3.425   3.055   6.876  2.0436  1.7730  0.4117
   19MOL   H237 8913   3.386   3.012   6.716  0.8640 -0.4769 -0.1993
   19MOL   H238 8914   3.611   2.639   6.733  0.5563 -1.9237  1.4167
   19MOL   H239 8915   3.466   2.566   6.702  0.4657  1.0495 -0.3080
   19MOL   H240 8916   3.560   2.490   6.915  0.5864  0.5422  1.6012
   19MOL   H241 8917   3.595   2.642   6.975 -0.2436  0.3879  0.1853
   19MOL   O242 8918   3.380   2.664   7.092 -0.1563  0.0757  0.1211
   19MOL   C243 8919   3.260   2.680   7.166  0.2105 -0.4282  0.0543
   19MOL   C244 8920   3.288   2.779   7.277  0.4668  0.0849 -0.1055
   19MOL   C245 8921   3.162   2.813   7.351  0.4874  0.3011 -0.0074
   19MOL   C246 8922   3.170   2.930   7.452  0.5934  0.1332 -0.2519
   19MOL   O247 8923   3.271   2.897   7.553  0.0529 -0.2007 -0.8767
   19MOL   C248 8924   3.230   2.851   7.679  0.0806  0.2855 -0.5576
   19MOL   O249 8925   3.110   2.833   7.712 -0.1106 -0.0548  0.2995
   19MOL   C250 8926   3.336   2.815   7.773 -0.2644  0.2860  0.3796
   19MOL   C251 8927   3.407   2.942   7.819 -0.1884  1.0473  0.6780
   19MOL   C252 8928   3.377   3.002   0.084 -1.0309  0.3691 -0.3274
   19MOL   O253 8929   3.324   2.939   0.172 -0.3743 -0.1403  0.0742
   19MOL   H254 8930   3.178   2.705   7.098  0.2773  1.4194  0.6069
   19MOL   H255 8931   3.224   2.588   7.212 -2.5313  0.4332 -0.2436
   19MOL   H256 8932   3.322   2.871   7.231 -0.5737  0.8202  0.5875
   19MOL   H257 8933   3.365   2.743   7.345  0.4213 -0.9105 -0.5607
   19MOL   H258 8934   3.125   2.726   7.406 -0.0469  0.4915 -0.0605
   19MOL   H259 8935   3.076   2.831   7.287 -1.2044  1.0093  2.3636
   19MOL   H260 8936   3.216   3.017   7.405 -0.0688 -0.3300 -1.7861
   19MOL   H261 8937   3.075   2.960   7.497  1.6120  0.3142  1.8216
   19MOL   H262 8938   3.413   2.756   7.722 -0.9364  0.5925 -0.9997
   19MOL   H263 8939   3.302   2.767   7.865 -2.6211  2.9579  0.9751
   19MOL   H264 8940   3.515   2.931   7.812 -0.3888  0.3147 -2.0532
   19MOL   H265 8941   3.380   3.025   7.754  2.0026 -0.7522 -2.6987
   19MOL   O266 8942   3.416   3.134   0.084 -0.5219 -0.2423  0.3685
   19MOL   C267 8943   3.400   3.213   0.202  0.4977 -0.5971 -0.1597
   19MOL   C268 8944   3.544   3.250   0.259 -0.1950 -0.3707 -0.2533
   19MOL   C269 8945   3.642   3.133   0.297 -0.6578 -0.2657 -0.6376
   19MOL   C270 8946   3.598   3.061   0.420  0.5176  1.0009 -0.3098
   19MOL   O271 8947   3.709   2.991   0.476 -0.0101  0.1556 -0.1904
   19MOL   C272 8948   3.690   2.875   0.535  0.5375  0.2718 -0.3736
   19MOL   O273 8949   3.584   2.827   0.573  0.0596  0.3118  0.0083
   19MOL   C274 8950   3.822   2.802   0.581 -0.3326  0.0852  0.2797
   19MOL   C275 8951   3.927   2.892   0.648  0.1783 -0.8766 -0.2025
   19MOL   C276 8952   4.069   2.863   0.616 -0.0415 -0.4047  0.8904
   19MOL   O277 8953   4.109   2.767   0.554 -0.1744  0.1054 -0.1206
   19MOL   H278 8954   3.345   3.305   0.182  1.6197  0.1695  0.2168
   19MOL   H279 8955   3.341   3.153   0.271 -0.4496 -0.4642 -0.8594
   19MOL   H280 8956   3.517   3.305   0.349 -0.6379 -1.2110  0.1382
   19MOL   H281 8957   3.609   3.314   0.200  2.2640 -0.8580  1.8816
   19MOL   H282 8958   3.735   3.181   0.327 -0.8611  1.3438 -2.4398
   19MOL   H283 8959   3.680   3.070   0.217  0.1950  3.6977 -3.4985
   19MOL   H284 8960   3.554   3.125   0.496 -0.1031  0.2564 -0.0403
   19MOL   H285 8961   3.519   2.991   0.392 -0.4525  1.1182  2.0721
   19MOL   H286 8962   3.865   2.759   0.490  1.1858 -1.7885  1.8540
   19MOL   H287 8963   3.777   2.725   0.642  2.0616  0.7568  3.0360
   19MOL   H288 8964   3.910   2.999   0.634  1.8216 -1.0527 -4.2298
   19MOL   H289 8965   3.921   2.880   0.756  0.5218 -1.3127 -0.2312
   19MOL   O290 8966   4.163   2.947   0.671 -0.1604  0.0625 -0.5995
   19MOL   C291 8967   4.306   2.928   0.648  0.4345 -0.1628  0.0354
   19MOL   C292 8968   4.367   2.853   0.773 -0.1429  0.2844  0.8839
   19MOL   C293 8969   4.379   2.938   0.896  0.2027  0.1483  0.5123
   19MOL   C294 8970   4.377   2.853   1.021  0.3312  0.4076 -0.4171
   19MOL   O295 8971   4.381   2.920   1.146  0.3337  0.1591  0.2158
   19MOL   C296 8972   4.498   2.959   1.195 -0.2440  0.5842 -0.3480
   19MOL   O297 8973   4.612   2.939   1.155 -0.5643 -0.0250 -0.6098
   19MOL   C298 8974   4.470   3.041   1.322 -0.1806 -0.0691 -0.7465
   19MOL   C299 8975   4.585   3.074   1.413 -0.0470 -0.1030  0.1602
   19MOL   C300 8976   4.577   2.990   1.534  0.1814  0.1079 -0.4859
   19MOL   O301 8977   4.669   2.924   1.578 -0.3209  0.2212 -0.2763
   19MOL   H302 8978   4.319   2.873   0.556 -4.3781 -1.0485 -0.2153
   19MOL   H303 8979   4.347   3.029   0.639 -0.3761  0.1732  0.0742
   19MOL   H304 8980   4.474   2.845   0.755 -0.3112  0.2867 -0.1543
   19MOL   H305 8981   4.321   2.755   0.788  0.0285  0.2771  1.3530
   19MOL   H306 8982   4.289   2.999   0.898 -0.7251 -1.2136  1.3510
   19MOL   H307 8983   4.465   3.003   0.879  1.1630 -0.7275  1.9103
   19MOL   H308 8984   4.287   2.791   1.020  1.2242 -0.9053 -1.5489
   19MOL   H309 8985   4.462   2.785   1.012  0.1439  0.2274 -0.8231
   19MOL   H310 8986   4.386   3.003   1.379  0.1583 -0.4284 -0.4829
   19MOL   H311 8987   4.442   3.142   1.295  1.8614  1.0525  1.1768
   19MOL   H312 8988   4.685   3.069   1.370  0.0781  0.5060  0.3811
   19MOL   H313 8989   4.584   3.180   1.438  3.2711 -0.1618  0.8363
   19MOL   O314 8990   4.460   3.006   1.599 -0.3962  0.0683 -0.2887
   19MOL   C315 8991   4.447   2.931   1.722  0.6995 -0.1495  0.0912
   19MOL   C316 8992   4.321   2.968   1.802  0.1267  0.7801  0.3873
   19MOL   C317 8993   4.283   2.874   1.920  0.1567 -0.0855  0.3932
   19MOL   C318 8994   4.143   2.902   1.974  0.2239  0.2972 -0.3551
   19MOL   O319 8995   4.127   3.029   2.033  0.6872 -0.1750 -0.3714
   19MOL   C320 8996   4.024   3.109   1.996 -0.3223  0.6458  0.0072
   19MOL   O321 8997   3.955   3.088   1.896 -0.0629  0.6358  0.6352
   19MOL   C322 8998   4.024   3.230   2.085  0.3666 -0.5862  0.0679
   19MOL   C323 8999   4.049   3.357   2.004  0.2544 -0.2623 -0.3243
   19MOL   C324 9000   3.994   3.476   2.076 -0.0078 -0.7385 -0.2433
   19MOL   O325 9001   4.073   3.567   2.113 -0.3921 -0.3465 -0.2180
   19MOL   H326 9002   4.450   2.823   1.704 -2.1048 -0.0086 -1.6341
   19MOL   H327 9003   4.532   2.948   1.788 -0.2255 -1.0801  1.5477
   19MOL   H328 9004   4.227   2.969   1.747  0.7898 -1.6871 -0.8555
   19MOL   H329 9005   4.326   3.070   1.842 -0.3861  1.5704 -1.4949
   19MOL   H330 9006   4.358   2.892   1.997  1.5132  0.7241 -1.0911
   19MOL   H331 9007   4.305   2.772   1.891  1.1427 -0.0871  1.1031
   19MOL   H332 9008   4.066   2.871   1.904  0.8269 -1.2775 -0.3521
   19MOL   H333 9009   4.121   2.829   2.051  1.2924  0.2568 -0.0829
   19MOL   H334 9010   4.107   3.212   2.153  2.0185  0.9883 -1.4762
   19MOL   H335 9011   3.940   3.237   2.153  0.2656 -2.1775  0.1224
   19MOL   H336 9012   4.154   3.370   1.977 -0.4081  2.5437 -1.7407
   19MOL   H337 9013   3.986   3.344   1.916  1.2727  2.1157 -1.4536
   19MOL   O338 9014   3.855   3.480   2.084  0.1392  0.1214  0.0245
   19MOL   C339 9015   3.784   3.590   2.141 -0.7542 -0.5079 -0.0366
   19MOL   C340 9016   3.682   3.645   2.040 -0.5292  0.0187 -0.3490
   19MOL   C341 9017   3.557   3.562   2.044  0.7396 -0.2915  0.2363
   19MOL   C342 9018   3.450   3.594   1.927 -0.4185 -0.0686 -0.2204
   19MOL   O343 9019   3.429   3.736   1.910 -0.2932  0.5284  0.1123
   19MOL   C344 9020   3.504   3.805   1.823 -0.6467  0.7791 -0.7751
   19MOL   O345 9021   3.596   3.754   1.759 -0.3704  0.0022 -0.4971
   19MOL   C346 9022   3.465   3.954   1.807 -0.6443  0.5060  0.0319
   19MOL   C347 9023   3.369   3.995   1.904 -0.0972  0.4497 -0.0104
   19MOL   C348 9024   3.438   4.052   2.028  0.4015  0.0879  0.6107
   19MOL   O349 9025   3.505   4.157   2.031 -0.4127 -0.0699  0.0199
   19MOL   H350 9026   3.731   3.570   2.234 -0.6690 -0.4724  0.0197
   19MOL   H351 9027   3.861   3.666   2.158  0.2917 -1.4085 -0.6329
   19MOL   H352 9028   3.735   3.638   1.945 -2.5390  1.0460 -1.5737
   19MOL   H353 9029   3.658   3.749   2.061  0.2775 -0.3620  2.7507
   19MOL   H354 9030   3.502   3.576   2.137 -0.8390  1.0645 -0.8727
   19MOL   H355 9031   3.588   3.458   2.056  0.3298 -0.1076  3.4350
   19MOL   H356 9032   3.479   3.541   1.837  0.1320  0.6681 -0.4848
   19MOL   H357 9033   3.355   3.545   1.952 -0.2568 -0.8121 -1.0352
   19MOL   H358 9034   3.418   3.977   1.711 -2.8055  0.1362  0.9776
   19MOL   H359 9035   3.548   4.025   1.804  0.3158 -0.5865  0.7642
   19MOL   H360 9036   3.323   4.080   1.854 -3.6047 -1.1802  0.3160
   19MOL   H361 9037   3.292   3.921   1.927 -1.2148  1.2954 -0.9726
   19MOL   O362 9038   3.412   3.977   2.124  0.2262  0.4384  0.1440
   19MOL   C363 9039   3.449   4.010   2.257 -0.0529  0.3878 -0.5434
   19MOL   C364 9040   3.352   3.980   2.372  0.4039 -0.6642 -0.0351
   19MOL   C365 9041   3.221   4.058   2.370  0.0693 -0.7281 -0.7931
   19MOL   C366 9042   3.117   4.009   2.479 -0.2430  0.0088  1.2117
   19MOL   O367 9043   3.166   4.010   2.611  0.0127  0.2492  0.3476
   19MOL   C368 9044   3.086   4.054   2.711  0.0602  0.5269 -0.2724
   19MOL   O369 9045   2.974   4.099   2.693 -0.5269  0.4237 -0.3325
   19MOL   C370 9046   3.164   4.044   2.840 -0.9115 -0.7844  0.9100
   19MOL   C371 9047   3.089   4.122   2.948  0.4362  0.7082 -0.0266
   19MOL   C372 9048   3.023   4.030   3.058  0.0265 -0.5457  1.1735
   19MOL   O373 9049   3.088   4.004   3.161 -0.2121 -0.1822  0.1695
   19MOL   H374 9050   3.530   3.939   2.275 -0.3073 -0.7601 -3.6366
   19MOL   H375 9051   3.483   4.112   2.272  1.3544 -0.4459  2.2091
   19MOL   H376 9052   3.397   3.991   2.471 -1.6692 -2.3753  1.1589
   19MOL   H377 9053   3.333   3.873   2.361  1.2186 -1.4019  4.7304
   19MOL   H378 9054   3.172   4.053   2.273 -0.4850  1.1950 -0.6276
   19MOL   H379 9055   3.246   4.164   2.383 -0.4377 -0.8988  1.7608
   19MOL   H380 9056   3.031   4.075   2.469  0.9545  1.2538 -1.4391
   19MOL   H381 9057   3.078   3.913   2.444  0.3272  0.7685 -1.6666
   19MOL   H382 9058   3.264   4.085   2.828 -1.0743 -0.7966 -0.5011
   19MOL   H383 9059   3.176   3.939   2.867  0.3672 -0.9745 -0.3800
   19MOL   H384 9060   3.168   4.181   2.993 -0.8279  1.2756  1.4787
   19MOL   H385 9061   3.015   4.190   2.904 -0.0003 -0.1790 -0.7040
   19MOL   O386 9062   2.904   3.985   3.023 -0.2699 -0.6048 -0.3020
   19MOL   C387 9063   2.835   3.882   3.094  0.1925 -0.6483  0.1490
   19MOL   C388 9064   2.895   3.746   3.067 -0.5433 -0.3895 -0.4707
   19MOL   C389 9065   2.797   3.634   3.091  0.4663  0.1521 -0.3823
   19MOL   C390 9066   2.843   3.491   3.048 -0.1003  0.2832 -0.0498
   19MOL   O391 9067   2.740   3.408   3.109 -0.0053  0.2811 -0.1754
   19MOL   C392 9068   2.675   3.305   3.045  0.4969 -0.2245  0.5572
   19MOL   O393 9069   2.678   3.278   2.925  0.0005  0.3474 -0.3901
   19MOL   C394 9070   2.613   3.213   3.148 -0.1119  0.5496 -0.5011
   19MOL   C395 9071   2.540   3.099   3.074 -0.2608  0.4186 -0.1495
   19MOL   C396 9072   2.392   3.106   3.048  0.5086 -0.0431  0.0728
   19MOL   O397 9073   2.337   3.211   3.014  0.1495 -0.2470  0.2069
   19MOL   H398 9074   2.824   3.906   3.200 -0.4045  2.2875 -0.5113
   19MOL   H399 9075   2.741   3.890   3.039  0.0824  3.9013  0.8074
   19MOL   H400 9076   2.979   3.728   3.134 -0.6245 -0.0178 -0.2702
   19MOL   H401 9077   2.932   3.730   2.965  1.2168 -0.5764  0.1775
   19MOL   H402 9078   2.702   3.659   3.044 -0.0257 -0.4574  0.2733
   19MOL   H403 9079   2.768   3.633   3.196 -0.6628  2.1486 -0.6497
   19MOL   H404 9080   2.828   3.481   2.941  0.6672  0.8916 -0.2145
   19MOL   H405 9081   2.945   3.474   3.080  0.0595  0.1761 -0.6193
   19MOL   H406 9082   2.537   3.268   3.204 -0.5850 -0.7345  0.1162
   19MOL   H407 9083   2.675   3.169   3.225 -1.4164 -1.4442 -0.5518
   19MOL   H408 9084   2.577   3.070   2.976  0.5865  0.1676  0.2371
   19MOL   H409 9085   2.555   3.005   3.128 -5.2619 -1.5514 -1.8778
   19MOL   O410 9086   2.335   2.998   3.063  0.4805  0.3698  0.3035
   19MOL   C411 9087   2.218   2.971   2.983 -0.3529  0.1191  0.0479
   19MOL   C412 9088   2.155   2.832   3.020 -0.4009 -0.3652 -0.1093
   19MOL   C413 9089   2.113   2.830   3.176  0.4224 -0.0418  0.2609
   19MOL   C414 9090   2.018   2.710   3.205 -0.2189  0.2710 -0.6232
   19MOL   O415 9091   2.117   2.608   3.228 -0.2409  0.2039 -0.7138
   19MOL   C416 9092   2.090   2.484   3.228 -0.3043 -0.1348 -0.2645
   19MOL   O417 9093   1.980   2.443   3.191  0.3237 -0.2585 -0.2153
   19MOL   C418 9094   2.203   2.399   3.275 -0.2148  0.0956 -0.4266
   19MOL   C419 9095   2.224   2.280   3.179 -0.4353  0.0497  0.5922
   19MOL   C420 9096   2.312   2.303   3.055 -0.3414 -0.0098 -0.2330
   19MOL   O421 9097   2.430   2.261   3.049 -0.1454  0.4250  0.0537
   19MOL   H422 9098   2.145   3.051   2.998 -0.8981 -0.2031 -0.8982
   19MOL   H423 9099   2.245   2.970   2.878 -0.5205  2.1077 -0.0506
   19MOL   H424 9100   2.223   2.750   2.997  0.9868  0.5814  0.5139
   19MOL   H425 9101   2.064   2.821   2.960  0.3998  0.0294 -1.4165
   19MOL   H426 9102   2.057   2.922   3.189 -0.7666 -0.8371  0.8400
   19MOL   H427 9103   2.197   2.831   3.247  1.3034  0.0623 -0.7690
   19MOL   H428 9104   1.963   2.717   3.299  0.2135 -0.2232 -0.3327
   19MOL   H429 9105   1.945   2.684   3.127 -0.6735  0.4371 -0.2563
   19MOL   H430 9106   2.185   2.359   3.375  0.5459  1.0533  0.0985
   19MOL   H431 9107   2.295   2.454   3.290 -1.1353  1.4340  0.4072
   19MOL   H432 9108   2.287   2.207   3.230 -1.6126 -1.3041  0.1151
   19MOL   H433 9109   2.132   2.230   3.150 -0.9235  1.5515 -0.5220
   19MOL   O434 9110   2.243   2.370   2.957  0.1199  0.3406 -0.3797
   19MOL   C435 9111   2.303   2.406   2.836 -0.2010 -0.0260  0.4165
   19MOL   C436 9112   2.236   2.517   2.758 -0.0826  0.3359  0.5430
   19MOL   C437 9113   2.328   2.541   2.641 -0.3036  0.5357  0.0917
   19MOL   C438 9114   2.275   2.641   2.539  1.1154  0.6559  0.1925
   19MOL   O439 9115   2.219   2.757   2.583  0.1445 -0.0086 -0.2560
   19MOL   C440 9116   2.088   2.798   2.542  0.1077 -0.1150 -0.3862
   19MOL   O441 9117   2.015   2.752   2.457  0.1804  0.5251  0.1988
   19MOL   C442 9118   2.047   2.925   2.616 -0.3909 -0.6365  0.1566
   19MOL   C443 9119   2.147   3.033   2.601 -0.5723  0.6719  0.6559
   19MOL   C444 9120   2.119   3.155   2.688  0.3585 -1.0647 -0.5986
   19MOL   O445 9121   2.031   3.160   2.774 -0.2909 -0.3979  0.2895
   19MOL   H446 9122   2.397   2.450   2.869 -1.7428  3.7429  0.0038
   19MOL   H447 9123   2.327   2.320   2.773 -0.7596  0.1646 -0.0609
   19MOL   H448 9124   2.231   2.607   2.819 -0.4757  2.3684 -2.3610
   19MOL   H449 9125   2.140   2.492   2.713 -0.0092  0.3571  0.3728
   19MOL   H450 9126   2.353   2.446   2.594 -2.4335  0.6108 -1.2674
   19MOL   H451 9127   2.423   2.582   2.674  0.9955 -1.5354 -0.9653
   19MOL   H452 9128   2.358   2.666   2.473  1.1334  0.5812  0.1866
   19MOL   H453 9129   2.210   2.589   2.469 -0.9651 -0.2759  2.7247
   19MOL   H454 9130   2.031   2.901   2.721  2.6978  2.5312  1.4234
   19MOL   H455 9131   1.952   2.968   2.584  0.5648  1.8630  0.6307
   19MOL   H456 9132   2.249   2.994   2.611 -0.3263  1.0329 -0.4023
   19MOL   H457 9133   2.149   3.060   2.496 -4.5590 -0.4244  0.2351
   19MOL   O458 9134   2.208   3.256   2.665  0.2147  0.0276 -0.0644
   19MOL   C459 9135   2.216   3.365   2.760  0.6380  0.4241  0.6420
   19MOL   C460 9136   2.362   3.429   2.759 -0.1209 -0.3045  0.5291
   19MOL   C461 9137   2.370   3.547   2.860 -0.2331  0.4363 -0.6378
   19MOL   C462 9138   2.516   3.614   2.851 -1.0392  0.0198  0.4449
   19MOL   O463 9139   2.513   3.677   2.725 -0.4265 -0.3510 -0.2545
   19MOL   C464 9140   2.612   3.762   2.714  0.2850 -0.0789 -1.0361
   19MOL   O465 9141   2.703   3.779   2.795 -0.3301 -0.0334  0.0461
   19MOL   C466 9142   2.602   3.847   2.591 -0.3682 -0.6798  0.0998
   19MOL   C467 9143   2.736   3.907   2.546  0.0737  0.3583 -0.2593
   19MOL   C468 9144   2.783   3.847   2.409  0.1110 -0.3421  0.0178
   19MOL   O469 9145   2.701   3.841   2.318  0.2712  0.2453  0.9482
   19MOL   H470 9146   2.144   3.441   2.729 -0.2840 -0.8156 -0.3135
   19MOL   H471 9147   2.175   3.346   2.859 -0.6186  2.6544  0.5869
   19MOL   H472 9148   2.384   3.470   2.661 -1.2554 -0.8436  0.0336
   19MOL   H473 9149   2.441   3.357   2.781 -2.3563 -4.2874 -3.4788
   19MOL   H474 9150   2.349   3.500   2.956  1.5040 -0.1230 -0.5063
   19MOL   H475 9151   2.295   3.622   2.835 -0.6733  1.0324  2.2918
   19MOL   H476 9152   2.533   3.682   2.933  2.3762  1.1606 -1.0924
   19MOL   H477 9153   2.599   3.544   2.838 -0.0324  1.5819 -2.0347
   19MOL   H478 9154   2.528   3.927   2.603 -0.6217 -0.6442 -1.5811
   19MOL   H479 9155   2.562   3.783   2.513 -2.6389  0.6979  0.0662
   19MOL   H480 9156   2.725   4.015   2.537 -0.3082  0.2058 -1.7070
   19MOL   H481 9157   2.810   3.903   2.626  1.1070  2.2740 -1.0810
   19MOL   H482 9158   2.890   3.828   2.398  0.6733  2.8895 -0.6457
   20MOL     O1 9159   4.592   5.542   7.379  0.8549 -0.3507  0.3917
   20MOL     C2 9160   4.572   5.663   7.454 -0.1796  0.4796  0.1251
   20MOL     C3 9161   4.706   5.702   7.524  0.3039 -0.0346 -0.4361
   20MOL     C4 9162   4.756   5.600   7.628 -0.0423 -0.1634 -0.1972
   20MOL     C5 9163   4.828   5.476   7.572 -0.2174 -0.1486 -0.6299
   20MOL     O6 9164   4.858   5.398   7.687  0.2409 -0.4953  0.3728
   20MOL     C7 9165   4.924   5.279   7.668  0.0171 -0.5184 -0.5657
   20MOL     O8 9166   4.995   5.258   7.573  1.2086 -0.0051  0.2038
   20MOL     C9 9167   4.913   5.175   7.779  0.4335  0.2608 -0.9117
   20MOL    C10 9168   4.932   5.023   7.752  0.2070  0.4261  0.1358
   20MOL    C11 9169   4.979   4.937   0.002  0.5253 -0.6968  0.7577
   20MOL    O12 9170   5.052   4.984   0.090 -0.3304  0.7492  0.7379
   20MOL    H13 9171   4.533   5.742   7.389 -3.8414 -0.7718  0.6986
   20MOL    H14 9172   4.504   5.657   7.539 -1.5687 -2.9125 -1.1454
   20MOL    H15 9173   4.671   5.788   7.581  1.7577  1.2290 -1.4174
   20MOL    H16 9174   4.775   5.731   7.444  1.2359 -1.5626 -0.1988
   20MOL    H17 9175   4.683   5.576   7.705  2.6657 -2.3493  1.7742
   20MOL    H18 9176   4.828   5.656   7.686 -1.8665  0.6511  1.3422
   20MOL    H19 9177   4.765   5.407   7.516  0.7069 -1.2951 -0.2822
   20MOL    H20 9178   4.924   5.495   7.523 -0.3649 -0.7157 -1.1350
   20MOL    H21 9179   4.815   5.186   7.826 -0.6770  0.3552 -3.1911
   20MOL    H22 9180   4.982   5.204   7.859 -1.0761 -0.4790  0.6978
   20MOL    H23 9181   4.839   4.972   7.725  0.6189 -1.2599  1.7803
   20MOL    H24 9182   5.011   5.014   7.678  2.0270 -0.5033  2.1728
   20MOL    H25 9183   4.665   5.559   7.321  0.3433  2.2663  0.4678
   20MOL    O26 9184   4.939   4.813   7.865 -0.2174  0.3662  0.9419
   20MOL    C27 9185   4.975   4.719   0.095 -0.5768 -0.1667  0.7872
   20MOL    C28 9186   5.017   4.587   0.031 -0.9719 -0.1018 -0.6360
   20MOL    C29 9187   5.156   4.601   7.840  0.1466 -0.3868  0.0626
   20MOL    C30 9188   5.200   4.501   7.733 -0.2485 -0.1905 -1.0940
   20MOL    O31 9189   5.190   4.379   7.807  0.7655 -0.6165  0.4487
   20MOL    C32 9190   5.244   4.270   7.742 -0.0013  0.4131  0.2562
   20MOL    O33 9191   5.299   4.271   7.630 -0.1389 -0.2850  0.3998
   20MOL    C34 9192   5.240   4.140   7.828  0.8017 -0.7475  0.2826
   20MOL    C35 9193   5.374   4.062   7.820 -0.1120 -0.1140 -0.0719
   20MOL    C36 9194   5.352   3.932   7.741  0.2290 -0.2274  0.4218
   20MOL    O37 9195   5.340   3.940   7.616 -0.3719  1.1604  0.3597
   20MOL    H38 9196   5.047   4.755   0.168 -0.5134  1.7392 -0.2028
   20MOL    H39 9197   4.883   4.713   0.154 -0.8953 -0.1373  0.3008
   20MOL    H40 9198   4.940   4.556   7.835 -0.1630  1.6005 -2.2890
   20MOL    H41 9199   5.022   4.513   0.111 -1.2008  1.7824  1.1413
   20MOL    H42 9200   5.236   4.614   0.038 -0.1314  2.3035 -0.0877
   20MOL    H43 9201   5.166   4.698   7.791  0.4483  0.2265  1.3407
   20MOL    H44 9202   5.130   4.488   7.650 -0.9020 -1.5345 -0.3451
   20MOL    H45 9203   5.302   4.522   7.701  1.0985 -1.3814  2.1913
   20MOL    H46 9204   5.153   4.078   7.807  0.6993  0.3402 -2.7281
   20MOL    H47 9205   5.228   4.169   0.058  0.8788 -2.0051  0.6505
   20MOL    H48 9206   5.441   4.114   7.752 -2.1741  0.8284 -1.4187
   20MOL    H49 9207   5.415   4.044   0.045 -1.5173  1.9565  0.9131
   20MOL    O50 9208   5.382   3.821   7.805 -0.3307  0.3317  0.5321
   20MOL    C51 9209   5.381   3.701   7.725 -1.2604  0.2323  0.6288
   20MOL    C52 9210   5.446   3.586   7.799  0.3228  0.7675 -0.4925
   20MOL    C53 9211   5.437   3.464   7.709  0.0407  0.4898 -0.0565
   20MOL    C54 9212   5.505   3.350   7.778 -0.1746  0.3233 -0.1066
   20MOL    O55 9213   5.490   3.237   7.693 -0.2269  0.3985 -0.1519
   20MOL    C56 9214   5.537   3.118   7.741 -0.1186 -0.5230 -0.6867
   20MOL    O57 9215   5.573   3.089   7.857 -0.1965 -0.4681  0.8275
   20MOL    C58 9216   5.526   3.011   7.636 -0.0277 -1.0627 -0.1808
   20MOL    C59 9217   5.395   2.939   7.636  0.0526  0.4804  0.0356
   20MOL    C60 9218   5.337   2.948   7.492  1.2381 -0.2900 -0.1674
   20MOL    O61 9219   5.274   2.855   7.449 -0.2233  0.3263 -0.1875
   20MOL    H62 9220   5.282   3.670   7.694 -0.3370 -1.0525 -1.1355
   20MOL    H63 9221   5.432   3.706   7.628  0.3450  0.7062  1.4756
   20MOL    H64 9222   5.386   3.574   0.015 -2.9054  0.3215 -2.6137
   20MOL    H65 9223   5.549   3.615   7.819  0.5659  0.9160 -1.8850
   20MOL    H66 9224   5.477   3.485   7.610  0.2619  2.0645  0.3480
   20MOL    H67 9225   5.334   3.430   7.692  0.2202  0.3361 -0.8510
   20MOL    H68 9226   5.612   3.369   7.786 -0.0496 -0.6498  0.6264
   20MOL    H69 9227   5.467   3.345   0.005  0.5871 -1.1691  0.1149
   20MOL    H70 9228   5.598   2.930   7.646 -0.2634 -1.2327  0.1417
   20MOL    H71 9229   5.561   3.067   7.549  0.8345  2.2766  2.2103
   20MOL    H72 9230   5.428   2.837   7.654  0.3754  0.8032  1.2944
   20MOL    H73 9231   5.326   2.969   7.715 -0.2766 -1.0343  0.3207
   20MOL    O74 9232   5.362   3.062   7.427  0.3532  0.3085  0.4259
   20MOL    C75 9233   5.330   3.071   7.291 -0.8420  0.8005 -0.1672
   20MOL    C76 9234   5.461   3.026   7.216 -0.7088  0.3514  0.4675
   20MOL    C77 9235   5.458   3.071   7.067  0.2041  0.4167  0.0701
   20MOL    C78 9236   5.572   3.021   6.980  0.6928 -0.0166 -0.2689
   20MOL    O79 9237   5.577   2.875   6.968 -0.1683  0.6634  0.4524
   20MOL    C80 9238   5.695   2.807   6.942 -1.4839  0.3255 -0.2271
   20MOL    O81 9239   5.808   2.857   6.938  0.4356  0.4269 -0.3454
   20MOL    C82 9240   5.681   2.656   6.938  0.6819 -0.2639 -0.0442
   20MOL    C83 9241   5.566   2.604   6.860  0.6984 -0.2444 -1.1241
   20MOL    C84 9242   5.461   2.532   6.937  0.0327 -0.3292 -0.1508
   20MOL    O85 9243   5.447   2.409   6.927  0.1609  0.3932  0.3109
   20MOL    H86 9244   5.253   3.005   7.251 -0.7328  0.7205 -0.2468
   20MOL    H87 9245   5.328   3.178   7.269 -0.2562  0.7245 -0.6084
   20MOL    H88 9246   5.468   2.918   7.232 -2.5155  0.2305  0.5574
   20MOL    H89 9247   5.551   3.073   7.257 -0.1257  0.0962 -0.4926
   20MOL    H90 9248   5.451   3.180   7.067 -0.0050  0.4192 -1.3386
   20MOL    H91 9249   5.365   3.044   7.017  0.1233  2.2216 -0.8116
   20MOL    H92 9250   5.549   3.071   6.886 -0.5131  2.0996  1.1151
   20MOL    H93 9251   5.671   3.043   7.020 -0.0089  2.3206  0.2215
   20MOL    H94 9252   5.683   2.608   7.036  0.4817 -0.9050 -0.3567
   20MOL    H95 9253   5.779   2.623   6.903  2.7982  1.7142  3.6330
   20MOL    H96 9254   5.524   2.688   6.804 -1.0106  0.4004  1.0845
   20MOL    H97 9255   5.606   2.528   6.793 -0.8869  0.6213 -3.1281
   20MOL    O98 9256   5.387   2.619   7.015 -0.3153  0.0586 -1.2601
   20MOL    C99 9257   5.286   2.568   7.107  0.5752 -0.3481 -0.0235
   20MOL   C100 9258   5.159   2.656   7.101 -0.5942  0.1955  0.0104
   20MOL   C101 9259   5.071   2.630   7.230 -0.4083  0.2333  0.0467
   20MOL   C102 9260   4.970   2.742   7.247  0.1061  0.5161 -0.1219
   20MOL   O103 9261   4.892   2.754   7.126 -0.6904  0.6816  0.2432
   20MOL   C104 9262   4.779   2.844   7.129  0.0214 -0.0773 -0.6408
   20MOL   O105 9263   4.749   2.926   7.216 -0.2954  0.0587  0.7518
   20MOL   C106 9264   4.686   2.826   7.004  0.0671  0.0325 -0.0984
   20MOL   C107 9265   4.596   2.955   6.985  0.0563  0.3126  0.0632
   20MOL   C108 9266   4.644   3.055   6.881  0.1461  0.0887  0.4983
   20MOL   O109 9267   4.712   3.012   6.782 -0.2553  0.8143 -0.3183
   20MOL   H110 9268   5.251   2.466   7.094 -2.0080  0.2695  1.7456
   20MOL   H111 9269   5.330   2.573   7.207  2.2489 -0.2795 -0.7524
   20MOL   H112 9270   5.113   2.633   7.005  0.7650  1.3585 -0.9323
   20MOL   H113 9271   5.194   2.759   7.106  0.7645 -0.2412 -0.1269
   20MOL   H114 9272   5.130   2.622   7.320 -0.9037 -3.0782  0.1727
   20MOL   H115 9273   5.021   2.533   7.221  0.8626 -0.2952 -1.6823
   20MOL   H116 9274   4.890   2.725   7.319 -1.2659 -0.2754 -1.7955
   20MOL   H117 9275   5.011   2.838   7.277  3.5611 -0.8340 -0.2063
   20MOL   H118 9276   4.612   2.747   7.019  1.3066 -1.1494 -0.1182
   20MOL   H119 9277   4.747   2.793   6.920 -0.7247  0.5165 -0.8778
   20MOL   H120 9278   4.491   2.937   6.962  0.2909 -1.4779  0.3203
   20MOL   H121 9279   4.595   3.011   7.079  2.2204  0.6606 -0.0931
   20MOL   O122 9280   4.575   3.173   6.887  0.0161  0.4714  0.0305
   20MOL   C123 9281   4.599   3.271   6.783 -0.7690 -0.7821  0.3596
   20MOL   C124 9282   4.631   3.404   6.848 -0.0057 -0.1195  0.4440
   20MOL   C125 9283   4.627   3.526   6.745  0.8965  0.0896 -0.3754
   20MOL   C126 9284   4.668   3.660   6.807  0.5334 -0.2429  0.4796
   20MOL   O127 9285   4.808   3.684   6.819  0.0861  0.6475  0.2342
   20MOL   C128 9286   4.888   3.733   6.727  0.2174 -0.3290  0.2539
   20MOL   O129 9287   4.863   3.763   6.605  0.2498 -0.0578 -0.5487
   20MOL   C130 9288   5.028   3.745   6.784  0.1536 -0.3452 -0.4217
   20MOL   C131 9289   5.031   3.821   6.919 -0.6553 -0.7287  0.2019
   20MOL   C132 9290   5.157   3.916   6.928  0.3344 -0.0024  0.2914
   20MOL   O133 9291   5.275   3.878   6.955  0.1227  0.1191  0.3215
   20MOL   H134 9292   4.688   3.249   6.724 -0.7523  1.2512 -0.3850
   20MOL   H135 9293   4.510   3.284   6.722 -0.5830  0.3347  0.3155
   20MOL   H136 9294   4.725   3.408   6.902 -0.5472  3.1093  1.2825
   20MOL   H137 9295   4.545   3.428   6.912  0.7544  2.7572  0.4724
   20MOL   H138 9296   4.520   3.538   6.729  0.9184  1.5072  0.4578
   20MOL   H139 9297   4.673   3.502   6.650 -0.6008  0.6480 -1.2618
   20MOL   H140 9298   4.629   3.735   6.738  1.5615  1.3625  1.6061
   20MOL   H141 9299   4.632   3.682   6.908  1.0741 -0.7830  0.7965
   20MOL   H142 9300   5.077   3.814   6.715 -0.2506 -0.3837 -0.7463
   20MOL   H143 9301   5.088   3.655   6.792  2.8149  1.1579 -2.6489
   20MOL   H144 9302   4.944   3.887   6.916 -0.2300 -0.0786  2.0966
   20MOL   H145 9303   5.015   3.755   7.004 -0.3241  0.7959  1.4619
   20MOL   O146 9304   5.119   4.046   6.886  0.4024  0.0098 -0.1214
   20MOL   C147 9305   5.207   4.155   6.889 -0.1898  0.3274  0.4193
   20MOL   C148 9306   5.204   4.229   7.025 -0.1527  0.1035 -0.1533
   20MOL   C149 9307   5.067   4.306   7.034 -0.8185 -0.1185  0.1177
   20MOL   C150 9308   5.061   4.415   7.144 -0.2572 -0.0326  0.2863
   20MOL   O151 9309   5.073   4.365   7.276  0.0293  0.4567  0.0344
   20MOL   C152 9310   4.961   4.318   7.343 -0.9155 -0.2467 -0.5316
   20MOL   O153 9311   4.849   4.312   7.295 -0.3627  0.1811 -0.1246
   20MOL   C154 9312   4.992   4.269   7.485 -0.0384  0.5396  0.3053
   20MOL   C155 9313   4.858   4.228   7.562 -0.5404  0.0932  0.6644
   20MOL   C156 9314   4.874   4.130   7.679 -0.1848 -0.0839  0.5963
   20MOL   O157 9315   4.884   4.015   7.651 -0.1822  0.0289 -0.3230
   20MOL   H158 9316   5.304   4.108   6.877  1.7906  3.7194  2.4178
   20MOL   H159 9317   5.190   4.225   6.808 -0.1101  0.0337  0.1503
   20MOL   H160 9318   5.288   4.297   7.038 -0.1486  0.3158 -1.2923
   20MOL   H161 9319   5.206   4.153   7.104 -4.4342  0.7219  0.6715
   20MOL   H162 9320   4.999   4.222   7.049  0.3946 -1.8045 -3.2805
   20MOL   H163 9321   5.046   4.337   6.931  0.3628 -0.9443 -0.3842
   20MOL   H164 9322   5.131   4.498   7.134 -1.3202  0.6943 -1.2520
   20MOL   H165 9323   4.964   4.464   7.137 -0.1193  0.1977 -0.0367
   20MOL   H166 9324   5.064   4.331   7.537 -0.1832  1.5357 -0.6515
   20MOL   H167 9325   5.054   4.179   7.478 -1.1626 -0.2563  0.3032
   20MOL   H168 9326   4.807   4.317   7.601 -3.2524 -1.3312  0.4718
   20MOL   H169 9327   4.777   4.185   7.504 -0.9508  0.5725  0.8796
   20MOL   O170 9328   4.867   4.185   7.804 -0.3679 -0.4603 -0.4376
   20MOL   C171 9329   4.898   4.111   0.047 -0.4545  0.4534  0.3300
   20MOL   C172 9330   4.754   4.096   0.111 -1.1601  0.4188 -0.6534
   20MOL   C173 9331   4.694   4.220   0.176 -0.6165  0.1482 -0.4577
   20MOL   C174 9332   4.557   4.200   0.232  0.6090 -0.0643  0.2851
   20MOL   O175 9333   4.559   4.111   0.336  0.0634 -0.4485  0.2389
   20MOL   C176 9334   4.444   4.042   0.367 -0.6851  0.5004 -0.2682
   20MOL   O177 9335   4.340   4.053   0.310  0.3589  0.5821  0.2219
   20MOL   C178 9336   4.451   3.963   0.499  0.1273 -0.0546  0.3679
   20MOL   C179 9337   4.514   4.043   0.612  0.5157 -0.1604 -0.0680
   20MOL   C180 9338   4.636   3.971   0.669 -0.4215 -0.5179 -0.0218
   20MOL   O181 9339   4.653   3.970   0.792  0.3849 -1.2075  0.0624
   20MOL   H182 9340   4.944   4.018   0.016 -0.6750  0.3183  0.4067
   20MOL   H183 9341   4.955   4.171   0.118  0.5919  0.1679 -0.2554
   20MOL   H184 9342   4.752   4.010   0.178 -0.7281 -0.2895 -1.5429
   20MOL   H185 9343   4.683   4.067   0.034 -2.4822 -2.2299  1.4503
   20MOL   H186 9344   4.695   4.305   0.108  0.5044  0.1302 -0.4735
   20MOL   H187 9345   4.754   4.246   0.263 -0.9631  1.6107 -0.6522
   20MOL   H188 9346   4.517   4.300   0.250  1.8936 -0.0664  3.4446
   20MOL   H189 9347   4.494   4.166   0.150 -1.3908  1.7915  1.0152
   20MOL   H190 9348   4.515   3.878   0.474  0.0601  0.4545 -1.6303
   20MOL   H191 9349   4.348   3.931   0.515  0.1573 -0.2226  0.2374
   20MOL   H192 9350   4.532   4.144   0.576 -1.7023 -0.1436 -1.2074
   20MOL   H193 9351   4.431   4.055   0.682  0.2631  0.0531 -0.4013
   20MOL   O194 9352   4.730   3.932   0.579  0.4371  0.4545 -0.1664
   20MOL   C195 9353   4.853   3.882   0.620  0.0953  0.3231  0.0815
   20MOL   C196 9354   4.962   3.985   0.646  0.2675  0.3074  0.5035
   20MOL   C197 9355   4.980   4.085   0.533 -0.1646 -0.2321  0.6919
   20MOL   C198 9356   5.022   4.030   0.401 -0.3887  0.0460  0.2272
   20MOL   O199 9357   5.118   3.925   0.413  0.5503 -0.0275 -0.2545
   20MOL   C200 9358   5.229   3.929   0.342  0.0394 -0.5551 -0.0155
   20MOL   O201 9359   5.263   4.019   0.270  0.8258 -0.5332 -0.3516
   20MOL   C202 9360   5.318   3.812   0.389  0.1419  0.8054  0.0821
   20MOL   C203 9361   5.452   3.791   0.322 -0.5422 -0.0238 -0.4708
   20MOL   C204 9362   5.570   3.812   0.432 -0.2206  0.2921  0.3233
   20MOL   O205 9363   5.544   3.883   0.535 -0.6446 -0.3187  0.6762
   20MOL   H206 9364   4.847   3.815   0.705  1.1334  0.7982  0.5361
   20MOL   H207 9365   4.895   3.817   0.543 -0.9808 -3.6473  2.7138
   20MOL   H208 9366   5.050   3.931   0.681 -0.4846 -0.0727  1.8634
   20MOL   H209 9367   4.938   4.039   0.738 -2.7527 -2.5856  1.4891
   20MOL   H210 9368   5.046   4.169   0.554 -1.5331  1.1371 -0.2707
   20MOL   H211 9369   4.891   4.148   0.525  1.0565  1.3931 -0.5263
   20MOL   H212 9370   4.936   3.982   0.355 -1.3278  1.8168  0.0903
   20MOL   H213 9371   5.043   4.111   0.331  0.2617  1.4650  2.0340
   20MOL   H214 9372   5.261   3.718   0.386  2.2658 -0.4912 -0.4834
   20MOL   H215 9373   5.333   3.828   0.495 -1.1229  0.1639  0.3802
   20MOL   H216 9374   5.452   3.690   0.280  0.8505  0.1175 -0.8628
   20MOL   H217 9375   5.470   3.844   0.228 -1.0231  0.5172 -0.2601
   20MOL   O218 9376   5.687   3.757   0.393 -0.6423  0.7083 -0.1425
   20MOL   C219 9377   5.797   3.757   0.485  0.3377  0.2229 -0.5434
   20MOL   C220 9378   5.907   3.665   0.420 -0.9599  0.0861  0.4084
   20MOL   C221 9379   6.008   3.742   0.326 -0.7929  0.1563  0.5495
   20MOL   C222 9380   6.094   3.857   0.390  0.0107  0.0309 -0.2536
   20MOL   O223 9381   6.192   3.795   0.478  0.6739  0.1729  1.0366
   20MOL   C224 9382   6.212   3.846   0.598 -0.2446  0.0160  0.2639
   20MOL   O225 9383   6.164   3.951   0.638  0.1142 -0.2090  0.3459
   20MOL   C226 9384   6.286   3.757   0.690 -0.6734  0.2378 -0.1448
   20MOL   C227 9385   6.373   3.822   0.799 -0.9073  0.1430  0.2344
   20MOL   C228 9386   6.316   3.785   0.938 -0.4119 -0.4188 -0.1969
   20MOL   O229 9387   6.371   3.712   1.020 -0.5660 -0.4228 -0.2378
   20MOL   H230 9388   5.829   3.858   0.511  1.5298 -0.5695  1.1946
   20MOL   H231 9389   5.762   3.713   0.578 -2.0057 -0.0103 -1.5068
   20MOL   H232 9390   5.858   3.584   0.366 -1.3832 -1.1586  2.6155
   20MOL   H233 9391   5.970   3.620   0.497 -1.6309  1.4855  1.8094
   20MOL   H234 9392   5.936   3.781   0.254 -0.5707  1.1515  0.8597
   20MOL   H235 9393   6.080   3.677   0.276 -1.3398 -1.4557  1.8296
   20MOL   H236 9394   6.148   3.908   0.310  1.0476  1.9313  1.6106
   20MOL   H237 9395   6.042   3.935   0.445 -1.3660 -0.2624 -1.1180
   20MOL   H238 9396   6.342   3.689   0.625  1.4617  1.9707 -0.1684
   20MOL   H239 9397   6.202   3.696   0.725 -0.1679  0.5101  1.6014
   20MOL   H240 9398   6.478   3.795   0.785 -0.3120  1.5859  1.8201
   20MOL   H241 9399   6.359   3.929   0.786  0.1726  0.2808  0.1443
   20MOL   O242 9400   6.199   3.855   0.951 -0.4166  0.0413 -0.1484
   20MOL   C243 9401   6.128   3.855   1.080  0.6810  0.0726 -0.6152
   20MOL   C244 9402   5.977   3.891   1.071 -0.7288  0.0562 -0.1216
   20MOL   C245 9403   5.959   4.034   1.011  0.0751  0.8566 -0.3519
   20MOL   C246 9404   5.815   4.076   1.013 -0.3834  0.3366  0.2262
   20MOL   O247 9405   5.773   4.098   1.149 -0.2614  0.4157 -0.1119
   20MOL   C248 9406   5.650   4.153   1.173  0.4156  0.0155  0.4532
   20MOL   O249 9407   5.566   4.185   1.092 -0.0815 -0.8086  0.5502
   20MOL   C250 9408   5.636   4.172   1.325 -0.0610 -0.0495  0.2381
   20MOL   C251 9409   5.494   4.178   1.378 -0.0749  0.4386 -0.0323
   20MOL   C252 9410   5.445   4.041   1.428  0.3934 -0.5872  0.2141
   20MOL   O253 9411   5.513   3.966   1.500 -0.7149 -0.1919  0.1494
   20MOL   H254 9412   6.134   3.761   1.136 -2.8522  0.2294  0.1838
   20MOL   H255 9413   6.173   3.922   1.153 -0.6739  1.9757 -1.4918
   20MOL   H256 9414   5.940   3.888   1.174 -0.4204  0.3594  0.0000
   20MOL   H257 9415   5.924   3.816   1.012  1.7143 -0.5740 -1.5640
   20MOL   H258 9416   6.002   4.055   0.913 -0.3775 -0.3362 -0.8143
   20MOL   H259 9417   6.008   4.106   1.077 -3.7621  2.9920  0.3696
   20MOL   H260 9418   5.792   4.161   0.950  0.7378  0.4655 -0.0085
   20MOL   H261 9419   5.758   3.994   0.969 -0.8813  0.6762  0.2332
   20MOL   H262 9420   5.673   4.272   1.345 -0.2751  0.4748 -1.9227
   20MOL   H263 9421   5.700   4.102   1.378 -1.4615 -1.0952  0.5909
   20MOL   H264 9422   5.491   4.255   1.455  1.9229 -0.3037  0.8270
   20MOL   H265 9423   5.419   4.212   1.307  0.6219  1.4820 -0.2689
   20MOL   O266 9424   5.321   4.009   1.380 -0.4734 -0.1239 -0.2693
   20MOL   C267 9425   5.257   3.899   1.424  0.3133  0.4774 -0.2933
   20MOL   C268 9426   5.166   3.931   1.543 -0.0629 -0.5982  0.2030
   20MOL   C269 9427   5.157   3.810   1.637  0.1305 -0.2441  0.4276
   20MOL   C270 9428   5.048   3.831   1.740 -0.0030 -0.9399 -0.6072
   20MOL   O271 9429   5.033   3.717   1.825  0.2557  0.2326  0.7267
   20MOL   C272 9430   4.953   3.736   1.939  0.2353  0.0671  0.1802
   20MOL   O273 9431   4.931   3.845   1.986  0.2073 -0.6343  0.4209
   20MOL   C274 9432   4.911   3.598   1.995  0.1995  0.8130 -0.1815
   20MOL   C275 9433   4.933   3.596   2.147  0.1531  0.1307  0.5259
   20MOL   C276 9434   5.006   3.472   2.191  0.8025  0.5572  1.1325
   20MOL   O277 9435   5.127   3.458   2.180 -0.2147 -0.2430  0.3463
   20MOL   H278 9436   5.196   3.861   1.342  0.6115  1.8318 -1.1658
   20MOL   H279 9437   5.325   3.821   1.458 -0.8715  0.4256  2.0767
   20MOL   H280 9438   5.067   3.969   1.518  0.5815 -0.7359 -2.6844
   20MOL   H281 9439   5.204   4.008   1.610  0.6898 -0.3435 -0.5252
   20MOL   H282 9440   5.252   3.792   1.688  1.0913 -1.0067 -1.5764
   20MOL   H283 9441   5.138   3.714   1.589 -2.5893  0.2912  0.3465
   20MOL   H284 9442   5.061   3.928   1.788  0.6194 -0.1129 -2.4076
   20MOL   H285 9443   4.949   3.848   1.696 -1.0299  3.3315  2.9219
   20MOL   H286 9444   4.967   3.511   1.960  0.0240  0.0458  1.4192
   20MOL   H287 9445   4.810   3.576   1.960  0.3396  1.6083 -1.0961
   20MOL   H288 9446   5.004   3.674   2.175 -1.0863  0.8485  1.7403
   20MOL   H289 9447   4.843   3.621   2.203 -1.0140 -2.3682 -0.1553
   20MOL   O290 9448   4.921   3.379   2.248 -0.5106  0.4920 -0.2349
   20MOL   C291 9449   4.973   3.258   2.297  0.0026  0.1439 -0.2743
   20MOL   C292 9450   4.868   3.154   2.327  0.5285 -0.1908 -0.0388
   20MOL   C293 9451   4.915   3.068   2.447 -0.2215  0.3246  0.3671
   20MOL   C294 9452   4.827   2.970   2.506 -0.1612  0.2301  0.2276
   20MOL   O295 9453   4.709   3.028   2.574 -0.1517 -0.4104 -0.0259
   20MOL   C296 9454   4.597   3.043   2.501  0.3091 -0.1753 -0.0124
   20MOL   O297 9455   4.583   3.010   2.383  0.0357  1.0056  0.1584
   20MOL   C298 9456   4.485   3.103   2.582 -0.1063  0.1643 -0.1789
   20MOL   C299 9457   4.499   3.252   2.620  0.4200 -0.2984  0.5136
   20MOL   C300 9458   4.414   3.336   2.532 -0.5664 -0.6049  0.1128
   20MOL   O301 9459   4.468   3.424   2.463 -0.1720 -0.9316 -0.3927
   20MOL   H302 9460   5.051   3.216   2.233  1.0689 -0.9920  1.7068
   20MOL   H303 9461   5.022   3.292   2.388 -2.3751 -1.5161  1.6886
   20MOL   H304 9462   4.842   3.102   2.235  0.8854  0.2599 -0.3956
   20MOL   H305 9463   4.780   3.208   2.362 -0.0756 -1.5693  0.6414
   20MOL   H306 9464   4.931   3.135   2.532 -0.4706  0.2575  0.4687
   20MOL   H307 9465   5.013   3.027   2.422 -0.7836 -0.7097 -0.1696
   20MOL   H308 9466   4.795   2.903   2.426  0.9807  0.8588 -0.7691
   20MOL   H309 9467   4.892   2.916   2.575 -0.0917 -0.3203 -0.2648
   20MOL   H310 9468   4.456   3.042   2.667  0.2427  0.1536 -0.0686
   20MOL   H311 9469   4.393   3.087   2.524 -0.9694  0.8287  0.9884
   20MOL   H312 9470   4.462   3.270   2.721  0.5564 -3.1683  1.0976
   20MOL   H313 9471   4.603   3.279   2.601  0.2943 -0.8462 -1.0325
   20MOL   O314 9472   4.282   3.317   2.551 -0.1692 -0.5902  0.5409
   20MOL   C315 9473   4.199   3.383   2.458 -0.1776 -0.0139  0.0674
   20MOL   C316 9474   4.055   3.349   2.479  0.2473  0.2044 -0.2438
   20MOL   C317 9475   4.004   3.385   2.620  0.4912 -0.1108  0.2499
   20MOL   C318 9476   4.049   3.299   2.735  0.4978 -0.1551 -0.7480
   20MOL   O319 9477   4.032   3.164   2.699  0.0305 -0.3076  0.1642
   20MOL   C320 9478   4.017   3.072   2.799 -0.2426  0.2398  0.1636
   20MOL   O321 9479   3.989   3.099   2.913  0.8652  0.0758 -0.4135
   20MOL   C322 9480   4.042   2.930   2.751  0.5473 -0.0427 -0.3686
   20MOL   C323 9481   4.178   2.926   2.685 -0.6641 -0.0798  0.8370
   20MOL   C324 9482   4.191   2.836   2.562  0.0503 -0.1364 -0.0348
   20MOL   O325 9483   4.172   2.713   2.579  0.2910  0.3407  0.3891
   20MOL   H326 9484   4.215   3.490   2.449  0.6050 -0.1674 -0.3782
   20MOL   H327 9485   4.232   3.328   2.369 -3.4088 -2.7296  0.4167
   20MOL   H328 9486   4.050   3.242   2.460  1.0917  0.3395 -1.2644
   20MOL   H329 9487   3.999   3.386   2.393 -0.5391 -0.1007  0.1310
   20MOL   H330 9488   3.896   3.383   2.611  0.4608 -3.3645  0.7841
   20MOL   H331 9489   4.026   3.490   2.641  0.9428 -0.1926  0.2065
   20MOL   H332 9490   4.154   3.324   2.749  0.7989 -0.7540 -1.8852
   20MOL   H333 9491   3.991   3.333   2.820 -0.5471 -3.5243 -0.0469
   20MOL   H334 9492   3.958   2.902   2.688  1.4660 -1.6400 -0.9011
   20MOL   H335 9493   4.035   2.866   2.839 -0.0585 -0.4121 -0.6840
   20MOL   H336 9494   4.222   3.022   2.657 -0.6318  0.1775  1.7721
   20MOL   H337 9495   4.253   2.886   2.754  0.8663  0.8234 -0.2500
   20MOL   O338 9496   4.227   2.893   2.446 -0.0942  0.2809 -0.2203
   20MOL   C339 9497   4.226   2.825   2.325 -0.2340  0.6409 -0.1789
   20MOL   C340 9498   4.371   2.793   2.288 -0.1503  0.4636  0.0575
   20MOL   C341 9499   4.395   2.672   2.188  0.1632 -0.4497 -0.4307
   20MOL   C342 9500   4.544   2.669   2.150 -0.0893  0.0353  0.3803
   20MOL   O343 9501   4.588   2.552   2.075  0.6752  0.0979  0.0422
   20MOL   C344 9502   4.565   2.539   1.944  0.1958  0.0779 -0.4037
   20MOL   O345 9503   4.509   2.622   1.877  0.2023 -0.4248 -0.2722
   20MOL   C346 9504   4.615   2.407   1.886  0.1500  0.6642 -0.6323
   20MOL   C347 9505   4.561   2.272   1.954  0.5558 -0.4230  0.1591
   20MOL   C348 9506   4.413   2.274   1.936  0.1670  0.2624 -0.4082
   20MOL   O349 9507   4.356   2.218   1.841 -0.3949 -0.1329 -0.1524
   20MOL   H350 9508   4.169   2.732   2.330  1.4204 -0.3638  0.4215
   20MOL   H351 9509   4.187   2.890   2.246  1.0827 -1.3789 -2.5436
   20MOL   H352 9510   4.425   2.780   2.382  1.2862 -1.0935 -0.9761
   20MOL   H353 9511   4.407   2.886   2.246 -0.0502  0.9274  1.1378
   20MOL   H354 9512   4.329   2.686   2.102  0.9431  0.9511 -0.8095
   20MOL   H355 9513   4.373   2.579   2.241  2.5232 -0.4852  0.5205
   20MOL   H356 9514   4.567   2.757   2.090 -2.1161  0.0373 -0.4232
   20MOL   H357 9515   4.610   2.665   2.236  0.2194 -0.5106  0.1177
   20MOL   H358 9516   4.724   2.412   1.878  0.2838  1.4172  1.2447
   20MOL   H359 9517   4.580   2.414   1.783  1.5636 -2.6268 -1.3931
   20MOL   H360 9518   4.604   2.183   1.909  0.6649 -0.2367 -0.1089
   20MOL   H361 9519   4.579   2.257   2.060 -1.0564 -1.7010  0.2712
   20MOL   O362 9520   4.359   2.344   2.044  0.2922 -0.0141 -0.4480
   20MOL   C363 9521   4.219   2.329   2.064 -0.4372 -0.2094 -0.1484
   20MOL   C364 9522   4.189   2.240   2.184  0.2433 -0.2910  0.1819
   20MOL   C365 9523   4.226   2.094   2.176  0.8306  0.0085 -0.3085
   20MOL   C366 9524   4.108   2.030   2.106 -0.0186 -0.0513  0.9263
   20MOL   O367 9525   4.118   1.891   2.111 -0.1992  0.7108  0.0400
   20MOL   C368 9526   4.051   1.824   2.206  0.0413 -0.1179  0.2726
   20MOL   O369 9527   3.957   1.865   2.273  0.6590  0.1075  0.2046
   20MOL   C370 9528   4.118   1.688   2.238 -0.2065  0.0795 -0.2266
   20MOL   C371 9529   4.208   1.719   2.353 -0.0785  0.4593 -0.4239
   20MOL   C372 9530   4.321   1.619   2.371  0.3396 -0.2088  0.2764
   20MOL   O373 9531   4.439   1.649   2.381  0.4229  0.0447  0.4769
   20MOL   H374 9532   4.168   2.425   2.068 -2.5248 -1.2387 -1.1054
   20MOL   H375 9533   4.170   2.280   1.979  0.6631  2.3509 -2.3712
   20MOL   H376 9534   4.087   2.265   2.215 -1.0600 -2.1967 -2.3235
   20MOL   H377 9535   4.253   2.285   2.259 -0.2831  1.3722 -0.3409
   20MOL   H378 9536   4.237   2.050   2.275  2.1681 -0.1640 -0.5193
   20MOL   H379 9537   4.320   2.083   2.122  2.5476  0.6940  2.4805
   20MOL   H380 9538   4.004   2.057   2.125  0.8931  1.7415  3.6584
   20MOL   H381 9539   4.118   2.050   1.999  0.6666 -0.7509  0.8530
   20MOL   H382 9540   4.174   1.653   2.151 -1.2817 -0.4237 -0.7389
   20MOL   H383 9541   4.038   1.615   2.254 -0.5925  0.3751 -0.7572
   20MOL   H384 9542   4.255   1.816   2.340 -0.2763  0.4559 -1.2051
   20MOL   H385 9543   4.159   1.728   2.450 -1.6501 -0.9348 -1.0717
   20MOL   O386 9544   4.272   1.487   2.382 -0.1518  0.3298  0.0594
   20MOL   C387 9545   4.351   1.380   2.432  0.5851 -0.1046 -0.5098
   20MOL   C388 9546   4.282   1.287   2.531 -0.0615 -0.2069 -0.1132
   20MOL   C389 9547   4.147   1.229   2.480 -0.1481 -0.2202  0.5501
   20MOL   C390 9548   4.077   1.153   2.590 -0.2815  0.0487 -0.1651
   20MOL   O391 9549   3.982   1.064   2.530 -0.0758  0.3338  0.1761
   20MOL   C392 9550   3.877   1.030   2.609  0.2926  0.0024  0.0935
   20MOL   O393 9551   3.847   1.084   2.714  0.2416  0.3808  0.6988
   20MOL   C394 9552   3.775   0.941   2.536  0.1554  0.8465 -0.5112
   20MOL   C395 9553   3.833   0.801   2.516  0.7873  0.4272  0.2680
   20MOL   C396 9554   3.722   0.708   2.471  0.0757 -0.4388  0.1676
   20MOL   O397 9555   3.714   0.671   2.357 -0.8856  0.3163  0.1849
   20MOL   H398 9556   4.403   1.334   2.347  1.4478  0.4751 -0.3064
   20MOL   H399 9557   4.435   1.422   2.488  1.7444 -1.8372 -0.9108
   20MOL   H400 9558   4.277   1.342   2.626  0.0561  0.8249 -0.6922
   20MOL   H401 9559   4.356   1.212   2.557  0.1340 -0.1705 -0.5664
   20MOL   H402 9560   4.160   1.169   2.390  2.2126  1.8647 -0.5809
   20MOL   H403 9561   4.072   1.302   2.450 -0.6471 -0.6741  0.6985
   20MOL   H404 9562   4.145   1.099   2.655 -0.3045 -0.3397 -0.4601
   20MOL   H405 9563   4.039   1.226   2.661 -0.8713 -0.2552 -0.1705
   20MOL   H406 9564   3.750   0.978   2.437  1.8119  0.3285 -1.1371
   20MOL   H407 9565   3.681   0.944   2.591  0.0018  1.7399 -0.8171
   20MOL   H408 9566   3.909   0.795   2.438  0.7136  0.4806  0.1919
   20MOL   H409 9567   3.879   0.769   2.610 -0.5492  1.7305  1.4013
   20MOL   O410 9568   3.640   0.674   2.573  0.1176  0.3075  0.9531
   20MOL   C411 9569   3.519   0.592   2.547  0.0136  0.3512  0.4626
   20MOL   C412 9570   3.564   0.454   2.572 -0.0882  0.0287 -0.3806
   20MOL   C413 9571   3.615   0.437   2.711 -0.1536  0.1214  0.2599
   20MOL   C414 9572   3.503   0.460   2.819  0.2041  0.2126  0.1440
   20MOL   O415 9573   3.567   0.424   2.940 -0.3648 -0.5144  0.7325
   20MOL   C416 9574   3.494   0.403   3.054  0.1730 -0.6694  0.1165
   20MOL   O417 9575   3.372   0.380   3.054 -0.2286  0.5756 -0.1722
   20MOL   C418 9576   3.579   0.410   3.185 -0.1011 -0.4050 -0.4955
   20MOL   C419 9577   3.634   0.553   3.215  0.1862 -0.0612 -0.6098
   20MOL   C420 9578   3.515   0.647   3.250 -0.6415 -0.1026 -0.6120
   20MOL   O421 9579   3.462   0.707   3.163  0.1314 -0.3203  0.0623
   20MOL   H422 9580   3.443   0.610   2.623  0.4943  0.3684  0.9432
   20MOL   H423 9581   3.473   0.615   2.451  1.6043 -0.6958 -0.5855
   20MOL   H424 9582   3.639   0.423   2.499 -1.0824  0.6672 -1.6763
   20MOL   H425 9583   3.478   0.391   2.550  0.6696 -0.9610 -0.5438
   20MOL   H426 9584   3.687   0.513   2.741 -0.6959  0.0169  1.9208
   20MOL   H427 9585   3.673   0.345   2.720  1.5762  1.2645  1.1535
   20MOL   H428 9586   3.472   0.564   2.824 -1.6504 -0.2128 -1.5504
   20MOL   H429 9587   3.419   0.393   2.797 -0.9363  0.8761  2.3611
   20MOL   H430 9588   3.676   0.367   3.159 -0.3683 -0.5692 -1.2394
   20MOL   H431 9589   3.516   0.361   3.259  0.1462 -3.1684 -2.0302
   20MOL   H432 9590   3.706   0.555   3.297 -0.4403  1.4618 -0.0676
   20MOL   H433 9591   3.682   0.591   3.125  0.1759  2.4205  0.3947
   20MOL   O434 9592   3.489   0.648   3.380 -0.5764 -0.2270  0.1559
   20MOL   C435 9593   3.373   0.722   3.424  0.0155  1.5050  0.2997
   20MOL   C436 9594   3.382   0.748   3.576  0.7494 -0.3389  0.3511
   20MOL   C437 9595   3.431   0.635   3.667 -0.0382 -0.2036  0.1826
   20MOL   C438 9596   3.336   0.508   3.683  0.0568  0.5068 -0.2530
   20MOL   O439 9597   3.287   0.447   3.558  0.2790  0.0676  0.0880
   20MOL   C440 9598   3.358   0.337   3.518 -0.0278  0.4221 -0.2218
   20MOL   O441 9599   3.456   0.284   3.565 -0.1664  0.2274 -0.1587
   20MOL   C442 9600   3.293   0.283   3.398 -0.2117  0.0506 -0.1637
   20MOL   C443 9601   3.149   0.231   3.427 -0.3347  0.2336 -0.2525
   20MOL   C444 9602   3.063   0.251   3.303 -0.2881  0.5198  0.5107
   20MOL   O445 9603   3.025   0.157   3.235 -0.2482 -0.2408 -0.1181
   20MOL   H446 9604   3.372   0.822   3.381  3.3778  1.1724 -0.7191
   20MOL   H447 9605   3.278   0.672   3.402 -0.7231  3.1044 -0.2167
   20MOL   H448 9606   3.280   0.779   3.600  0.3499 -0.9689 -0.4905
   20MOL   H449 9607   3.434   0.842   3.593  0.7212 -0.0532 -1.0303
   20MOL   H450 9608   3.451   0.662   3.771  3.0283 -1.0179 -0.1482
   20MOL   H451 9609   3.529   0.602   3.633 -0.5168 -1.8710  0.3668
   20MOL   H452 9610   3.378   0.434   3.751 -0.2650  0.3666 -0.2076
   20MOL   H453 9611   3.246   0.535   3.738 -1.4101 -0.5262 -2.0713
   20MOL   H454 9612   3.349   0.196   3.364 -0.2757  0.8061 -2.3170
   20MOL   H455 9613   3.289   0.352   3.313  0.0083 -1.4299 -1.4104
   20MOL   H456 9614   3.161   0.132   3.471  0.8930  0.4578 -0.0449
   20MOL   H457 9615   3.112   0.297   3.506 -2.5572 -1.3964  0.1027
   20MOL   O458 9616   3.038   0.382   3.282  0.0364  0.0174 -0.4616
   20MOL   C459 9617   2.996   0.426   3.159  0.7452  0.3463 -0.2418
   20MOL   C460 9618   2.999   0.577   3.139 -0.4133  0.1581  1.0173
   20MOL   C461 9619   3.144   0.622   3.102  0.4247 -0.3335  0.0917
   20MOL   C462 9620   3.156   0.773   3.075  0.0888  0.1869 -0.1546
   20MOL   O463 9621   3.132   0.845   3.192  0.1033  0.4115  0.0955
   20MOL   C464 9622   3.145   0.981   3.190 -0.0899 -0.2491 -0.1320
   20MOL   O465 9623   3.157   1.047   3.089  0.2928 -1.1080 -0.0275
   20MOL   C466 9624   3.115   1.043   3.325 -0.2184  0.5108 -0.6343
   20MOL   C467 9625   3.029   1.168   3.310  0.5012  0.0624  0.0019
   20MOL   C468 9626   2.869   1.151   3.328 -0.3642 -0.2517  0.1183
   20MOL   O469 9627   2.830   1.126   3.441 -0.1798  0.4800 -0.1538
   20MOL   H470 9628   3.061   0.383   3.082  0.1251 -0.7703 -0.1415
   20MOL   H471 9629   2.895   0.391   3.138 -0.3497  2.9088  0.5386
   20MOL   H472 9630   2.953   0.648   3.208  1.1904  3.1977 -0.9234
   20MOL   H473 9631   2.945   0.594   3.046  0.8861  1.0954  0.4074
   20MOL   H474 9632   3.190   0.567   3.020  0.0710 -2.4967  1.2867
   20MOL   H475 9633   3.211   0.592   3.183 -0.1048 -1.2950  0.1805
   20MOL   H476 9634   3.260   0.788   3.046  0.4137  1.0295  1.3744
   20MOL   H477 9635   3.098   0.802   2.988 -2.7393  0.6346  1.8163
   20MOL   H478 9636   3.209   1.077   3.368 -1.9995 -1.4932  5.3755
   20MOL   H479 9637   3.062   0.981   3.397  0.1658  0.1844 -0.6299
   20MOL   H480 9638   3.054   1.252   3.374 -1.2016  0.2320  0.4881
   20MOL   H481 9639   3.039   1.212   3.212  0.1274  3.3149  1.3649
   20MOL   H482 9640   2.805   1.178   3.244 -0.8473 -1.2171  0.1618
   21MOL     O1 9641   2.343   4.947   1.933  0.0160 -0.4366 -0.2602
   21MOL     C2 9642   2.210   4.905   1.895 -1.0804  0.3791 -0.2235
   21MOL     C3 9643   2.111   5.022   1.887 -0.3476  0.6807 -0.0204
   21MOL     C4 9644   1.964   4.986   1.870  0.0754  0.5786  0.5530
   21MOL     C5 9645   1.934   4.928   1.732  0.0831 -0.0836 -0.2704
   21MOL     O6 9646   1.796   4.899   1.716 -0.0280 -0.1473  0.1378
   21MOL     C7 9647   1.750   4.874   1.586  0.1641 -0.1925  0.3004
   21MOL     O8 9648   1.826   4.873   1.484  0.0378  0.3521  0.5978
   21MOL     C9 9649   1.602   4.832   1.582 -0.3570  0.4215 -0.3150
   21MOL    C10 9650   1.580   4.729   1.471  0.2934 -0.1540  0.4135
   21MOL    C11 9651   1.480   4.624   1.507 -0.0067  0.6401  0.6231
   21MOL    O12 9652   1.398   4.640   1.598 -0.2316  0.0153  0.8326
   21MOL    H13 9653   2.222   4.855   1.799  0.4689  1.3672 -0.5578
   21MOL    H14 9654   2.174   4.834   1.970  1.5044 -1.3493 -0.5290
   21MOL    H15 9655   2.153   5.084   1.808  1.3367 -0.1277  0.2142
   21MOL    H16 9656   2.114   5.080   1.980 -0.0840 -2.4544  1.9938
   21MOL    H17 9657   1.896   5.070   1.884 -1.6652 -0.3847 -1.8875
   21MOL    H18 9658   1.940   4.908   1.944  1.1253 -0.6408 -0.3748
   21MOL    H19 9659   1.968   5.003   1.661 -0.2140  0.9219  0.6277
   21MOL    H20 9660   2.007   4.854   1.699 -0.3601 -1.9865  2.7688
   21MOL    H21 9661   1.541   4.922   1.573 -1.0814 -0.0002  0.3886
   21MOL    H22 9662   1.554   4.796   1.673  0.7282  0.7896  0.4160
   21MOL    H23 9663   1.539   4.777   1.382 -0.1000  1.2508  1.3460
   21MOL    H24 9664   1.671   4.688   1.427 -0.6335  3.0796 -5.0799
   21MOL    H25 9665   2.400   4.873   1.921  0.1380 -0.1518 -1.5796
   21MOL    O26 9666   1.493   4.526   1.423  0.3385  0.1922  0.2303
   21MOL    C27 9667   1.410   4.416   1.444  0.2226 -0.2728  0.2490
   21MOL    C28 9668   1.398   4.327   1.320 -0.0479  0.4341 -0.1225
   21MOL    C29 9669   1.525   4.262   1.269 -0.0743  0.3688 -1.0128
   21MOL    C30 9670   1.508   4.137   1.188  0.0993  0.5783 -0.3997
   21MOL    O31 9671   1.409   4.048   1.245  0.0935  0.5412  0.1839
   21MOL    C32 9672   1.304   4.009   1.172 -0.8753  0.4175  0.4002
   21MOL    O33 9673   1.264   4.068   1.070 -0.4304  0.2758 -0.3080
   21MOL    C34 9674   1.229   3.887   1.216 -0.1172 -0.3122 -0.5434
   21MOL    C35 9675   1.078   3.884   1.182 -0.3371 -0.5038 -0.1246
   21MOL    C36 9676   0.999   3.790   1.269 -0.0724  0.9237  0.1158
   21MOL    O37 9677   0.916   3.713   1.218  0.2985  0.4194 -0.2209
   21MOL    H38 9678   1.454   4.357   1.525 -0.4707 -0.8229  0.2303
   21MOL    H39 9679   1.310   4.443   1.477  0.9374  0.1538  2.1850
   21MOL    H40 9680   1.372   4.389   1.235 -0.3388  1.4044  0.6570
   21MOL    H41 9681   1.312   4.260   1.332  0.8265 -0.7699 -0.4956
   21MOL    H42 9682   1.582   4.248   1.361 -1.2576 -1.3899 -0.5100
   21MOL    H43 9683   1.581   4.338   1.214  0.9102 -0.0193 -0.5695
   21MOL    H44 9684   1.480   4.173   1.089 -1.5941 -1.0491 -0.5515
   21MOL    H45 9685   1.598   4.075   1.188  0.7845  1.5248 -1.6551
   21MOL    H46 9686   1.253   3.882   1.322  0.5751  0.7109 -0.6386
   21MOL    H47 9687   1.270   3.793   1.180  0.4618 -0.1753 -0.2576
   21MOL    H48 9688   1.040   3.985   1.194  2.0314  0.5272 -1.0968
   21MOL    H49 9689   1.064   3.853   1.078 -0.2903  1.0064 -0.5932
   21MOL    O50 9690   1.024   3.806   1.404 -0.4299  0.6516  0.0561
   21MOL    C51 9691   0.959   3.718   1.490 -0.2020  0.3738 -0.1239
   21MOL    C52 9692   0.958   3.788   1.628 -0.4412 -0.8291 -0.1485
   21MOL    C53 9693   0.885   3.702   1.735  0.1207  0.4493  0.4956
   21MOL    C54 9694   0.906   3.749   1.875 -0.3220 -0.4211 -0.8755
   21MOL    O55 9695   1.043   3.758   1.910 -0.5953  0.0238 -0.3512
   21MOL    C56 9696   1.090   3.855   1.992 -0.1080 -1.0484  0.3863
   21MOL    O57 9697   1.021   3.941   2.042  0.0277 -0.8838 -0.6804
   21MOL    C58 9698   1.241   3.855   1.992  0.0921  0.0621 -0.2831
   21MOL    C59 9699   1.315   3.974   2.041  0.0247 -0.3746 -0.3344
   21MOL    C60 9700   1.394   3.936   2.162 -0.0883  0.0461  0.0912
   21MOL    O61 9701   1.517   3.909   2.149 -0.6208 -0.2511  0.8845
   21MOL    H62 9702   0.860   3.678   1.469  0.3089 -0.1841 -1.5359
   21MOL    H63 9703   1.021   3.629   1.493  1.7907  1.7357 -0.3806
   21MOL    H64 9704   0.918   3.888   1.616  0.4956 -0.4935 -0.5240
   21MOL    H65 9705   1.065   3.800   1.649 -0.8644  0.8824  1.1024
   21MOL    H66 9706   0.921   3.599   1.732  2.9964  1.3711  1.8662
   21MOL    H67 9707   0.783   3.678   1.706  2.0006 -1.4694 -5.2559
   21MOL    H68 9708   0.856   3.846   1.876 -0.0863 -0.2827 -2.1258
   21MOL    H69 9709   0.853   3.674   1.935 -1.0620  1.1920  0.5546
   21MOL    H70 9710   1.285   3.835   1.895  0.3480  0.9088 -0.3495
   21MOL    H71 9711   1.258   3.765   2.051 -0.5335 -1.3902 -2.2826
   21MOL    H72 9712   1.395   4.009   1.976 -0.7224  1.8588 -0.1032
   21MOL    H73 9713   1.247   4.055   2.067 -1.1961 -0.5061 -2.9631
   21MOL    O74 9714   1.324   3.929   2.280 -0.4206  0.1496  0.2563
   21MOL    C75 9715   1.382   3.854   2.385 -0.0841  0.3845 -0.5700
   21MOL    C76 9716   1.298   3.869   2.512 -0.1334  1.0024  0.5565
   21MOL    C77 9717   1.333   4.009   2.567 -0.2615  0.1749 -0.6076
   21MOL    C78 9718   1.255   4.048   2.689 -0.5968  0.1915  0.4777
   21MOL    O79 9719   1.239   3.931   2.777  0.7726 -0.1310  0.1235
   21MOL    C80 9720   1.237   3.956   2.909  0.0447  0.2128  0.4006
   21MOL    O81 9721   1.232   4.065   2.964 -0.4452  0.1232  0.1308
   21MOL    C82 9722   1.252   3.827   2.983  0.4227 -0.2281  0.0036
   21MOL    C83 9723   1.135   3.818   3.081  0.3103 -0.5832 -0.6316
   21MOL    C84 9724   0.999   3.813   3.021  0.4958  0.4122  0.3440
   21MOL    O85 9725   0.922   3.899   3.056  0.0652 -0.0816 -0.8844
   21MOL    H86 9726   1.392   3.757   2.337 -3.3404 -0.7195  0.8741
   21MOL    H87 9727   1.485   3.884   2.405 -1.4653  2.6588  3.7376
   21MOL    H88 9728   1.318   3.781   2.573  0.5796 -1.2661 -2.8071
   21MOL    H89 9729   1.191   3.860   2.490  0.3444 -1.3534 -0.9370
   21MOL    H90 9730   1.330   4.092   2.497 -1.5160 -0.9993 -1.9724
   21MOL    H91 9731   1.438   4.003   2.596 -0.0759 -0.6309 -1.4307
   21MOL    H92 9732   1.302   4.136   2.733  1.3571 -1.0797  1.0144
   21MOL    H93 9733   1.150   4.069   2.669 -1.1857 -2.4832  0.5427
   21MOL    H94 9734   1.342   3.828   3.045  1.7624 -1.5187 -1.8364
   21MOL    H95 9735   1.244   3.736   2.923  3.2512 -1.0197  0.7357
   21MOL    H96 9736   1.139   3.727   3.141  3.2964  1.2316  2.0862
   21MOL    H97 9737   1.131   3.910   3.139  1.1361 -1.5503  0.9856
   21MOL    O98 9738   0.971   3.718   2.929 -0.3225  0.0895 -0.2424
   21MOL    C99 9739   0.846   3.723   2.864  0.1004  0.0381  0.9866
   21MOL   C100 9740   0.866   3.790   2.732 -0.1733 -0.2539 -1.1322
   21MOL   C101 9741   0.731   3.832   2.665  0.1797 -0.6989 -0.3082
   21MOL   C102 9742   0.765   3.913   2.538 -0.5338  0.6097 -0.0482
   21MOL   O103 9743   0.847   3.849   2.441 -0.2748 -0.1896  0.0994
   21MOL   C104 9744   0.794   3.780   2.336 -0.1750 -0.0378  0.1600
   21MOL   O105 9745   0.675   3.757   2.318 -0.1770 -0.0936 -0.1922
   21MOL   C106 9746   0.906   3.723   2.250  0.6921 -0.3701  0.0769
   21MOL   C107 9747   0.937   3.579   2.291  0.7396 -0.0175 -0.7245
   21MOL   C108 9748   1.087   3.557   2.321 -0.4297 -0.2670 -0.4815
   21MOL   O109 9749   1.173   3.624   2.267  0.6771  0.1663  0.4538
   21MOL   H110 9750   0.807   3.622   2.853 -0.5509  0.3104  0.7962
   21MOL   H111 9751   0.773   3.780   2.920  1.2171  0.9222  1.5689
   21MOL   H112 9752   0.911   3.721   2.660 -0.7211  0.4304 -2.1340
   21MOL   H113 9753   0.922   3.883   2.740 -2.1044  0.8151  0.3405
   21MOL   H114 9754   0.677   3.899   2.732  1.8866  0.5045 -0.1021
   21MOL   H115 9755   0.668   3.748   2.637 -0.6101  0.2002 -1.3163
   21MOL   H116 9756   0.670   3.941   2.491 -0.2224 -0.7646 -1.5263
   21MOL   H117 9757   0.816   4.002   2.574  0.6777 -0.3381  0.6163
   21MOL   H118 9758   0.998   3.781   2.256  0.2945  0.2451  0.2078
   21MOL   H119 9759   0.868   3.728   2.148 -0.6877 -0.5028  0.5809
   21MOL   H120 9760   0.883   3.545   2.380  1.0123  1.2496 -0.0687
   21MOL   H121 9761   0.907   3.514   2.209  0.7782 -1.0927  0.1079
   21MOL   O122 9762   1.107   3.464   2.416 -0.3600 -0.5152 -0.2286
   21MOL   C123 9763   1.231   3.461   2.473  0.6151 -0.4179 -0.6371
   21MOL   C124 9764   1.212   3.404   2.616 -0.2893  0.5753 -0.2981
   21MOL   C125 9765   1.142   3.492   2.714  0.5662 -0.8270 -0.3007
   21MOL   C126 9766   1.103   3.425   2.845 -0.5314 -0.3745  0.1172
   21MOL   O127 9767   1.202   3.348   2.908 -0.0662 -0.4785  0.3123
   21MOL   C128 9768   1.281   3.404   3.007 -0.2629  0.1997 -0.1297
   21MOL   O129 9769   1.272   3.520   3.043 -0.2085 -0.1030 -0.0046
   21MOL   C130 9770   1.377   3.305   3.082  0.1626 -0.2580  0.1273
   21MOL   C131 9771   1.403   3.330   3.236 -0.0445  0.6889  0.0623
   21MOL   C132 9772   1.458   3.465   3.262  0.0920 -0.1047 -0.2199
   21MOL   O133 9773   1.562   3.500   3.206  0.1637 -0.4167  0.5356
   21MOL   H134 9774   1.293   3.389   2.420  2.4335 -0.9455  2.1067
   21MOL   H135 9775   1.288   3.554   2.483  0.4257 -0.2946 -0.6995
   21MOL   H136 9776   1.306   3.372   2.661 -0.6772  0.4790  0.4648
   21MOL   H137 9777   1.158   3.310   2.602  0.7823 -0.0140 -0.5396
   21MOL   H138 9778   1.050   3.536   2.673  2.1902 -0.4696 -3.6972
   21MOL   H139 9779   1.199   3.585   2.722  1.2062 -1.4260  2.2947
   21MOL   H140 9780   1.066   3.489   2.925 -1.2852 -0.7181  0.0468
   21MOL   H141 9781   1.019   3.359   2.826  1.9318 -3.6328  0.0190
   21MOL   H142 9782   1.475   3.311   3.035  0.2099 -1.8598  0.0048
   21MOL   H143 9783   1.327   3.210   3.066  0.7446 -0.9005  1.9526
   21MOL   H144 9784   1.302   3.323   3.276 -0.6258 -0.2140 -1.4994
   21MOL   H145 9785   1.456   3.243   3.273 -0.1749 -0.3951 -2.1938
   21MOL   O146 9786   1.367   3.536   3.330 -0.0405 -0.6773  0.0040
   21MOL   C147 9787   1.365   3.680   3.324  0.2009 -0.0234 -0.3920
   21MOL   C148 9788   1.441   3.733   3.446 -0.4273 -0.8192 -1.0497
   21MOL   C149 9789   1.378   3.698   3.579 -0.5185 -0.0538 -0.6369
   21MOL   C150 9790   1.467   3.721   3.702  0.1288 -0.6636 -0.1857
   21MOL   O151 9791   1.419   3.657   3.818 -0.4507 -0.1987  0.2619
   21MOL   C152 9792   1.483   3.533   3.849 -0.1256  1.0287  0.4378
   21MOL   O153 9793   1.581   3.486   3.791 -0.1868 -0.5284  0.5676
   21MOL   C154 9794   1.418   3.460   3.963  0.2657  0.3041  0.6514
   21MOL   C155 9795   1.462   3.522   4.097  0.2883  0.7207 -0.1987
   21MOL   C156 9796   1.563   3.438   4.166  0.4392 -0.5225  0.5941
   21MOL   O157 9797   1.683   3.455   4.129 -0.6709 -0.3765 -0.2145
   21MOL   H158 9798   1.399   3.705   3.224  0.6754 -2.2199 -0.8078
   21MOL   H159 9799   1.263   3.718   3.326  0.5093  0.7941 -0.0439
   21MOL   H160 9800   1.448   3.842   3.452  0.7771 -0.9594  0.5334
   21MOL   H161 9801   1.546   3.703   3.440  0.0811  0.5133  0.8650
   21MOL   H162 9802   1.343   3.595   3.577  1.7147 -0.9388  2.2436
   21MOL   H163 9803   1.287   3.757   3.595 -2.0037 -2.7709  1.6121
   21MOL   H164 9804   1.571   3.692   3.686  0.2749 -1.2919  1.7566
   21MOL   H165 9805   1.486   3.827   3.720  0.8753 -0.6108 -1.2228
   21MOL   H166 9806   1.436   3.353   3.954  1.0832  0.5726 -1.0971
   21MOL   H167 9807   1.311   3.478   3.957  0.0805  0.3696  3.3235
   21MOL   H168 9808   1.510   3.619   4.087 -0.0375  1.1167  1.9439
   21MOL   H169 9809   1.372   3.537   4.156 -2.1529 -1.2649 -3.2480
   21MOL   O170 9810   1.520   3.369   4.275  0.2016  0.2762  0.1331
   21MOL   C171 9811   1.618   3.281   4.337  0.5198 -0.2034 -0.5887
   21MOL   C172 9812   1.550   3.163   4.399  0.7262  0.7676  0.0648
   21MOL   C173 9813   1.640   3.038   4.439  0.1156 -0.2075 -0.2366
   21MOL   C174 9814   1.560   2.912   4.470 -0.2749 -0.1372  0.3578
   21MOL   O175 9815   1.645   2.817   4.528  0.7907 -0.2058  0.3008
   21MOL   C176 9816   1.713   2.733   4.453 -0.0157 -0.7100 -0.2428
   21MOL   O177 9817   1.707   2.731   4.330  0.4505  0.4390 -0.0934
   21MOL   C178 9818   1.799   2.642   4.529  0.1634  0.5440  0.0025
   21MOL   C179 9819   1.928   2.708   4.592  0.1232  0.6566  0.5950
   21MOL   C180 9820   1.917   2.714   4.743 -0.0588  0.3988  0.4134
   21MOL   O181 9821   1.834   2.645   4.809  0.5467  0.3782 -0.3176
   21MOL   H182 9822   1.711   3.262   4.285  0.3311 -0.8262 -0.7053
   21MOL   H183 9823   1.660   3.339   4.420  1.1537 -1.0293 -0.3245
   21MOL   H184 9824   1.480   3.123   4.326  2.1885 -1.3131 -0.2636
   21MOL   H185 9825   1.496   3.197   4.487  0.4917  0.8314 -0.1056
   21MOL   H186 9826   1.713   3.067   4.515  0.7149  0.2632 -0.9873
   21MOL   H187 9827   1.695   3.019   4.348  1.3925  0.9905  0.2685
   21MOL   H188 9828   1.490   2.918   4.554  0.3528  1.7471  0.7645
   21MOL   H189 9829   1.509   2.875   4.381  0.5011 -0.6234  0.1141
   21MOL   H190 9830   1.829   2.553   4.474 -1.8207 -0.5327  0.6380
   21MOL   H191 9831   1.740   2.600   4.610 -0.3977  1.6691  0.1911
   21MOL   H192 9832   2.013   2.640   4.582 -1.4863 -1.2646 -0.5923
   21MOL   H193 9833   1.939   2.801   4.535 -1.0107  0.1162 -0.5416
   21MOL   O194 9834   1.998   2.804   4.802  0.0702  0.7307  0.8662
   21MOL   C195 9835   1.966   2.835   4.938 -0.2207  0.0124 -0.5526
   21MOL   C196 9836   1.933   2.989   4.970  0.1846  0.6928  0.3574
   21MOL   C197 9837   2.048   3.072   4.914  0.3218  0.0458  0.1676
   21MOL   C198 9838   2.031   3.225   4.949  0.0828 -1.0865 -0.0589
   21MOL   O199 9839   2.142   3.302   4.932 -0.2519 -0.0525 -0.1483
   21MOL   C200 9840   2.241   3.293   5.026 -0.4310 -0.5315  0.8447
   21MOL   O201 9841   2.246   3.225   5.125  0.4794  0.1542 -0.3239
   21MOL   C202 9842   2.361   3.379   4.995  0.0814 -0.2184  0.4512
   21MOL   C203 9843   2.389   3.485   5.101 -0.7240 -0.2232 -0.2662
   21MOL   C204 9844   2.494   3.581   5.048  0.1021 -0.3149  0.1934
   21MOL   O205 9845   2.617   3.572   5.057  0.5463 -0.5415 -0.8211
   21MOL   H206 9846   1.878   2.783   4.977 -0.8816  1.5958  0.0994
   21MOL   H207 9847   2.044   2.805   5.007  0.2472  0.1745 -1.0129
   21MOL   H208 9848   1.920   3.017   5.075  0.3400  0.4249  0.4492
   21MOL   H209 9849   1.837   3.013   4.925 -0.4431 -1.0753  0.6957
   21MOL   H210 9850   2.051   3.059   4.806  0.5300 -1.6786  0.3715
   21MOL   H211 9851   2.141   3.037   4.958  0.1683 -0.2653  0.2461
   21MOL   H212 9852   1.942   3.255   4.893 -0.5334  2.4238  2.5915
   21MOL   H213 9853   1.998   3.222   5.052 -1.5071 -1.6399 -0.5607
   21MOL   H214 9854   2.346   3.434   4.902 -0.2332  0.2475  0.7764
   21MOL   H215 9855   2.449   3.315   4.992  0.1159 -0.5595  4.8187
   21MOL   H216 9856   2.300   3.542   5.127 -1.0476 -1.2883  1.0077
   21MOL   H217 9857   2.416   3.439   5.196  0.1242 -0.4798 -0.6225
   21MOL   O218 9858   2.430   3.688   4.982  0.0242 -0.1091  0.0322
   21MOL   C219 9859   2.498   3.799   4.936 -0.3465  0.3140 -0.3376
   21MOL   C220 9860   2.422   3.860   4.819 -0.7003  0.3633  0.3481
   21MOL   C221 9861   2.479   3.985   4.758 -0.5094 -0.3652  0.1430
   21MOL   C222 9862   2.404   4.038   4.644  0.3075  0.3365 -0.1221
   21MOL   O223 9863   2.381   3.950   4.543 -0.6425 -0.1164 -0.0828
   21MOL   C224 9864   2.318   3.992   4.440 -1.0724 -0.4832 -0.0040
   21MOL   O225 9865   2.271   4.105   4.432  0.1854 -0.3037  0.6845
   21MOL   C226 9866   2.296   3.886   4.328 -0.0387 -0.1269 -0.1323
   21MOL   C227 9867   2.380   3.892   4.207 -0.1582 -0.5544  0.3994
   21MOL   C228 9868   2.306   3.934   4.073  0.3711  0.6433 -0.0151
   21MOL   O229 9869   2.334   4.026   3.996  0.1316  0.1557 -0.0373
   21MOL   H230 9870   2.501   3.865   5.023 -0.4698 -0.2186  0.0726
   21MOL   H231 9871   2.597   3.764   4.907 -1.1183  0.3694 -3.1359
   21MOL   H232 9872   2.321   3.884   4.853 -1.8820 -0.8271 -2.1622
   21MOL   H233 9873   2.403   3.786   4.741 -0.1025 -0.7117  1.2123
   21MOL   H234 9874   2.577   3.954   4.721 -0.2354 -0.8195  1.2273
   21MOL   H235 9875   2.481   4.061   4.837  0.3153 -1.8770  1.6214
   21MOL   H236 9876   2.312   4.088   4.675  0.5398  0.5508  0.2222
   21MOL   H237 9877   2.457   4.123   4.601 -0.4561  1.8290  1.8359
   21MOL   H238 9878   2.189   3.897   4.307 -0.2364 -1.0289  0.3828
   21MOL   H239 9879   2.314   3.792   4.379 -0.6638 -0.3586 -0.3310
   21MOL   H240 9880   2.462   3.962   4.218  0.2171 -1.1277  1.2976
   21MOL   H241 9881   2.432   3.798   4.188 -0.9009 -0.9624  0.3378
   21MOL   O242 9882   2.207   3.841   4.045 -0.3172  0.1114  0.1561
   21MOL   C243 9883   2.134   3.840   3.925  0.6674  0.6224  0.7346
   21MOL   C244 9884   1.981   3.857   3.951  0.0098 -0.6538 -0.3202
   21MOL   C245 9885   1.902   3.743   4.009  0.5542 -0.2227  1.0022
   21MOL   C246 9886   1.750   3.772   4.004 -0.0142 -0.5783  0.4583
   21MOL   O247 9887   1.714   3.883   4.092 -0.3547  0.1816  0.2740
   21MOL   C248 9888   1.595   3.932   4.079  0.2041  0.5942  0.3154
   21MOL   O249 9889   1.506   3.884   4.001  0.2055 -0.7316 -0.1179
   21MOL   C250 9890   1.564   4.032   4.185  0.1358  0.3401 -0.3256
   21MOL   C251 9891   1.666   4.148   4.171  0.6515 -0.3924  0.6663
   21MOL   C252 9892   1.774   4.143   4.275 -0.2540  0.6446 -0.2947
   21MOL   O253 9893   1.777   4.055   4.363  0.4399  0.5480 -0.3787
   21MOL   H254 9894   2.169   3.911   3.850 -1.2259  0.4706 -0.3323
   21MOL   H255 9895   2.154   3.740   3.888 -0.0822  0.6806  0.1593
   21MOL   H256 9896   1.953   3.884   3.849  3.7205 -0.8562 -1.4531
   21MOL   H257 9897   1.959   3.939   4.020 -0.9018 -1.2382  0.0841
   21MOL   H258 9898   1.923   3.727   4.114 -0.1887 -0.4536  1.1210
   21MOL   H259 9899   1.922   3.649   3.958  0.9921  0.1741  0.4395
   21MOL   H260 9900   1.722   3.799   3.902  1.4331 -0.3731  0.1074
   21MOL   H261 9901   1.694   3.683   4.035 -1.2982 -0.1757 -0.6536
   21MOL   H262 9902   1.549   3.978   4.279 -1.2348  0.2031 -0.6194
   21MOL   H263 9903   1.463   4.066   4.161 -0.4829 -2.9016 -2.6450
   21MOL   H264 9904   1.720   4.143   4.076  0.9132  1.2700  0.7022
   21MOL   H265 9905   1.614   4.244   4.175  0.3334 -0.5891  1.2019
   21MOL   O266 9906   1.862   4.249   4.270 -0.0389  0.1209 -0.5510
   21MOL   C267 9907   1.981   4.253   4.351 -0.8177  0.2542 -0.5402
   21MOL   C268 9908   2.075   4.362   4.306  0.2948 -0.7622  0.4922
   21MOL   C269 9909   2.168   4.324   4.184  0.2643  0.0094 -0.7269
   21MOL   C270 9910   2.083   4.292   4.054 -0.7727 -0.7018 -0.1931
   21MOL   O271 9911   1.988   4.388   4.001  0.4372  0.5360  0.5553
   21MOL   C272 9912   2.032   4.495   3.941 -0.9605 -0.1417 -0.2174
   21MOL   O273 9913   2.136   4.510   3.882  0.7340 -0.1075 -0.3814
   21MOL   C274 9914   1.926   4.603   3.947 -0.0583  0.2157  0.3747
   21MOL   C275 9915   1.795   4.570   3.876  0.3875  0.1315 -0.8319
   21MOL   C276 9916   1.695   4.693   3.888  0.5705  0.1233  0.2322
   21MOL   O277 9917   1.639   4.746   3.788 -0.3199 -0.0780  0.0417
   21MOL   H278 9918   1.941   4.276   4.450  0.1644 -0.6440  0.0660
   21MOL   H279 9919   2.033   4.158   4.360 -0.8719  0.4001  1.6686
   21MOL   H280 9920   2.134   4.391   4.392 -0.2577 -2.5035  1.4743
   21MOL   H281 9921   2.013   4.449   4.284  0.1648 -0.9208  0.2254
   21MOL   H282 9922   2.239   4.243   4.202  2.8368  2.7109  2.0178
   21MOL   H283 9923   2.238   4.404   4.157  0.0553  0.4319 -0.0271
   21MOL   H284 9924   2.134   4.264   3.962 -1.3585 -1.3086 -0.3377
   21MOL   H285 9925   2.028   4.202   4.081  0.3187 -1.2326  0.2807
   21MOL   H286 9926   1.951   4.697   3.897 -0.1596 -0.2012 -0.4685
   21MOL   H287 9927   1.907   4.638   4.048  0.9486 -1.1198  1.0326
   21MOL   H288 9928   1.818   4.553   3.771  1.0192  2.9590 -1.1912
   21MOL   H289 9929   1.749   4.482   3.920  1.5332 -0.8922 -1.6553
   21MOL   O290 9930   1.668   4.731   4.013  0.2127  0.6763  0.4672
   21MOL   C291 9931   1.549   4.805   4.051 -0.5153 -0.8142 -0.4841
   21MOL   C292 9932   1.585   4.955   4.021 -0.8163  0.6510  0.1758
   21MOL   C293 9933   1.713   4.999   4.085  0.0378 -0.2519 -0.0099
   21MOL   C294 9934   1.696   5.022   4.231  0.5129 -0.4962  0.4231
   21MOL   O295 9935   1.811   5.070   4.287 -0.5459  0.0678 -0.0061
   21MOL   C296 9936   1.913   4.989   4.308  0.7889  0.2008  0.5160
   21MOL   O297 9937   1.906   4.869   4.278  0.9002  0.1792  0.7564
   21MOL   C298 9938   2.043   5.060   4.356  0.5346  0.1416  0.1497
   21MOL   C299 9939   2.015   5.133   4.488 -0.2248 -0.0592 -0.3572
   21MOL   C300 9940   2.035   5.282   4.475  0.0060  0.3050 -0.2981
   21MOL   O301 9941   1.966   5.358   4.547 -0.0540 -0.5412  0.0669
   21MOL   H302 9942   1.461   4.774   3.996 -0.3391 -0.8618 -0.7383
   21MOL   H303 9943   1.534   4.792   4.159  2.2222 -2.2581 -0.2408
   21MOL   H304 9944   1.508   5.025   4.052  0.0075  1.4676  0.3946
   21MOL   H305 9945   1.584   4.971   3.913  1.9379  2.3146  0.3469
   21MOL   H306 9946   1.750   5.089   4.036  0.0371 -0.6654 -0.7887
   21MOL   H307 9947   1.787   4.923   4.059  0.9843  0.5386  0.3684
   21MOL   H308 9948   1.611   5.088   4.245 -0.3414 -1.3635 -0.5961
   21MOL   H309 9949   1.663   4.927   4.274  0.4475 -0.2465  0.9268
   21MOL   H310 9950   2.080   5.130   4.282 -0.4156  1.2950  0.7390
   21MOL   H311 9951   2.120   4.985   4.369  0.7116  0.5000  1.2262
   21MOL   H312 9952   1.916   5.114   4.532  0.0690 -1.7146 -0.3570
   21MOL   H313 9953   2.082   5.103   4.568 -1.1202 -2.1219 -0.3384
   21MOL   O314 9954   2.133   5.318   4.397 -0.9279 -0.3064 -0.2745
   21MOL   C315 9955   2.156   5.457   4.369 -0.3690 -0.0885 -0.0513
   21MOL   C316 9956   2.283   5.477   4.290  0.4065  0.5664  0.4800
   21MOL   C317 9957   2.299   5.626   4.262  0.3437 -0.0917  0.8089
   21MOL   C318 9958   2.393   5.652   4.139 -0.3610  0.2852 -0.3943
   21MOL   O319 9959   2.528   5.640   4.183 -0.2394  0.3797 -0.0141
   21MOL   C320 9960   2.616   5.646   4.084  0.2609 -0.2615 -0.2164
   21MOL   O321 9961   2.600   5.668   3.961 -0.1866  0.3249  0.3641
   21MOL   C322 9962   2.760   5.626   4.129 -0.3536  1.1079  0.4765
   21MOL   C323 9963   2.787   5.474   4.148 -0.2205  0.2115  0.3998
   21MOL   C324 9964   2.723   5.419   4.278 -0.2475  0.2762 -0.2787
   21MOL   O325 9965   2.736   5.476   4.387 -0.0932 -0.3064  0.0524
   21MOL   H326 9966   2.067   5.485   4.311  0.0137 -0.4741 -0.8325
   21MOL   H327 9967   2.151   5.524   4.455  2.1683  0.9298 -0.6754
   21MOL   H328 9968   2.283   5.407   4.206  1.9041  0.2799  0.7010
   21MOL   H329 9969   2.367   5.448   4.352  0.3271  2.2519  1.3992
   21MOL   H330 9970   2.348   5.668   4.350 -0.5896  1.6837  0.4990
   21MOL   H331 9971   2.203   5.674   4.241  0.3718  0.0702  1.0505
   21MOL   H332 9972   2.365   5.598   4.049  0.0068  0.4306 -0.5990
   21MOL   H333 9973   2.391   5.758   4.112  0.9032  0.7523  1.2413
   21MOL   H334 9974   2.773   5.680   4.222  0.6661  0.1366  0.9129
   21MOL   H335 9975   2.821   5.667   4.048 -0.7880  2.0306  0.6067
   21MOL   H336 9976   2.755   5.403   4.071 -0.9298  0.6199  0.3144
   21MOL   H337 9977   2.890   5.451   4.173 -0.1718  1.3455  1.2466
   21MOL   O338 9978   2.657   5.311   4.253 -0.4270 -0.0436  0.0290
   21MOL   C339 9979   2.591   5.248   4.360  0.2201 -0.1420  0.9985
   21MOL   C340 9980   2.568   5.106   4.318 -0.1780  0.1341  0.3852
   21MOL   C341 9981   2.490   5.035   4.424 -0.3236  0.6167  0.7342
   21MOL   C342 9982   2.453   4.894   4.384 -0.6748 -0.2785  0.4828
   21MOL   O343 9983   2.370   4.886   4.269  0.4881  0.6780  0.0181
   21MOL   C344 9984   2.290   4.777   4.260 -0.2441 -0.4577  0.0198
   21MOL   O345 9985   2.267   4.702   4.359 -0.3963 -0.1198 -0.5413
   21MOL   C346 9986   2.230   4.745   4.126  0.3823  0.4807  0.4569
   21MOL   C347 9987   2.162   4.864   4.049  0.2543  0.1428  0.1557
   21MOL   C348 9988   2.211   4.876   3.909 -0.2284 -0.0063 -0.0490
   21MOL   O349 9989   2.329   4.893   3.884  0.1811 -0.3344  0.2776
   21MOL   H350 9990   2.656   5.247   4.447  2.8207 -0.3146 -0.9074
   21MOL   H351 9991   2.503   5.305   4.390 -1.1990 -0.2018 -2.7686
   21MOL   H352 9992   2.661   5.050   4.307  1.7224  2.9608  1.4151
   21MOL   H353 9993   2.522   5.098   4.220  0.6078  0.4039 -0.0112
   21MOL   H354 9994   2.398   5.093   4.436 -1.8070 -1.2428 -1.2117
   21MOL   H355 9995   2.548   5.041   4.516 -1.4656 -0.5152  1.5480
   21MOL   H356 9996   2.538   4.834   4.353 -1.2816 -0.5485 -0.7017
   21MOL   H357 9997   2.404   4.841   4.465 -2.1566  1.2893  0.6577
   21MOL   H358 9998   2.156   4.667   4.147  0.2875  0.4128 -0.1052
   21MOL   H359 9999   2.302   4.682   4.073  1.1274  0.9797  0.8786
   21MOL   H36010000   2.054   4.864   4.063 -0.1870  1.7650 -2.9168
   21MOL   H36110001   2.202   4.961   4.081  1.1864 -0.7215  1.6692
   21MOL   O36210002   2.115   4.870   3.824 -1.2113 -0.1477 -0.1962
   21MOL   C36310003   2.144   4.896   3.688 -0.1646 -0.3771 -0.0713
   21MOL   C36410004   2.013   4.937   3.617 -0.4284  0.0043  0.3561
   21MOL   C36510005   1.956   5.067   3.671  0.0513  0.2524 -0.7023
   21MOL   C36610006   1.820   5.093   3.608 -0.1670 -0.1934 -0.3941
   21MOL   O36710007   1.840   5.115   3.471  0.2149  0.4175  0.4136
   21MOL   C36810008   1.733   5.143   3.396 -0.3115 -0.2007 -0.6697
   21MOL   O36910009   1.615   5.143   3.434 -0.6713 -0.5378 -0.2802
   21MOL   C37010010   1.764   5.185   3.253 -0.1785 -1.2755  0.0669
   21MOL   C37110011   1.878   5.289   3.254  0.7990  0.3690 -0.2293
   21MOL   C37210012   1.879   5.385   3.131 -0.4536 -0.0765  0.1918
   21MOL   O37310013   1.777   5.393   3.063 -0.7783 -0.6005 -0.1402
   21MOL   H37410014   2.207   4.984   3.678  1.0164 -0.8141  3.0354
   21MOL   H37510015   2.190   4.813   3.634 -0.1068 -0.6284  0.3556
   21MOL   H37610016   1.937   4.859   3.628 -1.8054  1.4756  1.5328
   21MOL   H37710017   2.029   4.946   3.509  0.6193  0.6718  0.5585
   21MOL   H37810018   2.036   5.139   3.652  0.1225  1.2257  2.9345
   21MOL   H37910019   1.948   5.056   3.779 -1.5234  0.1696 -0.8218
   21MOL   H38010020   1.739   5.021   3.623 -0.9400  0.9190  0.8756
   21MOL   H38110021   1.776   5.181   3.654 -1.3483 -0.1930 -1.4949
   21MOL   H38210022   1.674   5.215   3.199 -1.8493 -0.9371  2.8999
   21MOL   H38310023   1.805   5.095   3.207  2.0892  0.7436 -2.0051
   21MOL   H38410024   1.861   5.353   3.341 -1.4766 -0.1432 -0.2612
   21MOL   H38510025   1.978   5.251   3.272  0.3944  0.2213  1.8945
   21MOL   O38610026   1.999   5.437   3.100 -0.5490  0.3081 -0.3299
   21MOL   C38710027   2.014   5.507   2.978 -0.4225  0.0273  0.1215
   21MOL   C38810028   2.093   5.634   3.001  0.8210  0.5312 -0.1981
   21MOL   C38910029   2.238   5.626   3.029 -0.1871 -0.5223 -0.1895
   21MOL   C39010030   2.308   5.761   3.027 -0.2456 -0.0923  0.4568
   21MOL   O39110031   2.444   5.741   3.061 -0.1657 -0.2007  0.0033
   21MOL   C39210032   2.494   5.773   3.172  0.6747 -0.1623 -0.8560
   21MOL   O39310033   2.432   5.803   3.272  0.0044 -0.4938  0.3153
   21MOL   C39410034   2.645   5.767   3.156  0.7898  0.1185 -0.2673
   21MOL   C39510035   2.698   5.880   3.065 -0.1753  0.2368  0.6367
   21MOL   C39610036   2.794   5.821   2.962  0.0277  0.4263  0.2373
   21MOL   O39710037   2.774   5.829   2.842 -0.1701  0.3001 -0.2100
   21MOL   H39810038   2.068   5.452   2.901 -1.8412 -0.9370 -0.2086
   21MOL   H39910039   1.917   5.532   2.934  0.0259 -3.8838 -3.4568
   21MOL   H40010040   2.038   5.696   3.073 -0.3067  1.2281 -1.6237
   21MOL   H40110041   2.077   5.692   2.910  0.4216 -0.2095 -0.6004
   21MOL   H40210042   2.281   5.561   2.953 -1.1930 -0.2052 -1.0467
   21MOL   H40310043   2.261   5.585   3.127  2.4395  3.1918  0.8623
   21MOL   H40410044   2.309   5.807   2.928  0.1111  0.5337  0.7521
   21MOL   H40510045   2.257   5.839   3.083 -0.6719  0.4571 -0.6849
   21MOL   H40610046   2.675   5.666   3.129 -0.5754 -0.8365  1.6267
   21MOL   H40710047   2.691   5.780   3.254  1.0584  2.1059 -0.6366
   21MOL   H40810048   2.615   5.921   3.006 -0.0700 -1.1850 -0.5366
   21MOL   H40910049   2.733   5.960   3.130  2.0709 -0.0015 -0.2478
   21MOL   O41010050   2.903   5.761   3.012 -0.4994  0.1167  0.2018
   21MOL   C41110051   3.001   5.710   2.922  0.2119 -0.5140  0.1470
   21MOL   C41210052   3.065   5.579   2.971  0.2022 -0.4286  0.2973
   21MOL   C41310053   2.977   5.455   2.986 -0.3246 -0.3206 -0.0837
   21MOL   C41410054   3.038   5.318   3.001 -0.8444 -0.5283 -0.1369
   21MOL   O41510055   3.099   5.295   3.129  0.0258 -1.0952  0.1686
   21MOL   C41610056   3.229   5.261   3.138  0.1258  0.0593  0.6496
   21MOL   O41710057   3.296   5.228   3.040  0.1734 -0.5075 -0.2477
   21MOL   C41810058   3.282   5.242   3.277  0.2320 -0.2669 -0.1637
   21MOL   C41910059   3.300   5.378   3.343  0.1229  0.4027 -0.3464
   21MOL   C42010060   3.273   5.384   3.489  0.0688  0.0982  0.2677
   21MOL   O42110061   3.298   5.481   3.562  0.6352 -0.6841  0.4759
   21MOL   H42210062   2.970   5.701   2.818  0.9851 -1.2127 -0.0282
   21MOL   H42310063   3.071   5.794   2.915  0.9538 -1.0425  1.1975
   21MOL   H42410064   3.104   5.589   3.073 -0.0069  0.1607  0.3205
   21MOL   H42510065   3.154   5.558   2.912  0.8387  2.3256  0.2370
   21MOL   H42610066   2.905   5.455   2.904 -1.3806  1.5242  0.8115
   21MOL   H42710067   2.927   5.468   3.082 -0.2526 -1.2168  0.0856
   21MOL   H42810068   2.953   5.250   3.001 -0.7664 -0.6263  0.5246
   21MOL   H42910069   3.099   5.287   2.916 -0.1758 -0.1630  0.2014
   21MOL   H43010070   3.376   5.187   3.280  1.1327  1.1780 -1.2050
   21MOL   H43110071   3.212   5.181   3.335  0.0200 -0.5127 -0.6789
   21MOL   H43210072   3.401   5.413   3.321  0.4996  0.0377  0.7834
   21MOL   H43310073   3.233   5.452   3.300 -0.2174  0.8316  0.8987
   21MOL   O43410074   3.213   5.282   3.541 -0.2734  0.3343  1.1088
   21MOL   C43510075   3.162   5.292   3.672  0.0559  0.4723 -0.3134
   21MOL   C43610076   3.156   5.149   3.736  0.4611 -0.2690  0.0281
   21MOL   C43710077   3.079   5.143   3.864  0.3329  0.0987  0.0925
   21MOL   C43810078   3.098   5.016   3.956 -0.1559  0.4853 -0.5455
   21MOL   O43910079   3.232   4.977   3.968 -0.0375  0.2042 -0.5629
   21MOL   C44010080   3.273   4.901   4.077  0.6923  0.3223 -0.4058
   21MOL   O44110081   3.202   4.841   4.159 -0.8180  0.0368  0.1766
   21MOL   C44210082   3.422   4.890   4.080  0.4200  0.1645  0.3715
   21MOL   C44310083   3.481   4.837   4.211  0.3807  0.4995 -0.0917
   21MOL   C44410084   3.493   4.942   4.311 -0.0455 -0.0853 -0.4038
   21MOL   O44510085   3.556   5.050   4.291  0.2097  0.6834 -0.3350
   21MOL   H44610086   3.231   5.348   3.736  0.2282 -0.1650  0.0671
   21MOL   H44710087   3.068   5.346   3.678  0.5929  1.2818  1.2222
   21MOL   H44810088   3.251   5.097   3.747  0.4199  0.0150  1.8625
   21MOL   H44910089   3.097   5.094   3.661 -0.1705 -0.1848  0.4569
   21MOL   H45010090   2.973   5.161   3.846 -0.0698 -0.0871  2.1460
   21MOL   H45110091   3.116   5.231   3.918  1.3836 -1.0453  1.2647
   21MOL   H45210092   3.056   5.045   4.053 -0.4235  0.7365 -0.7326
   21MOL   H45310093   3.050   4.927   3.914 -0.4737 -0.6399  2.1147
   21MOL   H45410094   3.477   4.975   4.040 -0.2264 -0.3708 -1.7753
   21MOL   H45510095   3.448   4.811   4.009  0.1550  0.2379  0.1947
   21MOL   H45610096   3.424   4.757   4.259 -1.3628  1.0746 -1.1231
   21MOL   H45710097   3.579   4.798   4.186 -0.0838  0.4124 -1.8601
   21MOL   O45810098   3.440   4.908   4.427 -0.3908 -0.8973  0.2087
   21MOL   C45910099   3.447   4.996   4.547  0.3887  0.1514 -0.2167
   21MOL   C46010100   3.358   4.929   4.655  0.7250  0.1126 -0.1652
   21MOL   C46110101   3.316   5.027   4.767 -0.1920  0.4200 -0.3667
   21MOL   C46210102   3.450   5.075   4.847 -0.4251 -0.2730 -0.3703
   21MOL   O46310103   3.411   5.152   4.954  0.5471  0.6412 -0.1074
   21MOL   C46410104   3.496   5.199   5.043  0.1541 -0.1179  0.3262
   21MOL   O46510105   3.616   5.169   5.046  0.0843 -0.0316  0.1069
   21MOL   C46610106   3.423   5.281   5.148  0.3758  0.3512 -0.2606
   21MOL   C46710107   3.411   5.427   5.103  0.1767  1.3637 -0.1792
   21MOL   C46810108   3.305   5.448   5.000  0.0289 -0.7709 -0.4659
   21MOL   O46910109   3.186   5.443   5.033  0.6698 -0.1565 -0.5358
   21MOL   H47010110   3.548   4.999   4.588 -0.8267  0.9432  2.8489
   21MOL   H47110111   3.409   5.093   4.515  4.0814  2.0148  0.7339
   21MOL   H47210112   3.403   4.842   4.702 -1.3146 -1.6417 -1.3864
   21MOL   H47310113   3.269   4.899   4.600  0.0519  1.1332  0.3549
   21MOL   H47410114   3.245   4.978   4.834  0.3617  0.2679  0.1207
   21MOL   H47510115   3.263   5.112   4.724  0.5054  0.7595 -0.5559
   21MOL   H47610116   3.502   4.986   4.881 -0.4369 -0.9505 -2.0807
   21MOL   H47710117   3.517   5.135   4.785 -0.1316  0.4855  0.6576
   21MOL   H47810118   3.471   5.274   5.245  0.7369  0.8152 -0.4004
   21MOL   H47910119   3.323   5.241   5.163  0.2625 -0.3124 -2.4856
   21MOL   H48010120   3.394   5.482   5.195  0.9665 -0.5608  1.1489
   21MOL   H48110121   3.500   5.471   5.059 -0.0393  1.2843 -0.7118
   21MOL   H48210122   3.337   5.473   4.899 -2.0572 -0.3244 -1.0432
   22MOL     O110123   6.254   4.155   1.192  0.3771  0.1261 -0.4314
   22MOL     C210124   6.343   4.140   1.085  0.2699 -0.0368 -0.1322
   22MOL     C310125   6.459   4.066   1.136 -0.5643  0.3611  0.0432
   22MOL     C410126   6.552   4.037   1.024 -0.6248  0.2057 -0.2276
   22MOL     C510127   6.649   3.924   1.062 -0.2417 -0.2004 -0.0744
   22MOL     O610128   6.734   3.973   1.163  0.5673  0.2941 -0.5795
   22MOL     C710129   6.853   3.921   1.175 -0.2715 -0.6885  0.3115
   22MOL     O810130   6.904   3.834   1.100  0.0734  0.0487  0.0804
   22MOL     C910131   6.927   3.986   1.289  0.2768  0.5231  0.3383
   22MOL    C1010132   6.978   3.877   1.385 -0.3648 -0.4590 -0.3899
   22MOL    C1110133   7.126   3.853   1.377  0.5125  0.6625  1.0123
   22MOL    O1210134   7.200   3.876   1.281  0.6149 -0.1330 -0.5373
   22MOL    H1310135   6.290   4.080   1.011 -3.0051 -1.7288  3.4046
   22MOL    H1410136   6.362   4.239   1.044 -0.4195  1.0995  2.2153
   22MOL    H1510137   6.428   3.972   1.181  0.7894  0.7696  1.9181
   22MOL    H1610138   6.507   4.129   1.211 -0.5776 -0.7334  0.9832
   22MOL    H1710139   6.606   4.128   0.998  1.6740 -1.8209 -2.8403
   22MOL    H1810140   6.501   4.014   0.931 -1.2570 -2.3542  0.7110
   22MOL    H1910141   6.594   3.833   1.083  0.5638 -0.8689 -0.8135
   22MOL    H2010142   6.706   3.895   0.973 -0.0223  1.4480 -0.4878
   22MOL    H2110143   6.867   4.060   1.342  0.9331 -0.6361  2.8068
   22MOL    H2210144   6.997   4.061   1.254 -2.5313  3.2846  0.4726
   22MOL    H2310145   6.962   3.912   1.487  0.3420 -0.6671 -0.2081
   22MOL    H2410146   6.927   3.780   1.380 -0.1707 -0.4369 -3.3754
   22MOL    H2510147   6.240   4.070   1.231  0.2578 -0.2852 -1.3623
   22MOL    O2610148   7.175   3.802   1.488  0.0436  0.1389  0.0433
   22MOL    C2710149   7.310   3.750   1.488  0.4730 -0.1606 -0.5634
   22MOL    C2810150   7.311   3.601   1.529  0.6649 -0.0743  0.2363
   22MOL    C2910151   7.457   3.552   1.519 -0.7848 -1.0974 -0.3826
   22MOL    C3010152   7.448   3.401   1.564  0.2166 -0.0278  0.3351
   22MOL    O3110153   7.391   3.377   1.696 -0.0546 -0.6319 -0.2550
   22MOL    C3210154   7.332   3.251   1.717  0.2054 -0.7625 -0.3191
   22MOL    O3310155   7.324   3.151   1.642 -0.0048  0.0291  0.2328
   22MOL    C3410156   7.266   3.246   1.853 -0.3670 -0.2958 -0.3795
   22MOL    C3510157   7.312   3.115   1.916  0.0367  0.0010 -0.1504
   22MOL    C3610158   7.256   3.092   2.062  0.8656  0.2506  1.1140
   22MOL    O3710159   7.333   3.100   2.158  0.8140  0.7465 -0.0835
   22MOL    H3810160   7.367   3.766   1.396  0.2635  0.8866 -0.5186
   22MOL    H3910161   7.363   3.812   1.560  1.5523 -2.5428  0.7474
   22MOL    H4010162   7.238   3.544   1.471 -1.2040  2.9796 -0.5092
   22MOL    H4110163   7.280   3.596   1.633 -2.5823 -1.4401 -0.7259
   22MOL    H4210164   7.525   3.610   1.582 -1.0129 -3.4244  2.1243
   22MOL    H4310165   7.494   3.579   1.420  0.0228 -1.3476 -0.1544
   22MOL    H4410166   7.382   3.350   1.495  0.3244  0.2803  0.0074
   22MOL    H4510167   7.550   3.363   1.561  0.1619 -0.1533  0.0357
   22MOL    H4610168   7.159   3.240   1.835 -0.1732 -1.1501 -1.2945
   22MOL    H4710169   7.289   3.338   1.905 -0.0527 -1.4468  1.5651
   22MOL    H4810170   7.293   3.029   1.853  2.2766 -0.2239 -0.5764
   22MOL    H4910171   7.420   3.122   1.931  0.1553 -1.5658 -0.1848
   22MOL    O5010172   7.127   3.072   2.059 -0.1639  0.2251  0.2118
   22MOL    C5110173   7.059   3.055   2.178  0.4703  0.6465 -0.3930
   22MOL    C5210174   6.910   3.091   2.166  0.7580 -0.0124  0.0500
   22MOL    C5310175   6.879   3.229   2.115 -0.1344 -0.8600 -0.1891
   22MOL    C5410176   6.968   3.341   2.179 -0.7995  0.3184  0.3126
   22MOL    O5510177   6.945   3.353   2.318 -0.1010 -0.7351 -0.3902
   22MOL    C5610178   6.890   3.457   2.376  0.4114  0.5920  1.1586
   22MOL    O5710179   6.831   3.545   2.314 -0.4347 -0.1225 -0.4361
   22MOL    C5810180   6.918   3.464   2.522 -0.2853 -0.2442  0.0186
   22MOL    C5910181   6.837   3.576   2.591  0.0303  0.0629  0.4115
   22MOL    C6010182   6.786   3.553   2.732  0.5269 -0.7419  0.2896
   22MOL    O6110183   6.708   3.633   2.779 -0.2989 -0.5528 -0.2504
   22MOL    H6210184   7.070   2.949   2.201 -1.8572 -0.0439 -2.2358
   22MOL    H6310185   7.094   3.113   2.263  0.3000  1.6815 -1.0236
   22MOL    H6410186   6.862   3.081   2.263  1.5728 -0.6080  0.4060
   22MOL    H6510187   6.859   3.025   2.097 -1.4497  0.7816  0.8961
   22MOL    H6610188   6.775   3.260   2.129 -0.0152 -0.0898 -0.9593
   22MOL    H6710189   6.883   3.227   2.006  1.1147 -1.1281 -0.1383
   22MOL    H6810190   7.068   3.311   2.147 -0.0666  0.8603  2.0752
   22MOL    H6910191   6.940   3.434   2.128 -1.1573 -1.6179 -3.1643
   22MOL    H7010192   7.024   3.458   2.546 -0.8650 -3.0115  2.2018
   22MOL    H7110193   6.900   3.363   2.560  0.8252  0.2595  1.9528
   22MOL    H7210194   6.910   3.656   2.603 -1.4001  1.2787  1.1262
   22MOL    H7310195   6.758   3.617   2.528 -0.0077  0.9740  1.0529
   22MOL    O7410196   6.833   3.453   2.801 -0.3816  1.3010 -0.0629
   22MOL    C7510197   6.809   3.433   2.943 -0.2730 -0.0894 -0.2139
   22MOL    C7610198   6.683   3.349   2.961  0.5316 -0.2068 -0.1023
   22MOL    C7710199   6.636   3.346   3.108  0.2890 -0.6869  0.8102
   22MOL    C7810200   6.553   3.471   3.148  0.3983  0.1825 -0.2418
   22MOL    O7910201   6.613   3.594   3.118 -0.2554 -0.3745 -0.9463
   22MOL    C8010202   6.538   3.707   3.099 -0.3195 -0.3056  0.1601
   22MOL    O8110203   6.418   3.709   3.116 -0.7889  0.0289  0.4824
   22MOL    C8210204   6.620   3.825   3.059  1.0870  0.4757 -0.2162
   22MOL    C8310205   6.769   3.830   3.108  0.9045 -0.9148  0.3462
   22MOL    C8410206   6.780   3.809   3.261 -1.0772 -0.3719  0.5058
   22MOL    O8510207   6.850   3.720   3.308  0.0604  0.2497 -0.2725
   22MOL    H8610208   6.889   3.384   2.997  0.8158  2.1380  0.2694
   22MOL    H8710209   6.810   3.535   2.981 -2.2300  0.2679 -1.0658
   22MOL    H8810210   6.700   3.245   2.932 -0.5827 -0.5733  0.5196
   22MOL    H8910211   6.605   3.378   2.891  0.9121 -0.6874 -0.7300
   22MOL    H9010212   6.726   3.340   3.168  0.9481  0.7649 -0.0094
   22MOL    H9110213   6.583   3.254   3.131 -0.9366  0.7776  4.1104
   22MOL    H9210214   6.458   3.468   3.094 -0.1918  0.7612  0.7515
   22MOL    H9310215   6.517   3.474   3.251  1.9104 -0.2088  0.3138
   22MOL    H9410216   6.579   3.920   3.093  0.0906 -0.0645  0.1093
   22MOL    H9510217   6.616   3.818   2.950  2.0403 -0.8410 -0.1744
   22MOL    H9610218   6.821   3.750   3.056 -0.4604 -0.3239 -2.0115
   22MOL    H9710219   6.821   3.921   3.081 -1.6867  0.1009 -1.4948
   22MOL    O9810220   6.722   3.910   3.336 -0.7192  0.3913 -0.3262
   22MOL    C9910221   6.727   3.914   3.478 -0.1534  0.5796 -0.3312
   22MOL   C10010222   6.589   3.877   3.537  0.8398 -0.7289  0.3777
   22MOL   C10110223   6.573   3.908   3.688 -0.0924 -0.3464  0.1052
   22MOL   C10210224   6.438   3.854   3.740 -0.1895  0.7869 -0.0121
   22MOL   O10310225   6.318   3.916   3.689 -0.2736  0.0361 -0.1421
   22MOL   C10410226   6.275   4.020   3.753  0.1398  0.6241 -0.0862
   22MOL   O10510227   6.334   4.073   3.847  0.3252  0.0138  0.3429
   22MOL   C10610228   6.134   4.073   3.703 -0.0142  0.2152  0.4025
   22MOL   C10710229   6.020   4.011   3.781 -0.0150 -0.3732 -0.4839
   22MOL   C10810230   5.988   3.872   3.737 -0.0568 -0.2677 -0.5311
   22MOL   O10910231   5.922   3.855   3.635  0.1999  0.1470 -0.2402
   22MOL   H11010232   6.809   3.857   3.522 -0.2360 -0.1042 -1.0626
   22MOL   H11110233   6.745   4.016   3.512  0.7743 -0.0727  1.1671
   22MOL   H11210234   6.561   3.775   3.510 -0.9933 -0.1089 -0.1263
   22MOL   H11310235   6.521   3.940   3.480  1.2283 -0.3098  0.3788
   22MOL   H11410236   6.572   4.016   3.705 -1.3071 -0.3703  0.2495
   22MOL   H11510237   6.661   3.871   3.738 -0.7705 -2.1819 -0.0449
   22MOL   H11610238   6.437   3.747   3.721  0.4142  0.7947 -0.0981
   22MOL   H11710239   6.432   3.865   3.848 -0.0996  1.7280 -0.0994
   22MOL   H11810240   6.138   4.056   3.596  2.0209 -3.5752  0.9641
   22MOL   H11910241   6.123   4.181   3.703  0.7347  0.2988  0.4778
   22MOL   H12010242   6.034   4.018   3.889  2.3414  0.0285 -0.7855
   22MOL   H12110243   5.932   4.071   3.760 -0.0159  0.2608  1.2272
   22MOL   O12210244   6.044   3.783   3.822  0.4593  0.0028  0.1276
   22MOL   C12310245   6.001   3.649   3.819 -0.0167 -0.1430  0.7032
   22MOL   C12410246   6.089   3.576   3.713  0.3878 -0.8604 -0.1133
   22MOL   C12510247   6.045   3.431   3.684  0.0885 -0.5314 -0.6773
   22MOL   C12610248   6.092   3.334   3.794 -0.3215 -0.2654 -0.0724
   22MOL   O12710249   6.021   3.338   3.915  0.5588  0.6392 -0.0485
   22MOL   C12810250   6.060   3.253   4.014  0.3898  1.0659  0.5743
   22MOL   O12910251   6.162   3.188   4.008  0.7415 -0.1343 -1.0235
   22MOL   C13010252   5.960   3.253   4.130  0.1658 -0.2901  0.5403
   22MOL   C13110253   5.949   3.111   4.188 -0.6280 -0.9465  0.0218
   22MOL   C13210254   6.005   3.122   4.333  0.4931  0.2468  0.3844
   22MOL   O13310255   5.934   3.117   4.435 -0.2153  0.6747  0.6097
   22MOL   H13410256   5.997   3.598   3.915 -3.8190  2.8652  2.2770
   22MOL   H13510257   5.896   3.647   3.790 -0.3593  0.5972  1.8538
   22MOL   H13610258   6.195   3.582   3.741  0.9253 -1.1876 -1.9688
   22MOL   H13710259   6.092   3.636   3.622 -0.9602 -0.4589  0.1020
   22MOL   H13810260   6.083   3.413   3.584  0.4860 -0.8899 -0.4627
   22MOL   H13910261   5.936   3.426   3.680 -0.1474  2.4772  0.5864
   22MOL   H14010262   6.073   3.231   3.763  1.5848 -0.7388  0.2753
   22MOL   H14110263   6.199   3.350   3.806 -0.1383  0.6581 -2.6627
   22MOL   H14210264   5.867   3.281   4.081  0.8557  0.5950 -0.3005
   22MOL   H14310265   5.966   3.329   4.207 -1.4650  0.3655  0.0341
   22MOL   H14410266   5.847   3.079   4.211 -0.5441 -1.6104 -0.5200
   22MOL   H14510267   6.004   3.036   4.131  1.0817  0.2151  0.1219
   22MOL   O14610268   6.136   3.143   4.322  0.3843  0.0516 -0.1929
   22MOL   C14710269   6.202   3.186   4.439  0.4479 -0.0247  0.8287
   22MOL   C14810270   6.307   3.293   4.386  0.0867  0.1303  0.3138
   22MOL   C14910271   6.396   3.248   4.271 -0.3947  0.0757 -0.3704
   22MOL   C15010272   6.472   3.371   4.207 -0.3036  0.5497  0.0533
   22MOL   O15110273   6.379   3.466   4.154  0.8114 -0.6120  0.3689
   22MOL   C15210274   6.359   3.496   4.026 -0.1314 -1.8306 -0.6853
   22MOL   O15310275   6.405   3.428   3.935  0.0071  0.0880  0.2874
   22MOL   C15410276   6.269   3.618   4.003  0.5748 -0.1783 -1.1856
   22MOL   C15510277   6.283   3.738   4.092  0.4859 -0.1275 -0.2204
   22MOL   C15610278   6.148   3.798   4.140 -0.6812  0.4225  0.2144
   22MOL   O15710279   6.049   3.727   4.156 -0.2367  0.1609  0.1456
   22MOL   H15810280   6.133   3.226   4.513 -2.2140  0.0185 -1.5881
   22MOL   H15910281   6.259   3.103   4.480 -1.0090 -1.6227 -0.3108
   22MOL   H16010282   6.374   3.311   4.470  0.1008 -1.9256  0.7599
   22MOL   H16110283   6.256   3.388   4.367  1.6447  1.3295  1.9054
   22MOL   H16210284   6.331   3.194   4.203 -0.3002 -0.7042  0.1566
   22MOL   H16310285   6.467   3.171   4.301  0.2321  0.2680 -1.3127
   22MOL   H16410286   6.528   3.427   4.282 -2.3744  0.7946  1.4647
   22MOL   H16510287   6.541   3.341   4.128 -0.7254  0.6079 -0.3356
   22MOL   H16610288   6.180   3.566   4.035 -1.6583  3.3231 -1.4253
   22MOL   H16710289   6.274   3.639   3.896 -1.9438 -1.7563 -1.6416
   22MOL   H16810290   6.347   3.720   4.178  0.1597 -3.7567 -0.6643
   22MOL   H16910291   6.325   3.819   4.032  0.5075  1.6094  2.0887
   22MOL   O17010292   6.147   3.934   4.154  0.1413 -0.1633  0.1839
   22MOL   C17110293   6.027   4.005   4.178  0.2505 -0.6545 -0.0127
   22MOL   C17210294   6.008   4.041   4.322  0.6157 -0.6227 -0.4382
   22MOL   C17310295   5.883   4.112   4.347  0.3532  0.2169 -0.4973
   22MOL   C17410296   5.883   4.255   4.284  0.5472 -0.1363 -0.1730
   22MOL   O17510297   5.758   4.320   4.317 -0.1795  0.1367 -0.0157
   22MOL   C17610298   5.704   4.416   4.242  0.0221 -0.3178 -0.3002
   22MOL   O17710299   5.738   4.438   4.126  0.5653 -0.6492  0.5580
   22MOL   C17810300   5.585   4.490   4.311  0.2828  0.2018 -0.1552
   22MOL   C17910301   5.486   4.387   4.357  0.1858 -0.1316  0.8112
   22MOL   C18010302   5.347   4.432   4.392 -0.5851 -0.1854 -0.5610
   22MOL   O18110303   5.272   4.473   4.307 -0.3849  0.4172 -0.2295
   22MOL   H18210304   6.026   4.097   4.120 -0.0767 -0.6336  0.0215
   22MOL   H18310305   5.944   3.961   4.123  0.4905  0.4906 -1.3278
   22MOL   H18410306   6.090   4.099   4.364 -0.5143  0.6634  0.0103
   22MOL   H18510307   6.002   3.945   4.374  3.6130 -0.7147 -0.1254
   22MOL   H18610308   5.863   4.112   4.454  0.0545 -1.2068 -0.5414
   22MOL   H18710309   5.800   4.056   4.305  1.5994 -2.0158 -0.1017
   22MOL   H18810310   5.956   4.313   4.341  0.5661 -1.4600  1.1920
   22MOL   H18910311   5.887   4.258   4.175  0.3290  0.1248 -0.1751
   22MOL   H19010312   5.545   4.551   4.230 -1.6902 -2.3250 -1.1531
   22MOL   H19110313   5.620   4.561   4.386  1.4823 -0.2068 -0.3174
   22MOL   H19210314   5.449   4.334   4.270 -2.0738  2.2800  0.2296
   22MOL   H19310315   5.523   4.311   4.426 -0.5653  0.1251  1.5036
   22MOL   O19410316   5.329   4.440   4.524  0.1703  0.5125 -0.7207
   22MOL   C19510317   5.203   4.477   4.568  0.4377 -0.2010  0.0276
   22MOL   C19610318   5.188   4.484   4.722  0.2990 -0.1941 -0.6360
   22MOL   C19710319   5.293   4.582   4.780  0.2299  0.0706 -0.1847
   22MOL   C19810320   5.271   4.590   4.930  0.2105  0.6450  0.2067
   22MOL   O19910321   5.380   4.667   4.988 -0.1779  0.2130  0.1385
   22MOL   C20010322   5.415   4.637   5.115 -0.3193  0.9430 -0.1654
   22MOL   O20110323   5.334   4.578   5.193  0.2627 -0.4162  0.2174
   22MOL   C20210324   5.565   4.688   5.154  0.2511  0.3109  0.0673
   22MOL   C20310325   5.589   4.832   5.130  0.5703 -0.3933 -0.0294
   22MOL   C20410326   5.708   4.850   5.037 -0.5498  0.0188  0.8037
   22MOL   O20510327   5.700   4.888   4.920 -0.0012  0.6653  0.0086
   22MOL   H20610328   5.182   4.579   4.534 -0.1207  0.0426  1.0663
   22MOL   H20710329   5.125   4.417   4.522 -0.7727  1.6102 -0.3206
   22MOL   H20810330   5.215   4.392   4.772 -0.4093  0.5429  1.1191
   22MOL   H20910331   5.088   4.517   4.750  0.1592 -0.0675 -1.2589
   22MOL   H21010332   5.276   4.674   4.722 -0.7972  1.6702  2.5466
   22MOL   H21110333   5.391   4.551   4.744  1.4282  2.5401  0.7954
   22MOL   H21210334   5.187   4.653   4.959  0.4242  0.1968  1.8755
   22MOL   H21310335   5.276   4.489   4.970  0.3345 -1.0344 -3.8210
   22MOL   H21410336   5.637   4.632   5.095  0.1607  1.3760 -1.0790
   22MOL   H21510337   5.574   4.657   5.258  0.6874  1.3603  0.3486
   22MOL   H21610338   5.509   4.878   5.072 -0.7804  1.3274  3.0676
   22MOL   H21710339   5.611   4.880   5.225 -3.5711 -1.5631  1.6391
   22MOL   O21810340   5.821   4.809   5.097  0.5507 -0.5538  0.6070
   22MOL   C21910341   5.944   4.829   5.026  0.3848  0.1663  0.4037
   22MOL   C22010342   5.983   4.709   4.941 -0.0740 -0.0342 -0.1683
   22MOL   C22110343   6.136   4.715   4.929  0.5027 -0.0721 -0.0875
   22MOL   C22210344   6.180   4.588   4.856 -0.4445  0.1320  0.3288
   22MOL   O22310345   6.133   4.587   4.717  0.1688  0.2386  0.1075
   22MOL   C22410346   6.217   4.532   4.617  1.1426 -0.7528  0.6046
   22MOL   O22510347   6.327   4.487   4.634  0.1303  0.9748 -0.1176
   22MOL   C22610348   6.163   4.533   4.471  0.0461 -0.1757  0.4668
   22MOL   C22710349   6.189   4.665   4.395  0.0575 -0.6599 -0.1578
   22MOL   C22810350   6.308   4.646   4.299 -0.2173 -0.8323 -0.3794
   22MOL   O22910351   6.287   4.664   4.178  0.4560 -0.5565  0.0523
   22MOL   H23010352   5.940   4.924   4.973  3.5094 -1.0624 -2.2375
   22MOL   H23110353   6.015   4.842   5.107 -0.7067  0.9229  1.2470
   22MOL   H23210354   5.935   4.719   4.844 -1.8198  0.3850  0.7157
   22MOL   H23310355   5.953   4.617   4.993  2.4850 -0.5325  0.5419
   22MOL   H23410356   6.188   4.711   5.025 -2.1647 -0.7246  1.3754
   22MOL   H23510357   6.167   4.799   4.866 -0.3759 -0.9497 -1.7102
   22MOL   H23610358   6.289   4.589   4.856 -0.4027 -0.9671  2.2675
   22MOL   H23710359   6.146   4.492   4.898 -1.8547  0.5799  0.2430
   22MOL   H23810360   6.063   4.494   4.455  0.0095  0.4735 -0.9519
   22MOL   H23910361   6.221   4.458   4.417 -2.4189  0.3989 -3.0926
   22MOL   H24010362   6.104   4.704   4.338  1.1581  3.1333  0.6315
   22MOL   H24110363   6.197   4.748   4.465 -2.7288 -1.0956  0.7093
   22MOL   O24210364   6.420   4.592   4.355  0.0112 -0.9386  0.1237
   22MOL   C24310365   6.519   4.537   4.271 -0.0462  0.5843 -0.2561
   22MOL   C24410366   6.643   4.504   4.358  0.4617 -0.1161 -0.1646
   22MOL   C24510367   6.756   4.435   4.285 -0.6460  0.1660 -0.2752
   22MOL   C24610368   6.867   4.384   4.379  0.1573 -0.3848  1.0165
   22MOL   O24710369   6.925   4.490   4.460  0.0338 -0.6735 -0.0820
   22MOL   C24810370   7.035   4.457   4.528  0.4395  0.7384  0.1730
   22MOL   O24910371   7.096   4.355   4.522 -0.2685 -0.1695  0.1298
   22MOL   C25010372   7.081   4.581   4.612  0.4750 -0.1266  0.0486
   22MOL   C25110373   7.047   4.564   4.760  0.6992  0.1858 -0.1232
   22MOL   C25210374   6.942   4.665   4.797 -0.8302  0.5687 -0.0745
   22MOL   O25310375   6.962   4.739   4.897  0.0863  0.2156  0.6721
   22MOL   H25410376   6.484   4.445   4.225  1.0645  0.3781 -0.7099
   22MOL   H25510377   6.538   4.607   4.190 -2.9311 -0.1466 -1.6310
   22MOL   H25610378   6.604   4.439   4.436  2.3467 -0.6193  0.3664
   22MOL   H25710379   6.674   4.596   4.408  1.9511 -0.0504 -1.1986
   22MOL   H25810380   6.814   4.500   4.220 -2.1547  0.5413 -1.2857
   22MOL   H25910381   6.712   4.355   4.225 -1.5010  0.5298 -0.1520
   22MOL   H26010382   6.825   4.308   4.445  0.7742 -0.6245  1.1303
   22MOL   H26110383   6.944   4.335   4.320  1.5453  1.1219  1.5419
   22MOL   H26210384   7.042   4.676   4.574 -2.6577 -1.3647 -0.0203
   22MOL   H26310385   7.189   4.590   4.605  0.6888 -0.7001  2.3209
   22MOL   H26410386   7.021   4.460   4.776  0.5699  0.2380  0.0135
   22MOL   H26510387   7.133   4.588   4.823  1.3842  3.2282 -2.1035
   22MOL   O26610388   6.838   4.654   4.731 -0.0826  0.2180 -0.0334
   22MOL   C26710389   6.719   4.726   4.766  0.2335 -0.2684  0.7467
   22MOL   C26810390   6.616   4.640   4.843  0.4953  0.9834  0.8832
   22MOL   C26910391   6.668   4.558   4.966 -0.2280 -0.5555 -0.2415
   22MOL   C27010392   6.554   4.497   5.046  0.2090 -0.1224 -0.1364
   22MOL   O27110393   6.478   4.601   5.099 -0.0358 -0.1208  0.3738
   22MOL   C27210394   6.454   4.605   5.235 -0.0901  0.5528 -0.1063
   22MOL   O27310395   6.476   4.524   5.323  0.5362  0.4132 -0.0510
   22MOL   C27410396   6.367   4.725   5.262 -0.5664  0.2226 -0.7423
   22MOL   C27510397   6.442   4.858   5.240  0.1848  0.1449  0.6659
   22MOL   C27610398   6.362   4.943   5.148 -0.4725  0.3312  0.0238
   22MOL   O27710399   6.251   4.981   5.181 -0.1467  0.8905 -0.1631
   22MOL   H27810400   6.736   4.811   4.832 -0.1318  0.0476  0.4372
   22MOL   H27910401   6.684   4.747   4.664  3.2182  1.4176  0.0138
   22MOL   H28010402   6.591   4.558   4.776 -0.9165  1.1559  1.1746
   22MOL   H28110403   6.521   4.693   4.843 -0.7615 -1.1994  1.5754
   22MOL   H28210404   6.726   4.629   5.024 -2.0199  0.2241  0.6123
   22MOL   H28310405   6.742   4.487   4.930  1.9822  1.2237  0.6957
   22MOL   H28410406   6.482   4.448   4.980  0.0765  2.3522 -1.8948
   22MOL   H28510407   6.603   4.429   5.115  1.3220 -0.2768 -1.0490
   22MOL   H28610408   6.348   4.716   5.369  0.2492  0.8342 -0.5468
   22MOL   H28710409   6.264   4.723   5.226 -0.5172  1.5002 -0.9893
   22MOL   H28810410   6.464   4.907   5.334  1.6284  1.2238 -0.2042
   22MOL   H28910411   6.540   4.847   5.194  0.0799 -0.5351  0.5986
   22MOL   O29010412   6.420   4.981   5.036  0.5044 -0.5176 -0.0522
   22MOL   C29110413   6.361   5.089   4.962  0.1211  0.3782 -0.1649
   22MOL   C29210414   6.467   5.205   4.954  0.1583  0.3011 -0.5105
   22MOL   C29310415   6.587   5.160   4.865 -0.0634  0.2385 -0.7354
   22MOL   C29410416   6.699   5.256   4.884  1.0938  0.5599 -0.0450
   22MOL   O29510417   6.811   5.190   4.824  0.5427 -1.0803  0.0619
   22MOL   C29610418   6.917   5.265   4.779 -0.3090 -0.1927  0.5018
   22MOL   O29710419   6.921   5.387   4.781  0.0123 -0.3741 -0.8671
   22MOL   C29810420   7.033   5.187   4.713  0.0439 -0.4490  0.1979
   22MOL   C29910421   7.045   5.046   4.767 -0.0014 -0.6148 -0.4436
   22MOL   C30010422   7.152   4.980   4.687 -0.3180  0.2432  0.6478
   22MOL   O30110423   7.133   4.910   4.591 -0.4032  0.0337  0.1155
   22MOL   H30210424   6.348   5.063   4.857  0.8772  2.1519 -0.7196
   22MOL   H30310425   6.262   5.127   4.987  0.4596  1.1851 -0.0346
   22MOL   H30410426   6.511   5.221   5.052 -1.0225  2.1838 -0.2540
   22MOL   H30510427   6.424   5.299   4.918  0.7560  0.4611 -0.8132
   22MOL   H30610428   6.557   5.154   4.760 -2.6851  2.8385 -0.1982
   22MOL   H30710429   6.622   5.065   4.906  0.5788  0.8533  0.1431
   22MOL   H30810430   6.682   5.357   4.846 -0.3158  0.0436 -0.8228
   22MOL   H30910431   6.722   5.268   4.990 -1.0032  0.8969  0.3876
   22MOL   H31010432   7.124   5.246   4.710 -0.5442  0.4676  0.4476
   22MOL   H31110433   6.997   5.175   4.611  3.4749  0.8170 -1.2664
   22MOL   H31210434   7.077   5.060   4.871  0.2074  0.3686 -0.6324
   22MOL   H31310435   6.948   4.996   4.759 -0.2763 -0.4263  1.4519
   22MOL   O31410436   7.274   4.998   4.735  0.5346  0.0482 -0.2540
   22MOL   C31510437   7.388   4.934   4.680 -0.1286 -0.3842  0.1346
   22MOL   C31610438   7.512   4.958   4.769  0.6135 -0.5764 -0.4658
   22MOL   C31710439   7.635   4.888   4.713  0.2977  0.9395  0.2577
   22MOL   C31810440   7.774   4.932   4.765  0.6083  0.2605  0.2841
   22MOL   O31910441   7.871   4.842   4.716  0.1610 -0.4576 -0.0753
   22MOL   C32010442   0.108   4.898   4.652  0.0636 -0.0562  0.2904
   22MOL   O32110443   0.130   5.017   4.630 -0.4882 -0.4397 -0.3854
   22MOL   C32210444   0.211   4.796   4.612 -0.1022  0.3390 -0.3662
   22MOL   C32310445   0.283   4.819   4.486  0.6935 -0.2181  0.1800
   22MOL   C32410446   0.438   4.834   4.501 -0.1710  0.1816  0.3179
   22MOL   O32510447   0.490   4.939   4.460  0.2791 -0.4356  0.0623
   22MOL   H32610448   7.378   4.825   4.680  0.7793 -0.4849 -2.0665
   22MOL   H32710449   7.411   4.966   4.579  1.3250  3.0916  1.5127
   22MOL   H32810450   7.491   4.934   4.873 -0.1373  0.3590 -0.3910
   22MOL   H32910451   7.523   5.067   4.764 -0.9049 -0.4298 -1.1895
   22MOL   H33010452   7.644   4.910   4.607 -0.1890  0.1595  0.0521
   22MOL   H33110453   7.613   4.782   4.724  1.5665  0.7441  1.0593
   22MOL   H33210454   7.786   5.032   4.722 -0.7657  0.3569  0.0918
   22MOL   H33310455   7.782   4.941   4.873  1.7011 -1.7410  0.3868
   22MOL   H33410456   0.150   4.710   4.584  2.5268 -0.9378 -2.2633
   22MOL   H33510457   0.280   4.768   4.692 -1.1709  0.1247  0.5044
   22MOL   H33610458   0.284   4.725   4.430 -2.6971  0.0318 -0.4063
   22MOL   H33710459   0.226   4.887   4.424  0.6203  0.4696  0.9908
   22MOL   O33810460   0.497   4.729   4.555  0.3255 -0.5572 -0.4227
   22MOL   C33910461   0.637   4.728   4.588  0.5191 -0.2783 -0.3493
   22MOL   C34010462   0.725   4.692   4.459 -0.3042 -0.8405 -0.4566
   22MOL   C34110463   0.745   4.539   4.433 -0.9985 -0.5005 -0.0501
   22MOL   C34210464   0.854   4.497   4.337 -0.2043 -0.4361  0.4590
   22MOL   O34310465   0.797   4.503   4.211 -0.5818  0.0199  0.2103
   22MOL   C34410466   0.883   4.507   4.109 -0.3846 -0.0501 -0.5276
   22MOL   O34510467   1.004   4.492   4.108 -0.2589 -0.1209 -0.3331
   22MOL   C34610468   0.817   4.519   3.973  0.3328  0.1071 -0.3412
   22MOL   C34710469   0.874   4.421   3.866  0.5154  0.5679  0.4079
   22MOL   C34810470   0.775   4.304   3.842 -0.0602 -0.2480 -0.5349
   22MOL   O34910471   0.657   4.306   3.871 -0.6904 -0.2517 -0.5417
   22MOL   H35010472   0.673   4.818   4.639 -0.1320  1.2223 -2.4589
   22MOL   H35110473   0.643   4.643   4.656  2.2506  0.0639 -0.0436
   22MOL   H35210474   0.821   4.738   4.480 -0.9462 -0.0989  0.9524
   22MOL   H35310475   0.683   4.749   4.375 -0.4409 -1.2343 -0.6576
   22MOL   H35410476   0.644   4.513   4.402 -0.4836 -0.0582 -2.2190
   22MOL   H35510477   0.772   4.493   4.528 -1.8769 -0.2727  0.3141
   22MOL   H35610478   0.939   4.560   4.364 -0.1845  0.3799 -1.4233
   22MOL   H35710479   0.871   4.390   4.346  1.2198 -0.1368  1.5574
   22MOL   H35810480   0.832   4.624   3.947 -0.8599  0.4401  0.2662
   22MOL   H35910481   0.711   4.504   3.994  0.4613 -2.6992 -1.5746
   22MOL   H36010482   0.891   4.469   3.769  0.3246  1.0463  0.6098
   22MOL   H36110483   0.969   4.377   3.897  0.6055  1.6281  1.6954
   22MOL   O36210484   0.831   4.188   3.800  0.0945  0.2947 -0.3742
   22MOL   C36310485   0.756   4.077   3.749  0.8295 -0.1901 -0.2645
   22MOL   C36410486   0.737   3.969   3.864  0.1713 -0.4803 -0.0146
   22MOL   C36510487   0.675   3.844   3.796  0.5182  0.3691  0.1432
   22MOL   C36610488   0.535   3.879   3.733 -0.2076 -0.6494  0.1351
   22MOL   O36710489   0.478   3.774   3.665 -0.2465  0.2828  0.5046
   22MOL   C36810490   0.353   3.785   3.625  0.0012 -0.0865  0.1537
   22MOL   O36910491   0.289   3.888   3.630  0.4291  0.2332  0.4559
   22MOL   C37010492   0.306   3.662   3.548  0.0205  0.0632  0.0216
   22MOL   C37110493   0.162   3.618   3.601 -0.2104  0.6127 -0.1584
   22MOL   C37210494   0.166   3.466   3.624  0.3730 -0.6012 -0.4382
   22MOL   O37310495   0.090   3.390   3.565 -0.4905  0.4908 -0.8054
   22MOL   H37410496   0.655   4.114   3.729  0.3378 -1.1949  0.3618
   22MOL   H37510497   0.805   4.031   3.663 -2.7176 -3.2173 -0.7608
   22MOL   H37610498   0.666   4.001   3.940 -0.0007 -1.2141  0.1387
   22MOL   H37710499   0.836   3.968   3.909 -0.5460  1.5267  1.6693
   22MOL   H37810500   0.667   3.770   3.875 -1.9879 -0.7173 -1.0592
   22MOL   H37910501   0.744   3.816   3.716  0.4156  0.5685 -0.0162
   22MOL   H38010502   0.462   3.911   3.807  0.5495  0.9551  0.2096
   22MOL   H38110503   0.529   3.960   3.659 -2.2888 -1.1887 -0.3331
   22MOL   H38210504   0.386   3.587   3.545  1.2679  1.3368  0.8363
   22MOL   H38310505   0.300   3.698   3.445 -0.7222 -0.2903 -0.0597
   22MOL   H38410506   0.124   3.669   3.689 -0.6118  1.9409 -1.0955
   22MOL   H38510507   0.089   3.623   3.521  1.0084 -1.3342 -1.4606
   22MOL   O38610508   0.240   3.431   3.728 -0.3369 -0.2263  0.0460
   22MOL   C38710509   0.241   3.297   3.767 -0.4197 -0.4141 -0.1925
   22MOL   C38810510   0.147   3.277   3.883 -0.5612  0.3871  0.2224
   22MOL   C38910511   0.121   3.129   3.903 -0.3301 -0.3769  0.1543
   22MOL   C39010512   0.022   3.104   4.014  0.0493 -0.2769  0.0937
   22MOL   O39110513   7.771   3.150   3.968 -0.2491  0.1247 -0.3714
   22MOL   C39210514   7.676   3.066   3.928  0.7161 -0.9308  0.2108
   22MOL   O39310515   7.675   2.945   3.956  0.8995 -0.1591 -0.0470
   22MOL   C39410516   7.566   3.125   3.853 -0.2492 -0.3882  0.0768
   22MOL   C39510517   7.622   3.175   3.720 -0.2267 -0.3872 -0.1412
   22MOL   C39610518   7.627   3.332   3.719  0.5091 -0.0348 -0.0970
   22MOL   O39710519   7.592   3.395   3.817 -0.4306 -0.6605 -0.3536
   22MOL   H39810520   0.201   3.238   3.684 -1.1932  1.8395 -1.4699
   22MOL   H39910521   0.344   3.265   3.783  0.7538  2.6615 -1.1775
   22MOL   H40010522   0.060   3.338   3.860 -0.2566  0.6292 -0.3018
   22MOL   H40110523   0.174   3.325   3.977  2.3429  0.8878 -0.8047
   22MOL   H40210524   0.207   3.066   3.927 -1.4260 -1.7141  0.6375
   22MOL   H40310525   0.101   3.079   3.809  1.0273 -3.0026  1.1903
   22MOL   H40410526   0.010   2.998   4.035  1.9574 -0.8271 -1.4281
   22MOL   H40510527   0.041   3.167   4.101  1.0457  1.7396 -1.5364
   22MOL   H40610528   7.527   3.199   3.923  0.7357 -0.3474  0.5794
   22MOL   H40710529   7.488   3.052   3.829 -0.9406  0.5188 -0.4927
   22MOL   H40810530   7.721   3.140   3.692  0.8141  0.2112  2.6598
   22MOL   H40910531   7.546   3.146   3.647 -0.3476  1.6401 -0.8569
   22MOL   O41010532   7.667   3.381   3.600 -0.4818 -0.0901 -0.5168
   22MOL   C41110533   7.687   3.525   3.588  0.4762  0.9690 -0.9635
   22MOL   C41210534   7.715   3.566   3.441 -0.0178  0.0909  0.0038
   22MOL   C41310535   7.598   3.545   3.344  0.2766 -0.0017 -0.3591
   22MOL   C41410536   7.478   3.643   3.358  0.1875  0.7576 -0.3479
   22MOL   O41510537   7.359   3.591   3.298 -0.1205  0.2004 -0.4180
   22MOL   C41610538   7.251   3.667   3.279 -0.5621 -0.5142 -0.3185
   22MOL   O41710539   7.228   3.768   3.353 -0.2765  0.2443  0.0072
   22MOL   C41810540   7.152   3.609   3.181 -0.2048  0.0878  0.9373
   22MOL   C41910541   7.192   3.643   3.034 -0.4284  0.2600 -0.2756
   22MOL   C42010542   7.262   3.525   2.960 -0.3568  0.2325 -0.4503
   22MOL   O42110543   7.200   3.452   2.888  0.6241 -0.1769 -0.4666
   22MOL   H42210544   7.590   3.569   3.610 -0.0572 -1.5363  2.0168
   22MOL   H42310545   7.765   3.558   3.655  0.6238  1.8571 -1.5580
   22MOL   H42410546   7.797   3.504   3.406 -0.9160  0.1405 -2.2909
   22MOL   H42510547   7.744   3.671   3.441  0.7040 -0.0997 -1.5068
   22MOL   H42610548   7.549   3.449   3.355  0.2030  0.1791  0.9044
   22MOL   H42710549   7.629   3.541   3.239 -1.9565  3.8316 -1.2604
   22MOL   H42810550   7.458   3.652   3.465 -0.1399  0.7946 -0.4113
   22MOL   H42910551   7.510   3.743   3.329 -0.3719  1.4702  1.3885
   22MOL   H43010552   7.049   3.641   3.197  0.4931  1.4866  2.7221
   22MOL   H43110553   7.152   3.501   3.196  0.8296 -0.2920 -1.5671
   22MOL   H43210554   7.095   3.671   2.995 -1.2973  1.5778  2.6965
   22MOL   H43310555   7.255   3.732   3.027  1.1899 -0.7709  0.7274
   22MOL   O43410556   7.393   3.519   2.987  0.1901  0.5176  0.3887
   22MOL   C43510557   7.478   3.407   2.945 -0.0516 -0.4255 -0.5062
   22MOL   C43610558   7.610   3.439   2.883  0.1190 -0.2348  0.7319
   22MOL   C43710559   7.669   3.309   2.819 -0.4980  0.0490  0.1662
   22MOL   C43810560   7.801   3.342   2.751  0.0926 -0.4816  0.0548
   22MOL   O43910561   7.797   3.447   2.661 -0.1695 -0.0218 -0.1539
   22MOL   C44010562   7.750   3.419   2.536 -0.8704  0.8155  0.7122
   22MOL   O44110563   7.712   3.310   2.496 -0.0073  0.1240 -0.6541
   22MOL   C44210564   7.738   3.544   2.444 -0.7087 -0.0297 -0.0435
   22MOL   C44310565   7.857   3.642   2.465 -0.3957 -0.2806 -0.5815
   22MOL   C44410566   0.109   3.619   2.388  0.0256 -0.6685  0.6186
   22MOL   O44510567   0.121   3.524   2.307 -0.2967  0.0556 -0.1496
   22MOL   H44610568   7.506   3.349   3.034  0.8270 -0.6752 -0.9431
   22MOL   H44710569   7.410   3.349   2.883 -2.0797  0.0410  1.1756
   22MOL   H44810570   7.673   3.472   2.966 -1.1155  2.0015  0.8145
   22MOL   H44910571   7.612   3.525   2.817 -2.4284  0.0283  0.9354
   22MOL   H45010572   7.605   3.273   2.739 -0.8292 -1.3310  1.0329
   22MOL   H45110573   7.676   3.233   2.897  0.6439  2.3296  2.3424
   22MOL   H45210574   7.873   3.358   2.832 -0.8474  2.6641  0.3312
   22MOL   H45310575   7.844   3.254   2.703  0.6511  0.9486 -2.1115
   22MOL   H45410576   7.641   3.593   2.447 -0.6097  0.1119  1.5611
   22MOL   H45510577   7.738   3.512   2.340 -2.1261 -1.2156  0.3214
   22MOL   H45610578   7.816   3.740   2.443 -0.9958 -0.3603  0.1717
   22MOL   H45710579   0.000   3.644   2.572 -0.2720 -1.1636 -0.5783
   22MOL   O45810580   0.196   3.709   2.422 -0.8359  0.0014 -0.0415
   22MOL   C45910581   0.335   3.687   2.382  0.3564 -0.3060  0.0753
   22MOL   C46010582   0.342   3.773   2.256 -0.7189 -0.3916  0.3633
   22MOL   C46110583   0.327   3.922   2.291 -0.6081  0.2020 -0.2142
   22MOL   C46210584   0.362   4.031   2.179 -0.6758 -0.1994  0.3958
   22MOL   O46310585   0.499   4.027   2.133 -0.0120 -0.6600 -0.7022
   22MOL   C46410586   0.597   4.082   2.210  0.2473  0.6054 -0.4010
   22MOL   O46510587   0.587   4.133   2.320 -0.0051  0.5032 -0.2021
   22MOL   C46610588   0.724   4.082   2.133  0.5842  0.0958  0.0114
   22MOL   C46710589   0.733   4.208   2.043 -0.4776 -0.4528  0.1832
   22MOL   C46810590   0.782   4.174   1.895  0.0308  0.1407 -0.6516
   22MOL   O46910591   0.747   4.069   1.844 -0.4769  0.3681 -0.1275
   22MOL   H47010592   0.412   3.712   2.456  1.2477  1.7209 -1.4852
   22MOL   H47110593   0.348   3.587   2.341 -0.8331  1.2892 -4.4905
   22MOL   H47210594   0.274   3.746   2.176 -0.3524 -0.4832  0.0796
   22MOL   H47310595   0.442   3.756   2.217  0.8024  0.2364  3.7819
   22MOL   H47410596   0.395   3.930   2.376  1.7787  0.1323 -2.0799
   22MOL   H47510597   0.235   3.949   2.345 -0.1367  3.7321 -1.0759
   22MOL   H47610598   0.289   4.014   2.100 -0.2057 -1.3837  0.2064
   22MOL   H47710599   0.335   4.129   2.220 -1.0791 -1.3468  2.9857
   22MOL   H47810600   0.738   3.989   2.079 -1.7347 -0.6922  0.7221
   22MOL   H47910601   0.807   4.084   2.204  0.3587  1.0407  0.2587
   22MOL   H48010602   0.646   4.273   2.043  0.3047  0.6632 -1.9525
   22MOL   H48110603   0.803   4.270   2.099 -0.5509  1.6628 -1.9876
   22MOL   H48210604   0.835   4.249   1.837 -0.3513  1.2123  0.3574
   23MOL     O110605   5.823   5.543   4.229  0.3305 -0.0268  0.6048
   23MOL     C210606   5.929   5.452   4.225  0.3781  0.0063 -0.2583
   23MOL     C310607   6.030   5.512   4.327 -0.1401 -0.2481  0.8060
   23MOL     C410608   6.159   5.432   4.336 -0.0880  0.1576 -0.1048
   23MOL     C510609   6.268   5.490   4.425 -0.1555  0.0252 -0.0642
   23MOL     O610610   6.217   5.503   4.552  0.0517 -0.0850  0.2435
   23MOL     C710611   6.295   5.470   4.656  0.4054  0.0644  0.0633
   23MOL     O810612   6.414   5.441   4.650 -0.1623 -0.0426 -0.2727
   23MOL     C910613   6.227   5.465   4.794  0.1423  0.3902 -0.1576
   23MOL    C1010614   6.181   5.598   4.836 -0.5280  0.0177  0.2198
   23MOL    C1110615   6.034   5.640   4.808 -0.8017 -0.1791 -0.3776
   23MOL    O1210616   5.945   5.615   4.884  1.0177 -0.3819  0.2781
   23MOL    H1310617   5.890   5.354   4.252 -2.0684  0.1072 -3.2841
   23MOL    H1410618   5.970   5.451   4.124  1.2255 -0.8787  0.0925
   23MOL    H1510619   5.986   5.534   4.424  0.1086  1.1281  0.6064
   23MOL    H1610620   6.067   5.609   4.294  1.1951 -1.5445 -1.7000
   23MOL    H1710621   6.195   5.431   4.233  0.7657  0.2127  0.1903
   23MOL    H1810622   6.129   5.334   4.374  0.5317 -0.8344 -2.0962
   23MOL    H1910623   6.365   5.443   4.414  0.1930  0.6894  0.1204
   23MOL    H2010624   6.300   5.589   4.393  2.6070 -1.0042 -0.6247
   23MOL    H2110625   6.311   5.426   4.851  0.3935  0.4580 -0.4790
   23MOL    H2210626   6.149   5.388   4.802  0.9919 -0.3734  0.9951
   23MOL    H2310627   6.219   5.620   4.935  0.8413  0.4459 -0.3855
   23MOL    H2410628   6.237   5.673   4.780  1.4771 -1.5082  0.0904
   23MOL    H2510629   5.779   5.548   4.312 -1.5733 -1.3102 -0.2921
   23MOL    O2610630   6.024   5.722   4.705  0.0848 -0.1369 -0.1089
   23MOL    C2710631   5.889   5.775   4.676 -0.3856 -0.0654  0.2674
   23MOL    C2810632   5.898   5.886   4.575  0.1988 -0.2105 -0.7545
   23MOL    C2910633   5.915   5.841   4.433 -0.7710 -0.4369 -0.3665
   23MOL    C3010634   5.914   5.948   4.325 -0.0702 -0.4693  0.1350
   23MOL    O3110635   5.996   6.061   4.346 -0.2125  0.7246  0.6134
   23MOL    C3210636   5.945   6.176   4.373  0.1150 -0.4791 -0.5655
   23MOL    O3310637   5.836   6.192   4.430  0.3893  0.0712  0.0699
   23MOL    C3410638   6.033   6.285   4.332  0.1428 -0.4728 -0.1943
   23MOL    C3510639   5.984   6.421   4.369  0.1924  0.4924 -0.0604
   23MOL    C3610640   6.092   6.527   4.361 -0.6930  0.2229 -0.2863
   23MOL    O3710641   6.077   6.637   4.310  0.5218 -0.4696  0.0085
   23MOL    H3810642   5.832   5.697   4.627  1.6787  0.4659 -3.1108
   23MOL    H3910643   5.838   5.801   4.769  0.4647  1.2154  0.3790
   23MOL    H4010644   5.977   5.958   4.595  1.9223 -2.5117  0.9740
   23MOL    H4110645   5.804   5.942   4.577  1.0311  1.1731  0.3334
   23MOL    H4210646   5.848   5.759   4.407 -0.5553 -0.9740  0.7297
   23MOL    H4310647   6.018   5.805   4.428 -1.5655 -2.8053 -0.2537
   23MOL    H4410648   5.944   5.893   4.236 -0.3098 -0.7885  0.2518
   23MOL    H4510649   5.807   5.971   4.327  0.4047  1.8945  0.4709
   23MOL    H4610650   6.036   6.279   4.223  0.7352 -3.5403 -0.0451
   23MOL    H4710651   6.135   6.269   4.366 -0.5331  0.2249  2.2555
   23MOL    H4810652   5.908   6.448   4.297  0.6083 -0.7569 -0.9806
   23MOL    H4910653   5.940   6.426   4.469 -2.1632 -0.3265 -1.0409
   23MOL    O5010654   6.206   6.493   4.424  0.1132  0.4370  0.5178
   23MOL    C5110655   6.316   6.582   4.427 -0.2319 -0.1079 -0.1875
   23MOL    C5210656   6.417   6.547   4.543 -0.4566 -0.3110  0.2691
   23MOL    C5310657   6.481   6.408   4.528  0.4887 -0.0866 -0.5506
   23MOL    C5410658   6.599   6.400   4.437 -0.0865 -0.2370  0.1964
   23MOL    O5510659   6.671   6.286   4.482 -0.3951 -0.3373  0.2982
   23MOL    C5610660   6.669   6.165   4.413  0.0498  0.7172 -0.2563
   23MOL    O5710661   6.593   6.135   4.323 -0.0212  0.0806  0.0691
   23MOL    C5810662   6.753   6.057   4.477  0.7688 -0.6608 -0.1690
   23MOL    C5910663   6.868   6.031   4.383 -0.1943  0.5601 -0.1881
   23MOL    C6010664   7.004   6.105   4.417  0.5749 -0.4320  0.6417
   23MOL    O6110665   7.083   6.060   4.500  0.0677 -0.4528 -0.1035
   23MOL    H6210666   6.368   6.578   4.332 -0.1802 -0.6156 -0.1370
   23MOL    H6310667   6.287   6.686   4.443 -1.1595 -0.2316 -0.9859
   23MOL    H6410668   6.364   6.557   4.638  0.6566 -0.6236  0.9328
   23MOL    H6510669   6.496   6.622   4.539  1.0392 -1.6870  2.5646
   23MOL    H6610670   6.403   6.335   4.507 -0.6673  0.3096  2.1040
   23MOL    H6710671   6.522   6.391   4.628  1.2381  2.7719 -0.3272
   23MOL    H6810672   6.564   6.394   4.333 -2.6795  0.1424  1.0099
   23MOL    H6910673   6.666   6.485   4.452 -0.5433 -0.0116  0.9583
   23MOL    H7010674   6.684   5.972   4.476 -0.8797  0.6590  0.4625
   23MOL    H7110675   6.790   6.081   4.577 -4.1414 -2.9826  2.4150
   23MOL    H7210676   6.886   5.924   4.383  0.3770  0.6522  0.3341
   23MOL    H7310677   6.849   6.047   4.277  0.1217  2.2270 -0.0128
   23MOL    O7410678   7.025   6.217   4.359 -0.3292 -0.3762 -0.0527
   23MOL    C7510679   7.154   6.283   4.343 -0.3182 -0.4615  0.3270
   23MOL    C7610680   7.165   6.409   4.438 -0.3047  0.0990 -0.3735
   23MOL    C7710681   7.074   6.526   4.409  0.4843 -0.4500 -0.7741
   23MOL    C7810682   7.095   6.644   4.506  0.4443 -0.4282 -0.0868
   23MOL    O7910683   6.997   6.737   4.480 -0.5591 -0.1009 -0.0314
   23MOL    C8010684   6.882   6.734   4.545  0.7005  0.6337 -0.3939
   23MOL    O8110685   6.841   6.631   4.605 -0.1066 -0.5160  0.5496
   23MOL    C8210686   6.803   6.866   4.542  0.1742  0.1915 -0.1571
   23MOL    C8310687   6.684   6.872   4.639 -0.6859  0.3579  0.2419
   23MOL    C8410688   6.721   6.956   4.756 -0.4214 -0.3660  0.0434
   23MOL    O8510689   6.717   6.906   4.872  0.0580 -0.1724 -0.7102
   23MOL    H8610690   7.222   6.202   4.369 -0.8611 -0.1446  2.9394
   23MOL    H8710691   7.171   6.293   4.236  1.1597  0.1393  0.6058
   23MOL    H8810692   7.269   6.443   4.441 -0.2075 -0.2909  1.7189
   23MOL    H8910693   7.151   6.372   4.540 -0.8561 -0.7239 -0.7510
   23MOL    H9010694   6.969   6.496   4.419 -0.1617  1.0833 -2.7766
   23MOL    H9110695   7.089   6.567   4.310  2.2903 -0.7380 -0.6394
   23MOL    H9210696   7.079   6.615   4.609  1.4141  1.5664  0.6537
   23MOL    H9310697   7.191   6.694   4.500 -0.7349  2.5023  3.6822
   23MOL    H9410698   6.756   6.885   4.446  0.2941 -1.8287 -0.6401
   23MOL    H9510699   6.874   6.946   4.563 -0.7293  0.9482  0.0242
   23MOL    H9610700   6.605   6.912   4.575 -0.8889 -1.4611 -0.6988
   23MOL    H9710701   6.654   6.772   4.669  0.7592  0.1535  1.0625
   23MOL    O9810702   6.756   7.079   4.721 -0.4262 -0.0804  0.7256
   23MOL    C9910703   6.810   7.165   4.819  0.0285  0.4465 -0.1015
   23MOL   C10010704   6.924   7.246   4.754  0.7618  0.1329 -0.0567
   23MOL   C10110705   7.045   7.157   4.730  0.1365 -0.4154 -0.3096
   23MOL   C10210706   7.177   7.238   4.723  0.5523 -0.1475  0.0134
   23MOL   O10310707   7.284   7.149   4.736 -0.4649 -0.2523 -0.3264
   23MOL   C10410708   7.407   7.190   4.763 -0.2112 -0.1082 -0.7918
   23MOL   O10510709   7.434   7.309   4.788 -0.1149  0.6304  0.5267
   23MOL   C10610710   7.506   7.077   4.753 -0.1550 -0.1482 -0.8012
   23MOL   C10710711   7.651   7.127   4.783  0.4567 -0.2468  0.8880
   23MOL   C10810712   7.731   7.024   4.861 -0.1097  0.5424  0.4598
   23MOL   O10910713   7.811   6.956   4.801 -0.2046  0.5631 -0.2660
   23MOL   H11010714   6.718   7.220   4.837  2.1063  3.7911  0.8553
   23MOL   H11110715   6.840   7.110   4.908 -1.9539 -2.6690 -1.2852
   23MOL   H11210716   6.952   7.326   4.822  2.4477 -0.6379  0.1946
   23MOL   H11310717   6.897   7.302   4.664  0.6153  2.0387  1.1511
   23MOL   H11410718   7.028   7.091   4.646 -1.1166 -1.2435  0.5809
   23MOL   H11510719   7.057   7.086   4.812 -0.4230  0.3652  0.4602
   23MOL   H11610720   7.176   7.291   4.628  0.1288  0.6064  0.4268
   23MOL   H11710721   7.187   7.315   4.799 -0.8564  0.7108 -0.6476
   23MOL   H11810722   7.507   7.031   4.654  0.7652  2.2770 -1.9486
   23MOL   H11910723   7.486   6.998   4.826  0.1823  0.9524  0.5052
   23MOL   H12010724   7.704   7.149   4.690 -0.9147 -1.3705 -0.1705
   23MOL   H12110725   7.650   7.213   4.851  1.2187  0.1159  0.4531
   23MOL   O12210726   7.714   7.016   4.993 -0.3845 -0.0439 -0.4280
   23MOL   C12310727   7.782   6.921   5.078  0.2730 -1.0359 -0.1211
   23MOL   C12410728   0.022   6.983   5.145 -0.1747 -0.2344  0.2399
   23MOL   C12510729   0.150   6.974   5.055  0.9021 -0.2098 -0.0929
   23MOL   C12610730   0.270   7.000   5.144 -0.0288  0.2011  0.2001
   23MOL   O12710731   0.382   7.060   5.072  0.4508  0.2410 -0.5501
   23MOL   C12810732   0.500   7.069   5.132 -0.3610 -0.0683 -0.1892
   23MOL   O12910733   0.520   7.039   5.249 -0.3288  0.2486 -0.6199
   23MOL   C13010734   0.611   7.119   5.048 -0.0052  0.2895  0.1387
   23MOL   C13110735   0.620   7.271   5.034  0.2499  0.9912 -0.7715
   23MOL   C13210736   0.766   7.312   5.059 -0.2565 -0.1250 -0.0271
   23MOL   O13310737   0.858   7.238   5.024 -0.0468  0.2449 -0.5132
   23MOL   H13410738   7.711   6.899   5.157 -0.6624  1.1090 -0.3296
   23MOL   H13510739   7.807   6.826   5.030 -1.6746 -0.4486 -2.3754
   23MOL   H13610740   0.045   6.925   5.235 -1.1700 -0.3617  0.4231
   23MOL   H13710741   7.859   7.084   5.167 -0.1553  0.2865 -2.0326
   23MOL   H13810742   0.142   7.040   4.969 -0.6151  1.4998  1.3223
   23MOL   H13910743   0.150   6.878   5.003  2.3302 -0.2291 -0.0819
   23MOL   H14010744   0.254   7.072   5.225  0.0326  0.8391 -0.3493
   23MOL   H14110745   0.319   6.909   5.179  1.5256  0.0586 -2.2725
   23MOL   H14210746   0.585   7.072   4.953 -0.5358  1.7456 -0.4537
   23MOL   H14310747   0.701   7.068   5.082 -1.0628 -0.7383  1.4723
   23MOL   H14410748   0.587   7.315   4.939 -1.1243  0.2356 -0.6674
   23MOL   H14510749   0.574   7.329   5.114 -0.0001 -1.6571  1.0506
   23MOL   O14610750   0.780   7.430   5.117 -0.6539  0.3565 -0.0049
   23MOL   C14710751   0.909   7.492   5.145  0.3469 -0.2080 -0.2721
   23MOL   C14810752   0.912   7.628   5.072 -0.1469  0.4231  0.4036
   23MOL   C14910753   1.029   7.724   5.103  0.0396 -0.3328  0.6692
   23MOL   C15010754   1.055   7.815   4.983  0.3887  0.4801 -0.2800
   23MOL   O15110755   1.159   0.026   5.022 -0.4310  0.0615  0.0540
   23MOL   C15210756   1.122   0.152   5.059  0.0204  0.3045  0.4692
   23MOL   O15310757   1.017   0.210   5.025 -0.3285  0.1986  0.3989
   23MOL   C15410758   1.224   0.238   5.134  0.1373  0.5904 -0.0472
   23MOL   C15510759   1.176   0.295   5.272  0.0113 -0.1476  0.5411
   23MOL   C15610760   1.197   0.196   5.390 -0.1331  0.9429 -0.4469
   23MOL   O15710761   1.138   0.088   5.388 -0.2595  0.1808  0.9078
   23MOL   H15810762   0.912   7.517   5.251  0.5134 -0.8124 -0.1274
   23MOL   H15910763   1.001   7.435   5.130 -1.0195 -1.9251 -2.4814
   23MOL   H16010764   0.823   7.690   5.082  0.3616  1.0276  1.2659
   23MOL   H16110765   0.919   7.599   4.967  3.4332  2.4108  0.0200
   23MOL   H16210766   1.113   7.655   5.117  1.1188  0.4651 -1.6797
   23MOL   H16310767   1.023   7.790   5.190  0.0836  3.9012 -2.3920
   23MOL   H16410768   1.088   7.745   4.906  0.9681  1.6788 -1.1383
   23MOL   H16510769   0.969   7.864   4.937 -1.2190 -1.4847  0.5312
   23MOL   H16610770   1.269   0.308   5.063  0.0534 -0.4824 -1.1878
   23MOL   H16710771   1.311   0.175   5.152 -0.5441 -0.2931  0.1928
   23MOL   H16810772   1.241   0.377   5.301 -0.9465  0.8348 -0.0605
   23MOL   H16910773   1.074   0.334   5.270  0.0947  0.0169 -1.5617
   23MOL   O17010774   1.282   0.245   5.489 -0.3542  0.5825  0.1518
   23MOL   C17110775   1.288   0.183   5.609 -0.8142  0.4787  0.2654
   23MOL   C17210776   1.410   0.229   5.683 -0.7661 -0.0569 -0.1714
   23MOL   C17310777   1.409   0.373   5.754  0.5774  0.0851 -0.2864
   23MOL   C17410778   1.399   0.490   5.655  0.2540 -1.0728  0.4407
   23MOL   O17510779   1.359   0.611   5.718 -0.2750 -0.1024  0.0203
   23MOL   C17610780   1.338   0.722   5.647 -0.1791  0.5125  0.2740
   23MOL   O17710781   1.374   0.741   5.531 -0.0389 -0.1418 -0.1994
   23MOL   C17810782   1.260   0.830   5.724 -0.0810 -0.1123 -0.3559
   23MOL   C17910783   1.340   0.957   5.718  0.3262  0.0652  0.0470
   23MOL   C18010784   1.461   0.969   5.808 -0.0358  0.2969 -0.6164
   23MOL   O18110785   1.480   0.894   5.907  0.0659 -0.1196  0.7926
   23MOL   H18210786   1.211   0.212   5.680  0.0017  2.3490  0.4097
   23MOL   H18310787   1.299   0.075   5.609  0.2936  0.5851 -0.4325
   23MOL   H18410788   1.488   0.214   5.608 -0.8529  3.0864 -0.9618
   23MOL   H18510789   1.429   0.160   5.765  3.4099  0.3860 -0.6580
   23MOL   H18610790   1.500   0.379   5.813  1.5179 -0.0487 -1.7056
   23MOL   H18710791   1.318   0.381   5.814  0.6641  0.9119 -0.2507
   23MOL   H18810792   1.490   0.506   5.597 -1.1864  0.2694 -1.5312
   23MOL   H18910793   1.327   0.475   5.575  2.1431 -0.6713 -1.3677
   23MOL   H19010794   1.238   0.809   5.829 -2.2762  0.8393 -0.6197
   23MOL   H19110795   1.164   0.838   5.674 -0.8740 -2.2689  0.7203
   23MOL   H19210796   1.373   0.976   5.616  0.6297 -1.8751 -0.2244
   23MOL   H19310797   1.269   1.034   5.747 -1.2775 -1.0675 -0.8255
   23MOL   O19410798   1.534   1.078   5.772  0.6118 -0.2924  0.1555
   23MOL   C19510799   1.667   1.098   5.818  0.6372 -0.4023 -0.2905
   23MOL   C19610800   1.684   1.236   5.883 -0.1954 -0.3000 -0.4280
   23MOL   C19710801   1.578   1.268   5.988  0.7563  0.2555  0.3644
   23MOL   C19810802   1.581   1.411   6.047  0.1790  0.4006 -0.0333
   23MOL   O19910803   1.490   1.408   6.160 -0.5632  0.0599  0.3645
   23MOL   C20010804   1.490   1.512   6.246 -0.0456 -0.0829 -0.4763
   23MOL   O20110805   1.563   1.614   6.234 -0.0020  0.9135  0.3640
   23MOL   C20210806   1.387   1.484   6.357  0.5936  0.1696 -0.0979
   23MOL   C20310807   1.394   1.346   6.418 -0.6212  0.2286 -0.1322
   23MOL   C20410808   1.511   1.328   6.511  0.0761  0.3111 -0.1952
   23MOL   O20510809   1.499   1.312   6.630 -1.0474 -0.2371  0.7914
   23MOL   H20610810   1.693   1.032   5.901 -0.0002  1.5918  1.5822
   23MOL   H20710811   1.745   1.098   5.743 -1.3644 -2.6410 -2.4406
   23MOL   H20810812   1.684   1.311   5.804 -2.6082  2.2220  1.8170
   23MOL   H20910813   1.778   1.244   5.938 -0.1231  0.3393 -0.6349
   23MOL   H21010814   1.598   1.201   6.072 -3.1540  0.0570  1.2727
   23MOL   H21110815   1.472   1.250   5.967  0.8852 -0.2395  0.1203
   23MOL   H21210816   1.677   1.427   6.096  0.1250 -0.5184  0.3790
   23MOL   H21310817   1.563   1.489   5.974  1.9877  1.8770  1.0654
   23MOL   H21410818   1.283   1.500   6.330 -0.1856 -1.5952  1.7427
   23MOL   H21510819   1.400   1.556   6.437  1.4488 -0.1343  0.0427
   23MOL   H21610820   1.305   1.332   6.480 -1.4579 -1.0055 -1.5764
   23MOL   H21710821   1.389   1.269   6.342 -0.8722  1.3783 -1.2979
   23MOL   O21810822   1.621   1.334   6.437  0.1794  0.6904 -0.2274
   23MOL   C21910823   1.747   1.285   6.490 -0.6864 -0.1355 -0.4309
   23MOL   C22010824   1.764   1.140   6.437  0.3294  0.5337 -0.2479
   23MOL   C22110825   1.818   1.125   6.291  0.1851  0.5734 -0.5335
   23MOL   C22210826   1.789   0.993   6.221  0.2681 -0.6491  0.4689
   23MOL   O22310827   1.849   0.881   6.281 -0.1483  0.5223  0.3822
   23MOL   C22410828   1.811   0.761   6.255 -0.1279  0.0447 -0.3359
   23MOL   O22510829   1.743   0.728   6.156 -0.0086 -0.5839  0.3504
   23MOL   C22610830   1.864   0.651   6.348 -0.3618 -0.5892 -0.2518
   23MOL   C22710831   2.010   0.614   6.304  0.4275  0.6850 -0.8560
   23MOL   C22810832   2.113   0.665   6.402  0.4320  0.0693 -0.2829
   23MOL   O22910833   2.151   0.602   6.504 -0.2632  0.0225 -0.1421
   23MOL   H23010834   1.830   1.343   6.449 -1.1373  1.2397  0.5718
   23MOL   H23110835   1.741   1.297   6.598 -1.9307  0.7043 -0.5878
   23MOL   H23210836   1.675   1.078   6.449 -0.7996  1.8062 -1.8732
   23MOL   H23310837   1.835   1.081   6.496  0.4935  0.0224 -0.9378
   23MOL   H23410838   1.923   1.152   6.276 -0.0135  1.1895 -0.8475
   23MOL   H23510839   1.766   1.205   6.238  0.2518  2.1161  1.6185
   23MOL   H23610840   1.681   0.984   6.231  0.0400  0.3707 -0.8845
   23MOL   H23710841   1.809   0.999   6.114  4.1969  2.2341  1.2364
   23MOL   H23810842   1.806   0.560   6.331  0.4852 -1.4265  1.2681
   23MOL   H23910843   1.846   0.679   6.452  0.5148 -0.8430 -0.0316
   23MOL   H24010844   2.021   0.506   6.302 -2.0575  0.3894 -0.4541
   23MOL   H24110845   2.024   0.647   6.201  2.3217 -0.5202 -1.0080
   23MOL   O24210846   2.170   0.774   6.360 -0.0325  0.4012 -0.3082
   23MOL   C24310847   2.247   0.858   6.450 -0.5890 -0.2043 -0.2636
   23MOL   C24410848   2.309   0.967   6.356  0.1446 -0.1001  0.2072
   23MOL   C24510849   2.211   1.081   6.344 -0.1089 -0.2855  0.7633
   23MOL   C24610850   2.257   1.193   6.256 -0.9114 -0.0694  0.6943
   23MOL   O24710851   2.152   1.294   6.241 -0.3158 -0.0002  0.3668
   23MOL   C24810852   2.150   1.386   6.143  0.0118  0.8368 -0.2411
   23MOL   O24910853   2.240   1.409   6.066  0.0697 -0.6256  0.1377
   23MOL   C25010854   2.021   1.472   6.146  0.0921 -1.0763  0.8884
   23MOL   C25110855   2.027   1.593   6.050 -0.4027  0.5814  0.1005
   23MOL   C25210856   1.938   1.571   5.927  0.1424 -0.1882 -0.0595
   23MOL   O25310857   1.968   1.481   5.849 -0.3997 -0.3559 -0.2755
   23MOL   H25410858   2.180   0.897   6.526 -0.8234 -2.3830  0.6720
   23MOL   H25510859   2.328   0.802   6.496  0.2661  0.6899 -0.6530
   23MOL   H25610860   2.343   0.930   6.259 -1.1611  1.7370 -0.9711
   23MOL   H25710861   2.395   1.004   6.412 -0.5715 -0.6119  1.6536
   23MOL   H25810862   2.197   1.117   6.445  3.2721 -2.3146  2.0349
   23MOL   H25910863   2.114   1.047   6.306 -1.4749  2.5479  1.5757
   23MOL   H26010864   2.350   1.237   6.295 -0.2534  0.2128 -1.1427
   23MOL   H26110865   2.281   1.156   6.157  1.5422  1.3928  0.6887
   23MOL   H26210866   2.013   1.510   6.248  2.7309 -0.7619  0.9966
   23MOL   H26310867   1.934   1.407   6.132  0.0446 -1.2228  1.8031
   23MOL   H26410868   1.992   1.682   6.102  0.2410  1.2217 -0.5510
   23MOL   H26510869   2.129   1.601   6.013 -0.5831 -0.4259 -0.6437
   23MOL   O26610870   1.838   1.660   5.911  0.4189 -0.0735  0.0544
   23MOL   C26710871   1.751   1.644   5.801 -0.0086 -0.3836  0.6178
   23MOL   C26810872   1.735   1.775   5.711  0.4184 -0.1030 -0.6430
   23MOL   C26910873   1.663   1.890   5.784  0.1637 -0.3639  0.0988
   23MOL   C27010874   1.509   1.896   5.763  0.1494 -0.5253 -0.5446
   23MOL   O27110875   1.449   1.775   5.798 -0.4953 -0.1968 -0.4759
   23MOL   C27210876   1.351   1.775   5.892 -0.6963  0.1883 -0.4621
   23MOL   O27310877   1.290   1.872   5.930  0.3637 -0.1542 -0.3152
   23MOL   C27410878   1.316   1.632   5.952  0.3629 -0.0699 -1.6372
   23MOL   C27510879   1.210   1.560   5.865  0.4490 -0.2586 -0.3617
   23MOL   C27610880   1.268   1.459   5.772 -0.0619 -0.3577 -0.2899
   23MOL   O27710881   1.228   1.346   5.778 -0.0789  0.0340  0.2029
   23MOL   H27810882   1.765   1.549   5.750 -0.5388 -1.1891  1.9499
   23MOL   H27910883   1.658   1.631   5.856  1.3490 -1.1731  2.7967
   23MOL   H28010884   1.677   1.759   5.619 -1.5766  2.9376  0.0350
   23MOL   H28110885   1.834   1.807   5.679 -0.3065  1.7477 -1.0561
   23MOL   H28210886   1.713   1.982   5.752 -0.8445 -0.1403 -0.8730
   23MOL   H28310887   1.685   1.881   5.890  1.5491 -1.7671 -0.2856
   23MOL   H28410888   1.486   1.974   5.836 -0.1248 -1.5901  0.5308
   23MOL   H28510889   1.496   1.919   5.657 -1.1765  0.7646 -0.1239
   23MOL   H28610890   1.276   1.654   6.051  1.8781 -0.7962 -0.8333
   23MOL   H28710891   1.398   1.562   5.972 -0.1404 -0.4805 -0.9799
   23MOL   H28810892   1.139   1.508   5.929 -3.1886  1.5301 -2.7172
   23MOL   H28910893   1.157   1.643   5.817  1.3948  1.6305  1.7628
   23MOL   O29010894   1.350   1.514   5.690  0.2747  0.1794 -0.4240
   23MOL   C29110895   1.440   1.436   5.618  0.1098  0.2725  0.6649
   23MOL   C29210896   1.369   1.356   5.500  0.6832  0.4026 -0.0043
   23MOL   C29310897   1.474   1.298   5.399  0.5040  0.5313 -0.5635
   23MOL   C29410898   1.416   1.244   5.268 -0.3167  0.3182 -0.1118
   23MOL   O29510899   1.358   1.118   5.289 -0.6437 -0.0896 -0.4919
   23MOL   C29610900   1.290   1.050   5.198  0.5558 -0.2326 -0.4308
   23MOL   O29710901   1.261   1.086   5.083  0.1013 -0.2037 -0.4263
   23MOL   C29810902   1.235   0.922   5.259 -0.3553  0.4809  0.6972
   23MOL   C29910903   1.126   0.925   5.372 -0.2720 -0.5909  0.4537
   23MOL   C30010904   1.059   0.796   5.409  0.2400 -0.2931 -0.0634
   23MOL   O30110905   1.089   0.695   5.346  0.2889 -0.2694 -0.2362
   23MOL   H30210906   1.522   1.498   5.583  1.6228 -1.4100  1.1588
   23MOL   H30310907   1.483   1.359   5.682 -1.6243 -1.2481  0.0517
   23MOL   H30410908   1.295   1.414   5.445 -0.1147  1.0041  1.6957
   23MOL   H30510909   1.314   1.266   5.530  0.8915  0.0741 -0.5826
   23MOL   H30610910   1.536   1.222   5.445 -1.0237  2.0236  4.3325
   23MOL   H30710911   1.527   1.383   5.358 -1.4518  1.5969 -0.9732
   23MOL   H30810912   1.340   1.314   5.232 -1.3346 -0.4341  0.5231
   23MOL   H30910913   1.492   1.245   5.190  0.0734 -1.5103  0.2335
   23MOL   H31010914   1.320   0.862   5.290 -2.5839 -2.2946  1.5939
   23MOL   H31110915   1.197   0.863   5.176  1.2514  2.0810 -1.2285
   23MOL   H31210916   1.172   0.962   5.464  0.8806  3.3298 -1.5719
   23MOL   H31310917   1.054   0.992   5.325  0.8070  0.0167 -0.3799
   23MOL   O31410918   0.964   0.800   5.504  0.9800 -0.1604  0.3293
   23MOL   C31510919   0.876   0.691   5.535 -0.2842  0.5740 -0.1743
   23MOL   C31610920   0.928   0.598   5.647  0.4334 -0.3354  0.0590
   23MOL   C31710921   0.936   0.659   5.784  0.1754  0.1737  0.3099
   23MOL   C31810922   0.993   0.551   5.881  0.1499  0.6275  0.2027
   23MOL   O31910923   0.904   0.451   5.913 -0.4175 -0.3044  0.1479
   23MOL   C32010924   0.925   0.366   6.017  0.7612 -0.0393  0.0818
   23MOL   O32110925   1.024   0.376   6.085 -0.3338  0.0138  0.3526
   23MOL   C32210926   0.813   0.273   6.046 -0.0708  1.0536 -0.5318
   23MOL   C32310927   0.810   0.205   6.192 -0.1776 -0.3123  0.1739
   23MOL   C32410928   0.805   0.052   6.175 -0.6941 -0.1404 -0.1987
   23MOL   O32510929   0.698   7.874   6.144 -0.6336  0.2516 -0.0306
   23MOL   H32610930   0.775   0.726   5.556 -0.9678 -0.2155 -2.0744
   23MOL   H32710931   0.878   0.634   5.442 -0.5277  0.2569  0.0129
   23MOL   H32810932   1.021   0.552   5.613  0.6672  1.5053 -1.8935
   23MOL   H32910933   0.866   0.508   5.650 -1.5034  0.9275 -1.3713
   23MOL   H33010934   0.841   0.697   5.822  0.5192  2.2337 -0.7954
   23MOL   H33110935   1.000   0.747   5.781  0.9589 -0.4009  0.1761
   23MOL   H33210936   1.071   0.498   5.826 -2.1732 -3.9677  1.0408
   23MOL   H33310937   1.028   0.605   5.969 -0.3988 -0.1381  0.9017
   23MOL   H33410938   0.809   0.199   5.966 -0.4526 -0.0338  0.4649
   23MOL   H33510939   0.721   0.327   6.028 -1.2729 -0.0897  1.9066
   23MOL   H33610940   0.891   0.233   6.259  2.7953 -1.3083 -2.8436
   23MOL   H33710941   0.721   0.231   6.249 -1.2796  1.8090 -2.4016
   23MOL   O33810942   0.920   7.865   6.193 -0.4011 -0.1315 -0.0228
   23MOL   C33910943   0.939   7.725   6.164  0.1331  0.9739 -0.1442
   23MOL   C34010944   0.975   7.656   6.301 -0.1169 -0.4132 -0.3056
   23MOL   C34110945   0.978   7.503   6.301  0.2225 -0.3643  0.2101
   23MOL   C34210946   1.005   7.447   6.442  0.2991 -0.3939 -0.4543
   23MOL   O34310947   0.938   7.506   6.547 -0.3923  0.4252  0.2287
   23MOL   C34410948   0.816   7.458   6.582 -0.6841 -0.3130 -0.4869
   23MOL   O34510949   0.765   7.359   6.543  0.1151 -0.2340  0.2646
   23MOL   C34610950   0.742   7.560   6.672 -0.2708 -0.1345 -0.5892
   23MOL   C34710951   0.722   7.704   6.612  0.3075  0.5588  0.0547
   23MOL   C34810952   0.833   7.809   6.635  0.3720  0.1179  0.7830
   23MOL   O34910953   0.882   7.864   6.536  0.3604  0.1235  0.0226
   23MOL   H35010954   0.846   7.681   6.126 -0.9400  0.4391  2.9201
   23MOL   H35110955   1.013   7.714   6.085 -0.9891  0.6775 -1.1789
   23MOL   H35210956   0.904   7.692   6.376  1.2987 -1.1397  1.4237
   23MOL   H35310957   1.068   7.702   6.336 -0.3961  0.7157 -1.0317
   23MOL   H35410958   1.047   7.468   6.224  0.0036  1.2037 -0.7216
   23MOL   H35510959   0.880   7.459   6.281  0.0938 -0.5034  1.1574
   23MOL   H35610960   0.981   7.342   6.421 -1.3592 -0.2388  0.5859
   23MOL   H35710961   1.113   7.444   6.456  0.2266 -2.6898 -0.2348
   23MOL   H35810962   0.790   7.561   6.769  1.1548 -0.0746 -1.2780
   23MOL   H35910963   0.642   7.519   6.688  0.8635 -2.7198  0.1020
   23MOL   H36010964   0.709   7.693   6.504  2.4504 -1.4604 -0.0220
   23MOL   H36110965   0.635   7.733   6.672 -0.7457 -0.6740 -0.8471
   23MOL   O36210966   0.870   7.821   6.763  0.1307  0.1977 -0.2042
   23MOL   C36310967   0.974   0.028   6.803  0.0510 -0.9763  0.1312
   23MOL   C36410968   0.944   0.102   6.935  0.4749  0.2037 -0.4400
   23MOL   C36510969   0.830   0.200   6.926  0.8616 -0.3050  0.3538
   23MOL   C36610970   0.804   0.289   7.047  0.3377  0.2716  0.3053
   23MOL   O36710971   0.918   0.315   7.121  0.0258 -0.1352  0.2431
   23MOL   C36810972   0.911   0.396   7.224 -0.8164  0.2862  0.2434
   23MOL   O36910973   0.813   0.437   7.276  0.4388  0.2002  0.3730
   23MOL   C37010974   1.044   0.424   7.289  0.7491 -0.4284  0.5842
   23MOL   C37110975   1.038   0.493   7.434  0.7374 -0.3708  0.0376
   23MOL   C37210976   1.150   0.448   7.515  0.3860 -0.0582 -0.1941
   23MOL   O37310977   1.142   0.381   7.618  0.1311  0.1964 -0.1016
   23MOL   H37410978   1.063   7.839   6.806  0.7336  0.0290  1.8693
   23MOL   H37510979   0.997   0.111   6.736 -2.1675  0.5870  1.2384
   23MOL   H37610980   1.026   0.163   6.973  0.5422 -0.4972  0.5758
   23MOL   H37710981   0.910   0.039   7.018  0.5111 -0.3069 -0.8120
   23MOL   H37810982   0.740   0.145   6.898  0.2420  1.2311 -0.7547
   23MOL   H37910983   0.842   0.256   6.833 -0.3372 -1.4064 -0.4823
   23MOL   H38010984   0.747   0.374   7.011 -0.2813 -0.7522 -1.1698
   23MOL   H38110985   0.742   0.222   7.107  0.0110  0.4637  0.1817
   23MOL   H38210986   1.095   0.491   7.219 -0.7165 -0.8532 -0.9150
   23MOL   H38310987   1.095   0.331   7.313 -1.7109 -2.0085 -0.2735
   23MOL   H38410988   1.029   0.602   7.433  0.3714 -0.4022 -0.0295
   23MOL   H38510989   0.945   0.462   7.481  0.3888  1.2502  0.4525
   23MOL   O38610990   1.261   0.497   7.459 -0.2009  0.2749  0.2404
   23MOL   C38710991   1.394   0.465   7.511 -0.2830  0.5987 -0.1842
   23MOL   C38810992   1.468   0.367   7.418  0.4909 -0.2451 -0.5337
   23MOL   C38910993   1.438   0.221   7.456  0.5810  0.3472 -0.5957
   23MOL   C39010994   1.472   0.115   7.347 -0.0756  0.4256  0.9707
   23MOL   O39110995   1.607   0.118   7.297  0.0769 -0.2432 -0.0288
   23MOL   C39210996   1.686   0.021   7.335  0.9307 -0.2509  0.5917
   23MOL   O39310997   1.648   7.809   7.408 -0.5508  0.1644  0.5202
   23MOL   C39410998   1.824   0.011   7.269  0.5128 -0.2376 -0.2279
   23MOL   C39510999   1.813   7.870   7.113 -0.0714  0.3049 -0.0422
   23MOL   C39611000   1.908   0.097   7.045  0.5447  0.4004  0.2238
   23MOL   O39711001   1.869   0.153   6.937 -0.0409 -0.5906  0.3845
   23MOL   H39811002   1.444   0.562   7.522  1.8996 -0.5790  0.5446
   23MOL   H39911003   1.391   0.427   7.613 -0.3417  2.6478  0.5999
   23MOL   H40011004   1.575   0.385   7.417  0.4207  0.2116 -0.2448
   23MOL   H40111005   1.431   0.387   7.317  1.1777 -0.0694 -0.7493
   23MOL   H40211006   1.331   0.204   7.465  0.8409 -0.7988  0.5519
   23MOL   H40311007   1.484   0.200   7.553 -0.1726  0.4463 -0.2091
   23MOL   H40411008   1.434   0.015   7.368  2.5342 -0.8100 -0.0168
   23MOL   H40511009   1.408   0.143   7.263  1.2204  0.7092  0.0586
   23MOL   H40611010   1.886   7.808   7.313  1.2225 -0.4391 -1.5646
   23MOL   H40711011   1.878   0.104   7.291  2.4151 -2.1152  3.4592
   23MOL   H40811012   1.834   7.774   7.066  2.6495  0.9186 -0.2061
   23MOL   H40911013   1.709   0.014   7.087 -0.0506  0.7845  0.2199
   23MOL   O41011014   2.032   0.118   7.101 -0.9048 -0.5999 -0.1241
   23MOL   C41111015   2.132   0.189   7.029 -0.5281  0.0898 -0.0394
   23MOL   C41211016   2.215   0.106   6.934 -0.7317  0.1034 -0.0689
   23MOL   C41311017   2.310   0.190   6.856 -0.6888  0.4890  0.3894
   23MOL   C41411018   2.409   0.101   6.774 -0.0088  1.0303 -0.2058
   23MOL   O41511019   2.495   0.034   6.866 -0.3070  0.9039 -0.0912
   23MOL   C41611020   2.605   0.087   6.897 -0.1400 -0.4628  0.0872
   23MOL   O41711021   2.649   0.197   6.865  0.0657 -0.1422 -0.2803
   23MOL   C41811022   2.678   0.006   7.000 -0.5373 -0.0538 -0.3628
   23MOL   C41911023   2.718   0.102   7.118 -0.1387  0.7069  0.3276
   23MOL   C42011024   2.849   0.064   7.183  0.7773 -0.7788 -0.0680
   23MOL   O42111025   2.932   0.154   7.209 -0.0627  1.0742  0.3753
   23MOL   H42211026   2.083   0.271   6.976  0.4254  1.3650  1.0151
   23MOL   H42311027   2.200   0.227   7.105  1.4360 -1.9974 -0.6967
   23MOL   H42411028   2.149   0.059   6.862 -0.5974  1.1597 -0.9015
   23MOL   H42511029   2.264   0.025   6.988  2.1733  1.5941 -0.3162
   23MOL   H42611030   2.369   0.249   6.926  0.2298 -0.8475  0.7601
   23MOL   H42711031   2.240   0.243   6.791  0.4206  0.6448 -0.6999
   23MOL   H42811032   2.353   0.022   6.723  1.8612 -0.4621 -0.0238
   23MOL   H42911033   2.462   0.160   6.700 -2.7591  0.9658 -2.3034
   23MOL   H43011034   2.773   7.859   6.951 -1.2148  0.5754 -1.9795
   23MOL   H43111035   2.632   7.785   7.023  0.1341 -0.2749  0.0847
   23MOL   H43211036   2.718   0.206   7.085 -0.9887  0.0324 -1.8694
   23MOL   H43311037   2.638   0.095   7.192  1.1043 -1.2493  1.5140
   23MOL   O43411038   2.858   7.815   7.214 -0.1355 -0.0851  0.0445
   23MOL   C43511039   2.967   7.764   7.287 -0.4513  0.6591  0.4812
   23MOL   C43611040   3.046   7.661   7.197  0.1933 -1.2705 -0.4553
   23MOL   C43711041   2.970   7.536   7.163 -0.3781  0.0082 -0.4195
   23MOL   C43811042   3.003   7.488   7.015  0.1674  1.0246  0.1081
   23MOL   O43911043   2.944   7.562   6.911  0.2452  0.0857 -0.5908
   23MOL   C44011044   2.995   7.550   6.782 -0.2897  0.6508 -1.2560
   23MOL   O44111045   3.075   7.458   6.751  0.6040 -0.0132  0.0083
   23MOL   C44211046   2.932   7.649   6.682 -0.3635  0.5712 -0.3131
   23MOL   C44311047   2.992   7.635   6.539 -0.0451  0.5164  0.1933
   23MOL   C44411048   2.976   7.765   6.467 -0.1723 -0.4948  0.3899
   23MOL   O44511049   3.073   7.826   6.413 -0.2982  0.2267 -0.0737
   23MOL   H44611050   3.036   7.839   7.325  1.0963 -0.8100  0.6534
   23MOL   H44711051   2.937   7.718   7.381  0.8904 -0.1876  0.5110
   23MOL   H44811052   3.141   7.627   7.238 -0.5003 -1.3593  1.1243
   23MOL   H44911053   3.060   7.715   7.104 -3.5481  0.3128 -0.1691
   23MOL   H45011054   2.862   7.552   7.170 -0.3566  0.8296 -1.8108
   23MOL   H45111055   3.004   7.461   7.234  0.3843 -0.1519 -0.9573
   23MOL   H45211056   3.110   7.471   7.002 -0.3714 -2.1323 -0.7454
   23MOL   H45311057   2.953   7.396   6.985 -0.1733  2.2019 -3.0714
   23MOL   H45411058   2.949   7.752   6.711  1.9810 -0.0172  0.4773
   23MOL   H45511059   2.826   7.624   6.672 -0.1724 -0.9475  1.1646
   23MOL   H45611060   3.096   7.602   6.543  0.2087  1.2370 -0.3218
   23MOL   H45711061   2.935   7.557   6.490  0.5126  0.9541 -1.1843
   23MOL   O45811062   2.850   7.811   6.468  0.1333 -0.1848  0.4962
   23MOL   C45911063   2.812   0.054   6.404 -0.1455  0.0607 -0.3448
   23MOL   C46011064   2.679   0.104   6.455  0.3188 -0.3771  0.4606
   23MOL   C46111065   2.554   0.029   6.412 -0.5598  0.3733 -0.4402
   23MOL   C46211066   2.553   7.758   6.449  0.2356 -0.0941  0.2374
   23MOL   O46311067   2.555   7.736   6.589  0.0087  0.7307  0.2190
   23MOL   C46411068   2.531   7.613   6.634  0.2725 -0.1039 -0.1040
   23MOL   O46511069   2.531   7.509   6.566  0.0016 -0.0888  0.2633
   23MOL   C46611070   2.515   7.610   6.786  1.0152 -0.2667 -0.6509
   23MOL   C46711071   2.470   7.471   6.843 -0.1092 -0.2123  0.6029
   23MOL   C46811072   2.536   7.416   6.973 -0.7261  0.1240  0.2672
   23MOL   O46911073   2.637   7.462   7.027 -0.0942  0.1612 -0.5705
   23MOL   H47011074   2.893   0.124   6.422 -1.0711  0.3749  2.8537
   23MOL   H47111075   2.804   0.039   6.296  0.0854  0.6009 -0.4404
   23MOL   H47211076   2.671   0.212   6.440  1.7361 -0.0333  2.0592
   23MOL   H47311077   2.682   0.101   6.564 -3.0150  1.9585  0.7145
   23MOL   H47411078   2.546   0.048   6.305  1.7939 -0.3189 -0.7690
   23MOL   H47511079   2.471   0.077   6.463 -0.0146  0.4348  0.3986
   23MOL   H47611080   2.465   7.706   6.411 -0.2753  1.5502 -0.8709
   23MOL   H47711081   2.644   7.716   6.407  1.6148  1.3594  1.7020
   23MOL   H47811082   2.441   7.681   6.822 -0.1449 -1.2982 -0.9810
   23MOL   H47911083   2.612   7.640   6.827 -0.0323  1.7477  0.4090
   23MOL   H48011084   2.362   7.471   6.854 -0.3131  1.4637 -1.1621
   23MOL   H48111085   2.476   7.389   6.771  1.4562  0.4725 -0.0721
   23MOL   H48211086   2.484   7.332   7.019  0.5230 -0.1395  1.2255
   24MOL     O111087   1.460   2.073   1.750 -0.1206  0.7067  0.5468
   24MOL     C211088   1.401   1.960   1.682  0.5408 -0.4380  0.7607
   24MOL     C311089   1.290   2.017   1.591 -0.2109  0.1957  0.0005
   24MOL     C411090   1.338   2.137   1.509 -0.0212 -0.1633 -0.4377
   24MOL     C511091   1.221   2.199   1.426 -0.1761  0.5784 -0.5658
   24MOL     O611092   1.124   2.254   1.516 -0.0673  0.2116 -0.0787
   24MOL     C711093   1.029   2.329   1.470 -0.9342  0.2104 -0.3031
   24MOL     O811094   1.006   2.345   1.352  0.0205  0.2376 -0.1391
   24MOL     C911095   0.934   2.370   1.577  0.4619 -0.1490  0.2609
   24MOL    C1011096   0.804   2.419   1.524  0.0313 -0.1405 -0.2402
   24MOL    C1111097   0.704   2.398   1.636 -0.0872 -0.1736  0.4309
   24MOL    O1211098   0.695   2.478   1.730 -0.0908 -0.2439 -0.3663
   24MOL    H1311099   1.458   1.900   1.610  0.0225  0.8405 -0.7283
   24MOL    H1411100   1.353   1.891   1.752 -1.9699  0.3773 -0.1068
   24MOL    H1511101   1.206   2.035   1.658  0.5734  0.3415  0.9612
   24MOL    H1611102   1.258   1.942   1.519  0.7296 -0.5076  0.3007
   24MOL    H1711103   1.409   2.108   1.432 -0.6009 -2.7256 -0.0472
   24MOL    H1811104   1.392   2.214   1.564  1.0065 -1.7225  0.7931
   24MOL    H1911105   1.265   2.279   1.366 -0.3509  0.7607 -0.4538
   24MOL    H2011106   1.180   2.125   1.357  1.0141 -0.3427 -0.2800
   24MOL    H2111107   0.965   2.462   1.627  2.7391  0.2713 -1.8142
   24MOL    H2211108   0.936   2.292   1.653  1.2106 -1.0601 -0.6911
   24MOL    H2311109   0.818   2.526   1.510  1.4966  0.0629  2.3742
   24MOL    H2411110   0.776   2.380   1.426 -0.0437  0.3821 -0.4286
   24MOL    H2511111   1.394   2.125   1.794  0.2673  1.4546  0.2586
   24MOL    O2611112   0.630   2.287   1.611  0.0049  0.4691  0.0962
   24MOL    C2711113   0.522   2.249   1.697 -0.6812  0.2807  0.0966
   24MOL    C2811114   0.401   2.253   1.596 -0.4008 -0.6160 -0.0624
   24MOL    C2911115   0.316   2.382   1.606 -0.0968  0.1829  0.0028
   24MOL    C3011116   0.181   2.387   1.545  0.9472 -0.5040 -0.4304
   24MOL    O3111117   0.078   2.290   1.581 -0.9104  0.1438 -0.6157
   24MOL    C3211118   0.059   2.176   1.516 -0.1217  0.0037 -0.4873
   24MOL    O3311119   0.125   2.142   1.413 -0.3765 -0.7859 -0.6783
   24MOL    C3411120   7.809   2.104   1.572 -0.7463  0.3176  0.9019
   24MOL    C3511121   7.797   1.960   1.527 -0.1036 -0.0163  0.8415
   24MOL    C3611122   7.846   1.854   1.634 -0.1364 -0.1416 -0.0015
   24MOL    O3711123   7.801   1.741   1.649  0.0711  0.1457 -0.3549
   24MOL    H3811124   0.537   2.156   1.752  0.7923  1.2399  1.3670
   24MOL    H3911125   0.511   2.320   1.779 -0.7721 -1.8510  1.9753
   24MOL    H4011126   0.343   2.166   1.624  1.5062 -2.0262 -0.3557
   24MOL    H4111127   0.432   2.222   1.497 -0.6912 -0.7631 -0.1045
   24MOL    H4211128   0.370   2.470   1.570 -0.5902  0.2811 -0.5052
   24MOL    H4311129   0.312   2.392   1.715 -0.8146  0.4014 -0.0436
   24MOL    H4411130   0.133   2.479   1.580 -1.6687 -2.5871  1.6979
   24MOL    H4511131   0.201   2.388   1.438 -1.1179  3.5371 -0.9061
   24MOL    H4611132   7.716   2.153   1.542 -0.0331  1.1833  0.0746
   24MOL    H4711133   7.820   2.122   1.679  1.1811 -0.4490  0.8375
   24MOL    H4811134   7.695   1.929   1.505  1.1041 -2.7222 -1.3217
   24MOL    H4911135   7.842   1.946   1.429 -2.4570  0.3046 -0.3152
   24MOL    O5011136   0.085   1.899   1.700 -0.1835  0.2972 -0.5865
   24MOL    C5111137   0.172   1.820   1.773  0.0930 -0.4320 -0.4222
   24MOL    C5211138   0.309   1.892   1.800  0.5165 -0.9232  0.5435
   24MOL    C5311139   0.406   1.809   1.885 -0.5897 -0.0316 -0.1637
   24MOL    C5411140   0.546   1.867   1.877  0.1610  0.5186 -0.7695
   24MOL    O5511141   0.622   1.819   1.984  0.7771  1.1148 -0.0936
   24MOL    C5611142   0.623   1.881   2.111 -0.3886 -0.4375  0.0670
   24MOL    O5711143   0.537   1.955   2.155 -0.9244  1.1412 -0.1140
   24MOL    C5811144   0.739   1.840   2.201 -0.2429  0.3016 -0.8160
   24MOL    C5911145   0.687   1.765   2.323  0.0293  0.4316 -0.1492
   24MOL    C6011146   0.681   1.857   2.450 -0.3509  0.1698  0.2318
   24MOL    O6111147   0.755   1.954   2.455  0.2833 -0.6637 -0.1430
   24MOL    H6211148   0.139   1.787   1.871 -0.1328  3.5562  0.8877
   24MOL    H6311149   0.184   1.723   1.723 -0.4880 -1.2953  1.0678
   24MOL    H6411150   0.288   1.992   1.836 -1.9716 -0.5176 -1.9538
   24MOL    H6511151   0.356   1.913   1.704 -1.4028 -1.3468 -0.5014
   24MOL    H6611152   0.407   1.703   1.857 -2.3583 -0.5857  1.6929
   24MOL    H6711153   0.376   1.802   1.989  0.0058  1.2001  0.0901
   24MOL    H6811154   0.583   1.824   1.784 -1.4204  1.5905 -1.9239
   24MOL    H6911155   0.544   1.975   1.862 -0.6980  0.6722  0.3543
   24MOL    H7011156   0.799   1.931   2.208  0.6899 -0.4485  1.3755
   24MOL    H7111157   0.805   1.787   2.132  1.1692 -0.2852  0.9644
   24MOL    H7211158   0.584   1.734   2.304 -0.0613 -0.0590  1.0921
   24MOL    H7311159   0.744   1.679   2.357  0.7770  1.3673  1.0429
   24MOL    O7411160   0.593   1.819   2.546 -1.0463  0.5814 -0.0519
   24MOL    C7511161   0.550   1.908   2.643 -0.2231 -0.5704 -1.1796
   24MOL    C7611162   0.470   1.842   2.759  0.0210 -0.2190 -0.5356
   24MOL    C7711163   0.408   1.935   2.862  0.4869 -0.4307 -0.4902
   24MOL    C7811164   0.516   1.998   2.948  0.4268 -0.6081 -0.2716
   24MOL    O7911165   0.472   2.073   3.065 -0.7960  0.1502 -0.1267
   24MOL    C8011166   0.562   2.147   3.135  0.7149  0.7178  0.2449
   24MOL    O8111167   0.681   2.164   3.107  0.4615 -0.1198  0.1000
   24MOL    C8211168   0.502   2.217   3.257 -0.1900  0.1524  0.0707
   24MOL    C8311169   0.619   2.228   3.358 -0.4023  0.3381  0.1483
   24MOL    C8411170   0.574   2.252   3.497  0.1220 -0.1702 -0.3889
   24MOL    O8511171   0.464   2.309   3.526  0.3465  0.1694  0.8662
   24MOL    H8611172   0.631   1.956   2.698  0.1905 -3.0671  0.4526
   24MOL    H8711173   0.493   1.985   2.590  1.2894  0.8353 -0.8070
   24MOL    H8811174   0.533   1.765   2.803 -0.4417  0.1817  0.8285
   24MOL    H8911175   0.387   1.790   2.712  0.5195 -0.9573 -0.5999
   24MOL    H9011176   0.329   1.881   2.914  0.2026 -1.6031 -2.1045
   24MOL    H9111177   0.355   2.019   2.818 -0.8421 -1.4580 -0.8923
   24MOL    H9211178   0.571   1.916   2.995 -1.1374 -0.2931  2.2252
   24MOL    H9311179   0.590   2.063   2.901 -0.5994  0.3534 -0.5962
   24MOL    H9411180   0.421   2.157   3.298 -0.2928 -2.2718 -3.4152
   24MOL    H9511181   0.467   2.314   3.223  0.2611  0.5904  0.8507
   24MOL    H9611182   0.669   2.133   3.379  0.5939  0.8813  0.2615
   24MOL    H9711183   0.692   2.305   3.336  0.0853  0.3646  1.8422
   24MOL    O9811184   0.663   2.215   3.594  0.2508 -0.4129 -0.6001
   24MOL    C9911185   0.625   2.221   3.725 -0.7622 -0.8198  0.6295
   24MOL   C10011186   0.743   2.165   3.804  0.2727 -0.6835  0.1439
   24MOL   C10111187   0.712   2.154   3.951 -0.2453 -0.4038  0.3628
   24MOL   C10211188   0.829   2.096   4.027 -0.2060 -0.2430 -0.6980
   24MOL   O10311189   0.888   1.974   3.974 -0.2357  0.1496 -0.3319
   24MOL   C10411190   0.839   1.860   3.998  0.4184  0.3968 -0.7372
   24MOL   O10511191   0.740   1.838   4.068 -0.5682 -0.5536  0.3435
   24MOL   C10611192   0.922   1.743   3.942  0.1873 -0.6988  0.2562
   24MOL   C10711193   0.981   1.762   3.801 -0.6367  0.0952 -0.0160
   24MOL   C10811194   1.114   1.687   3.802  0.0560  0.1461  0.0096
   24MOL   O10911195   1.127   1.575   3.740 -0.1087 -0.2312  0.2071
   24MOL   H11011196   0.602   2.315   3.775  0.6398 -0.6166  0.9208
   24MOL   H11111197   0.542   2.151   3.736 -0.0644 -1.8395 -0.5165
   24MOL   H11211198   0.833   2.217   3.769 -0.3066 -0.2478 -0.7343
   24MOL   H11311199   0.758   2.061   3.776 -0.5812 -1.2621  1.8087
   24MOL   H11411200   0.619   2.098   3.964 -0.5912  0.3616  1.2770
   24MOL   H11511201   0.676   2.245   4.000  1.9581  0.4699  0.4057
   24MOL   H11611202   0.907   2.170   4.012 -0.6112  0.3340  0.0664
   24MOL   H11711203   0.800   2.082   4.131  1.7375  0.4426 -0.0544
   24MOL   H11811204   0.847   1.665   3.945 -0.3577 -0.2961 -2.1348
   24MOL   H11911205   1.002   1.725   4.014  0.9924  1.3721 -0.0504
   24MOL   H12011206   0.915   1.717   3.728  0.7550  1.3367 -2.0814
   24MOL   H12111207   0.997   1.868   3.780  0.9756  0.0342  0.7751
   24MOL   O12211208   1.213   1.757   3.868 -0.8133  0.0027 -0.4235
   24MOL   C12311209   1.345   1.713   3.870 -0.0093  0.4909 -0.3600
   24MOL   C12411210   1.376   1.653   4.012 -0.0996 -0.4679  0.5827
   24MOL   C12511211   1.283   1.544   4.068  0.0100 -0.5902  0.3891
   24MOL   C12611212   1.303   1.401   4.010  0.3839  0.3175  0.1105
   24MOL   O12711213   1.430   1.350   4.056 -0.2090 -0.9029  0.2407
   24MOL   C12811214   1.522   1.312   3.967  0.0528  0.1239 -0.4434
   24MOL   O12911215   1.523   1.344   3.846  0.1299  0.5162 -0.7631
   24MOL   C13011216   1.639   1.239   4.037  0.0779 -0.1734 -0.2306
   24MOL   C13111217   1.744   1.167   3.953  0.3686  0.0600  0.3935
   24MOL   C13211218   1.700   1.025   3.921  0.2853  0.3628 -0.5178
   24MOL   O13311219   1.723   0.932   3.995  0.2833  0.7893  0.0806
   24MOL   H13411220   1.364   1.637   3.794  2.2303 -0.2512  0.9086
   24MOL   H13511221   1.412   1.797   3.857  0.7631  0.2189  1.6529
   24MOL   H13611222   1.392   1.733   4.085 -0.7117  0.1282  0.0789
   24MOL   H13711223   1.477   1.612   4.017 -0.1291 -0.5274  0.7008
   24MOL   H13811224   1.178   1.572   4.068  0.4170  0.9960 -0.4271
   24MOL   H13911225   1.312   1.544   4.174 -0.6146  1.5662  0.5752
   24MOL   H14011226   1.231   1.342   4.066 -0.1761  1.3194  0.4523
   24MOL   H14111227   1.273   1.386   3.907  0.2785 -1.6391  0.4076
   24MOL   H14211228   1.605   1.174   4.117  1.9761  1.3464  1.8843
   24MOL   H14311229   1.680   1.325   4.091 -0.2074  0.1405 -0.5099
   24MOL   H14411230   1.775   1.209   3.857  1.2313 -1.9488 -0.2325
   24MOL   H14511231   1.824   1.146   4.024  0.0215 -4.0789 -0.3440
   24MOL   O14611232   1.637   1.018   3.804  0.3719  0.4258  0.2251
   24MOL   C14711233   1.616   0.891   3.748  0.0831  0.2971  0.1572
   24MOL   C14811234   1.713   0.872   3.636 -0.0665  0.0292  0.0079
   24MOL   C14911235   1.675   0.965   3.510  0.0493  0.1543  0.3054
   24MOL   C15011236   1.744   0.920   3.381  0.0486  0.6097 -0.0493
   24MOL   O15111237   1.882   0.898   3.407  0.1565 -0.0292 -0.1902
   24MOL   C15211238   1.962   0.865   3.308  0.1863  1.0220  0.1793
   24MOL   O15311239   1.921   0.821   3.196 -0.5319  0.4765 -1.1245
   24MOL   C15411240   2.110   0.867   3.339 -0.2444 -0.3717 -0.2207
   24MOL   C15511241   2.146   0.743   3.422 -0.2688  0.5030  0.3322
   24MOL   C15611242   2.230   0.654   3.332  0.0111 -0.1750  0.0557
   24MOL   O15711243   2.346   0.639   3.352  0.2736  0.5544 -0.2118
   24MOL   H15811244   1.627   0.817   3.827 -1.7194  1.0173  1.1263
   24MOL   H15911245   1.517   0.871   3.707 -0.1832 -1.7436  1.7040
   24MOL   H16011246   1.722   0.766   3.613 -1.0241  0.2183 -1.3113
   24MOL   H16111247   1.816   0.885   3.670  0.3341  0.3254 -1.2627
   24MOL   H16211248   1.708   1.065   3.537  0.5713 -0.4589  1.9630
   24MOL   H16311249   1.568   0.977   3.490  0.0301  0.6239  0.6888
   24MOL   H16411250   1.709   0.823   3.346  1.8369 -0.4699  1.0374
   24MOL   H16511251   1.739   0.996   3.304  0.9991 -1.4623 -2.2073
   24MOL   H16611252   2.140   0.960   3.388 -1.5776 -0.1131  0.1269
   24MOL   H16711253   2.156   0.865   3.240 -0.1763 -0.3183 -0.1903
   24MOL   H16811254   2.207   0.777   3.505 -0.8540 -0.3738  1.1268
   24MOL   H16911255   2.051   0.698   3.451 -0.6007 -0.0448 -1.5029
   24MOL   O17011256   2.163   0.608   3.230 -0.2968  0.0053 -0.0305
   24MOL   C17111257   2.226   0.531   3.127 -0.8370  0.4368  0.5675
   24MOL   C17211258   2.124   0.485   3.028 -0.1082  0.0751  0.0668
   24MOL   C17311259   2.049   0.360   3.069 -0.2285 -0.4704  0.7368
   24MOL   C17411260   1.927   0.322   2.976  0.2119 -0.2504  0.2529
   24MOL   O17511261   1.861   0.205   3.020 -0.3121  0.5074 -0.2783
   24MOL   C17611262   1.879   0.082   2.960  0.5023  0.1603 -0.4428
   24MOL   O17711263   1.965   0.062   2.872  0.4379  0.1895 -0.3028
   24MOL   C17811264   1.769   7.857   2.991  0.3457  0.2197 -0.2399
   24MOL   C17911265   1.696   7.800   2.871 -0.5420 -0.8160  0.0015
   24MOL   C18011266   1.579   0.020   2.826  0.1201 -0.1001 -0.4040
   24MOL   O18111267   1.461   0.000   2.851  0.2039 -0.3595  0.0308
   24MOL   H18211268   2.305   0.586   3.077 -2.3105  0.6677 -1.5931
   24MOL   H18311269   2.271   0.443   3.174  1.6044  1.6596  0.5893
   24MOL   H18411270   2.172   0.473   2.930  1.4367  0.8453  0.7231
   24MOL   H18511271   2.052   0.564   3.010 -0.5285  0.0306  1.5738
   24MOL   H18611272   2.016   0.367   3.173  1.4045  1.8759  1.1305
   24MOL   H18711273   2.121   0.279   3.074  0.8992  0.5880  1.9911
   24MOL   H18811274   1.852   0.400   2.980  1.3358  0.9344 -1.4071
   24MOL   H18911275   1.950   0.316   2.870 -0.7692  1.5402 -0.0756
   24MOL   H19011276   1.705   0.038   3.060  0.8350  0.7522 -0.2120
   24MOL   H19111277   1.818   7.778   3.047 -0.2290 -0.1951 -0.3193
   24MOL   H19211278   1.768   7.786   2.790  2.0416  0.4217  1.9906
   24MOL   H19311279   1.642   7.707   2.886 -0.4238 -0.8308  0.3550
   24MOL   O19411280   1.631   0.137   2.778  0.3020  0.6312 -0.1702
   24MOL   C19511281   1.536   0.226   2.718  0.4877  0.4647  0.4130
   24MOL   C19611282   1.533   0.362   2.793 -0.0738  0.1636 -0.2277
   24MOL   C19711283   1.466   0.350   2.930  0.2215 -0.3075 -0.0946
   24MOL   C19811284   1.455   0.481   3.001  0.4218  0.6050 -0.3834
   24MOL   O19911285   1.568   0.526   3.074  0.0984  0.2517 -0.5893
   24MOL   C20011286   1.582   0.472   3.195 -0.1142 -0.2388 -0.2531
   24MOL   O20111287   1.512   0.386   3.242 -0.3229 -0.2233 -0.1716
   24MOL   C20211288   1.706   0.533   3.261  0.3188 -0.7544 -0.2576
   24MOL   C20311289   1.707   0.517   3.413 -0.4632 -0.4380  0.2055
   24MOL   C20411290   1.837   0.474   3.472 -0.6320  0.0938 -0.5488
   24MOL   O20511291   1.894   0.544   3.554 -0.5489 -0.2872  0.7080
   24MOL   H20611292   1.559   0.242   2.613 -0.1589  0.8264  0.3230
   24MOL   H20711293   1.435   0.186   2.719  0.7912 -0.3256 -0.2410
   24MOL   H20811294   1.472   0.428   2.730 -1.6502 -0.4647  0.5953
   24MOL   H20911295   1.633   0.402   2.806 -1.0647  1.9029  2.3793
   24MOL   H21011296   1.505   0.280   3.004 -0.1410 -0.1033  0.2870
   24MOL   H21111297   1.363   0.317   2.916 -0.5424  0.1030  4.0032
   24MOL   H21211298   1.439   0.563   2.931  1.5292 -1.5503 -3.2748
   24MOL   H21311299   1.377   0.477   3.077  1.9117  2.8178  1.3299
   24MOL   H21411300   1.712   0.635   3.223  1.1698  0.1882  2.2918
   24MOL   H21511301   1.786   0.475   3.215  1.3578 -0.1478  0.7396
   24MOL   H21611302   1.664   0.603   3.464  1.7686  1.0826 -0.3866
   24MOL   H21711303   1.642   0.434   3.441 -0.9922 -0.9517 -2.4026
   24MOL   O21811304   1.873   0.353   3.443 -0.9463  0.3708  0.5537
   24MOL   C21911305   1.986   0.290   3.507 -0.3022  0.6886  0.2052
   24MOL   C22011306   2.023   0.159   3.451 -0.6332  0.1111  0.6765
   24MOL   C22111307   2.133   0.076   3.514 -0.0067 -0.5095 -0.9190
   24MOL   C22211308   2.149   7.801   3.467  1.0132  0.2227  0.2128
   24MOL   O22311309   2.041   7.720   3.513 -0.0213 -0.5603 -0.4428
   24MOL   C22411310   1.947   7.674   3.435  0.6209 -0.1073  0.2416
   24MOL   O22511311   1.953   7.673   3.312  0.8748 -0.5556  0.0414
   24MOL   C22611312   1.826   7.634   3.514 -0.0302 -0.4845  0.5246
   24MOL   C22711313   1.694   7.644   3.434  0.6613  0.2290 -0.0993
   24MOL   C22811314   1.645   7.787   3.403  0.8404  0.4548  0.6007
   24MOL   O22911315   1.700   0.017   3.419  0.0017  0.4222  0.0871
   24MOL   H23011316   2.067   0.359   3.482  0.3898  0.1044  0.8576
   24MOL   H23111317   1.987   0.287   3.616 -2.4034 -2.6531  0.1965
   24MOL   H23211318   2.042   0.172   3.345  0.7263  0.0374  0.9052
   24MOL   H23311319   1.943   0.085   3.450 -0.4782 -0.0718  1.2970
   24MOL   H23411320   2.113   0.060   3.620 -1.4577 -1.9402 -1.3837
   24MOL   H23511321   2.230   0.125   3.512  0.0202 -0.5477 -0.6478
   24MOL   H23611322   2.164   7.782   3.360 -2.5148 -0.6624 -0.1805
   24MOL   H23711323   2.229   7.761   3.529  0.1750 -2.5233 -0.4143
   24MOL   H23811324   1.825   7.687   3.610 -0.9407  0.8885 -0.2334
   24MOL   H23911325   1.849   7.529   3.536 -0.9707 -0.9411 -0.6086
   24MOL   H24011326   1.705   7.597   3.336 -1.8426 -1.3343  0.3162
   24MOL   H24111327   1.622   7.576   3.481 -0.1026  0.0814 -1.4433
   24MOL   O24211328   1.515   7.778   3.362  0.0341  0.1655 -0.1558
   24MOL   C24311329   1.455   0.028   3.320  0.6267  0.1091  0.3220
   24MOL   C24411330   1.332   0.007   3.242  0.3014 -0.5308 -0.3590
   24MOL   C24511331   1.260   0.143   3.210 -0.2444 -0.1507 -1.0740
   24MOL   C24611332   1.141   0.127   3.125  0.3961  0.1368  0.8211
   24MOL   O24711333   1.174   0.090   2.992 -0.0313 -0.3381  0.7909
   24MOL   C24811334   1.074   0.095   2.903  0.2476  0.3855  0.1042
   24MOL   O24911335   0.957   0.095   2.931  0.7003  0.0951 -0.4007
   24MOL   C25011336   1.124   0.080   2.760  0.1340  0.4824 -0.0995
   24MOL   C25111337   1.194   7.818   2.737 -0.7737  0.4966 -0.3828
   24MOL   C25211338   1.260   7.806   2.599  0.4670  0.1669 -0.2118
   24MOL   O25311339   1.250   0.022   2.515  0.2495 -0.2706  0.6657
   24MOL   H25411340   1.426   0.087   3.407  0.1015 -0.4695  0.5398
   24MOL   H25511341   1.525   0.091   3.263 -0.6971  2.0292  0.7663
   24MOL   H25611342   1.267   7.819   3.303  1.9697  0.1257  2.1775
   24MOL   H25711343   1.356   7.837   3.145 -1.3220 -0.1758 -0.9449
   24MOL   H25811344   1.334   0.218   3.181 -1.5423  1.6777  0.2251
   24MOL   H25911345   1.219   0.191   3.298  1.9592 -0.6092  0.2421
   24MOL   H26011346   1.078   0.048   3.166  1.1573 -1.2236 -0.5838
   24MOL   H26111347   1.087   0.222   3.128 -0.3371 -0.1965 -1.0233
   24MOL   H26211348   1.197   0.156   2.733 -0.0639  0.9654  0.7157
   24MOL   H26311349   1.041   0.095   2.690  0.0535  0.4303 -0.0148
   24MOL   H26411350   1.262   7.789   2.817 -2.1111 -0.5608  0.4068
   24MOL   H26511351   1.124   7.734   2.742  1.4255 -1.5691 -2.5441
   24MOL   O26611352   1.334   7.693   2.590  0.2184 -0.1134  0.1535
   24MOL   C26711353   1.379   7.636   2.474  0.2116  0.3567 -0.4948
   24MOL   C26811354   1.295   7.514   2.426 -0.2141  0.6381  0.6138
   24MOL   C26911355   1.346   7.436   2.304  0.3259 -0.9774  0.2063
   24MOL   C27011356   1.299   7.492   2.171  0.0846 -0.4382 -0.1502
   24MOL   O27111357   1.156   7.473   2.155  0.6512  0.1383  0.1614
   24MOL   C27211358   1.102   7.366   2.095 -0.5387 -0.3305  0.3299
   24MOL   O27311359   1.173   7.275   2.047 -0.5907 -0.4353 -0.1362
   24MOL   C27411360   0.948   7.373   2.093 -0.2968 -0.6023  0.3894
   24MOL   C27511361   0.894   7.491   1.997 -1.2224  0.3472  0.2840
   24MOL   C27611362   0.756   7.452   1.945 -0.0769  0.1216  0.2356
   24MOL   O27711363   0.659   7.492   2.006  0.1612 -0.1230  0.0042
   24MOL   H27811364   1.402   7.707   2.395  0.5918  0.8711  0.0710
   24MOL   H27911365   1.479   7.599   2.497 -1.2361 -1.8085  2.6808
   24MOL   H28011366   1.194   7.552   2.411 -1.4047 -2.9137 -0.9054
   24MOL   H28111367   1.283   7.445   2.510  1.6027 -1.7504 -1.0115
   24MOL   H28211368   1.310   7.335   2.320 -0.9006 -0.5189  0.4223
   24MOL   H28311369   1.455   7.435   2.305  0.3656  0.1193 -1.6079
   24MOL   H28411370   1.322   7.598   2.174 -1.6591 -0.0606  1.4088
   24MOL   H28511371   1.351   7.443   2.089  0.0069 -0.9295  0.0885
   24MOL   H28611372   0.895   7.376   2.189 -0.1159 -1.2575  0.5136
   24MOL   H28711373   0.919   7.280   2.045  1.0560 -0.1790 -1.2715
   24MOL   H28811374   0.899   7.591   2.039  2.4882  1.2097 -1.9724
   24MOL   H28911375   0.959   7.488   1.909 -2.5301  0.8295 -0.7066
   24MOL   O29011376   0.763   7.370   1.847  1.0842  0.3214 -0.1196
   24MOL   C29111377   0.646   7.340   1.771 -0.2360 -0.2984 -0.1841
   24MOL   C29211378   0.633   7.455   1.669  0.3137 -0.3665 -0.5073
   24MOL   C29311379   0.759   7.482   1.592  0.7110 -0.2366  0.2884
   24MOL   C29411380   0.740   7.555   1.459  1.0533 -0.3040  0.0945
   24MOL   O29511381   0.865   7.573   1.392 -0.1368 -0.0722  0.1842
   24MOL   C29611382   0.892   7.531   1.271  0.7263 -0.4847 -0.7710
   24MOL   O29711383   0.825   7.456   1.201  0.2946 -0.0094  0.4083
   24MOL   C29811384   1.016   7.598   1.204 -0.8655 -0.0366 -0.3655
   24MOL   C29911385   1.046   7.738   1.247 -0.5465 -0.2836  0.4332
   24MOL   C30011386   1.175   7.736   1.327  0.2265 -0.5844  0.0820
   24MOL   O30111387   1.183   7.786   1.444 -0.3324  0.2802 -0.4447
   24MOL   H30211388   0.669   7.248   1.718 -1.1883 -1.3521  1.1893
   24MOL   H30311389   0.557   7.323   1.832 -0.8227 -0.3678 -1.0448
   24MOL   H30411390   0.582   7.542   1.710 -0.4032 -1.2822  0.5952
   24MOL   H30511391   0.560   7.408   1.602  0.0880 -0.4604 -0.1949
   24MOL   H30611392   0.805   7.384   1.584 -0.0513 -0.6595  0.9863
   24MOL   H30711393   0.823   7.549   1.650  1.1408 -0.1250 -0.3152
   24MOL   H30811394   0.671   7.517   1.383  0.6327  0.3330  0.1529
   24MOL   H30911395   0.701   7.654   1.482 -0.8807 -1.0926  0.2954
   24MOL   H31011396   1.007   7.609   1.096  3.5384 -1.6088 -0.9836
   24MOL   H31111397   1.092   7.522   1.222 -1.0832 -0.6717 -2.0373
   24MOL   H31211398   1.067   7.791   1.154 -0.1767 -1.0458  0.0731
   24MOL   H31311399   0.959   7.775   1.301 -1.6344  0.9380 -2.0644
   24MOL   O31411400   1.284   7.687   1.254 -0.3245  0.5783  0.0157
   24MOL   C31511401   1.422   7.697   1.303  0.3440 -0.1530  1.2789
   24MOL   C31611402   1.451   7.595   1.408  0.2571  0.0740 -1.0946
   24MOL   C31711403   1.460   7.449   1.362  0.6147 -0.2573  0.0057
   24MOL   C31811404   1.330   7.394   1.312 -0.4080 -0.4488  0.7297
   24MOL   O31911405   1.236   7.376   1.408  0.9827 -0.3146 -0.4060
   24MOL   C32011406   1.210   7.260   1.461 -0.1723  0.3491  0.0862
   24MOL   O32111407   1.272   7.153   1.446  0.4786 -0.2515  0.1894
   24MOL   C32211408   1.088   7.269   1.551  0.1819 -0.3588 -0.8670
   24MOL   C32311409   1.114   7.223   1.701 -0.3922 -0.1279 -0.1836
   24MOL   C32411410   1.045   7.091   1.723  0.6007  0.6925 -0.4047
   24MOL   O32511411   1.114   6.996   1.751  0.7001 -0.2411 -0.6782
   24MOL   H32611412   1.501   7.691   1.228  1.6188  1.7664  2.4337
   24MOL   H32711413   1.428   7.792   1.356 -0.5324  0.5641  0.1351
   24MOL   H32811414   1.373   7.601   1.483 -0.1338  1.1358 -1.5846
   24MOL   H32911415   1.548   7.624   1.449  0.9137  1.3256 -3.3909
   24MOL   H33011416   1.512   7.387   1.435 -0.1832  0.0455  0.8466
   24MOL   H33111417   1.527   7.441   1.276  0.1418  1.2262 -0.5104
   24MOL   H33211418   1.300   7.448   1.223  2.0289  1.5594  1.0827
   24MOL   H33311419   1.354   7.295   1.273 -0.9189 -0.7840  1.2591
   24MOL   H33411420   1.007   7.209   1.511 -0.5876  0.1689 -0.1207
   24MOL   H33511421   1.056   7.373   1.550  0.2372 -0.3140  0.9135
   24MOL   H33611422   1.221   7.204   1.713 -0.1395  2.2608  1.8306
   24MOL   H33711423   1.098   7.298   1.779 -1.3432 -1.0168  0.5056
   24MOL   O33811424   0.909   7.094   1.721  0.2149  0.0098  0.0812
   24MOL   C33911425   0.835   6.984   1.765 -0.1670  0.0563  0.5678
   24MOL   C34011426   0.816   6.993   1.913 -0.7121  0.0291 -0.4698
   24MOL   C34111427   0.733   6.874   1.957 -0.2285 -0.2314  0.9892
   24MOL   C34211428   0.682   6.875   2.101 -0.0332 -0.1080 -0.3677
   24MOL   O34311429   0.663   6.737   2.123  0.3704  0.1326 -0.6855
   24MOL   C34411430   0.660   6.688   2.256 -0.4814  0.1273  0.5169
   24MOL   O34511431   0.679   6.758   2.355  0.0146 -0.0127  0.1329
   24MOL   C34611432   0.615   6.538   2.262 -0.2958  0.2163  0.9170
   24MOL   C34711433   0.702   6.446   2.349  0.2197  0.8546 -0.1388
   24MOL   C34811434   0.676   6.295   2.321  0.3713  0.4669 -0.0604
   24MOL   O34911435   0.722   6.207   2.399  0.9066 -0.8185 -0.3537
   24MOL   H35011436   0.745   6.998   1.704  0.1543 -1.2500 -0.2388
   24MOL   H35111437   0.882   6.890   1.733 -1.0180  0.0735 -0.7841
   24MOL   H35211438   0.760   7.080   1.949  0.9793  0.4094  1.3492
   24MOL   H35311439   0.915   6.984   1.959 -0.7575  0.1415 -0.3483
   24MOL   H35411440   0.795   6.788   1.932 -0.9960 -0.7718  0.9161
   24MOL   H35511441   0.646   6.876   1.891  2.8618 -0.4274 -3.3110
   24MOL   H35611442   0.763   6.907   2.166  1.0422 -2.1483 -0.6723
   24MOL   H35711443   0.591   6.936   2.108 -0.7747 -1.2894  0.4980
   24MOL   H35811444   0.627   6.500   2.160  1.2426  1.3354  0.6606
   24MOL   H35911445   0.516   6.515   2.300  0.4768 -0.3283  2.6704
   24MOL   H36011446   0.808   6.461   2.332  1.0697 -1.9749  2.1510
   24MOL   H36111447   0.690   6.470   2.455  3.8096  4.4088 -0.4264
   24MOL   O36211448   0.587   6.264   2.218  0.1464  0.2022  0.1756
   24MOL   C36311449   0.545   6.130   2.207  0.3088  0.2691 -0.1062
   24MOL   C36411450   0.639   6.035   2.125  0.7688 -0.9052  0.3803
   24MOL   C36511451   0.589   5.892   2.122  0.1099  0.1675  0.2183
   24MOL   C36611452   0.680   5.802   2.032  0.0902 -0.3462  0.3402
   24MOL   O36711453   0.811   5.802   2.086 -0.2323 -0.5600  0.0369
   24MOL   C36811454   0.911   5.732   2.041 -0.4392  0.2974  0.2402
   24MOL   O36911455   0.914   5.672   1.936 -0.3454 -0.2495  0.2371
   24MOL   C37011456   1.029   5.731   2.126  0.0462 -0.0155 -0.3637
   24MOL   C37111457   1.162   5.775   2.064 -0.1789 -0.5059  0.8702
   24MOL   C37211458   1.253   5.659   2.023 -0.2336  0.1771 -0.7392
   24MOL   O37311459   1.369   5.647   2.069  0.3648  0.5776  0.9745
   24MOL   H37411460   0.525   6.084   2.304 -0.0912  0.1918 -0.2245
   24MOL   H37511461   0.448   6.125   2.158  0.1885 -1.3343  0.2539
   24MOL   H37611462   0.737   6.037   2.173  0.6199 -2.8254  0.7975
   24MOL   H37711463   0.647   6.066   2.021 -2.6014  1.0149  0.6088
   24MOL   H37811464   0.488   5.883   2.083  0.5768 -1.2517 -0.7094
   24MOL   H37911465   0.587   5.853   2.224  0.1801 -0.6594 -0.0914
   24MOL   H38011466   0.647   5.699   2.023 -0.2446 -0.1412 -0.8604
   24MOL   H38111467   0.689   5.839   1.929  1.5883 -2.3579 -0.2936
   24MOL   H38211468   1.039   5.632   2.171  1.3317  0.2300 -0.0914
   24MOL   H38311469   1.000   5.793   2.211 -1.5895 -0.0745 -0.8593
   24MOL   H38411470   1.140   5.828   1.971  0.4554 -3.2704 -0.9018
   24MOL   H38511471   1.218   5.859   2.106 -0.0392 -0.7616  1.1949
   24MOL   O38611472   1.200   5.595   1.925 -0.4740 -0.2803  0.2664
   24MOL   C38711473   1.278   5.494   1.856 -0.3283 -0.4190 -0.5968
   24MOL   C38811474   1.225   5.502   1.712  0.3920  0.0893 -0.0461
   24MOL   C38911475   1.297   5.625   1.635  0.3364  0.6775 -0.2637
   24MOL   C39011476   1.218   5.644   1.504  0.1937 -0.6471 -0.7731
   24MOL   O39111477   1.248   5.777   1.459 -0.5006  0.5448  0.6594
   24MOL   C39211478   1.221   5.813   1.329 -0.1940 -0.0750  0.4118
   24MOL   O39311479   1.187   5.734   1.242  0.9464  0.1617  0.5594
   24MOL   C39411480   1.237   5.965   1.304  0.2266 -0.3241 -0.1833
   24MOL   C39511481   1.156   6.018   1.191 -0.6495 -0.4304 -0.2725
   24MOL   C39611482   1.231   6.085   1.066  0.6397  0.0566  0.4330
   24MOL   O39711483   1.176   6.170   0.998  0.4654  0.0426  0.5338
   24MOL   H39811484   1.386   5.505   1.864 -0.2821 -1.7897  0.9228
   24MOL   H39911485   1.236   5.403   1.901 -1.0252  0.7166  1.0913
   24MOL   H40011486   1.118   5.518   1.716  0.7534  2.8055 -0.0111
   24MOL   H40111487   1.238   5.408   1.659  4.1625  0.2358  0.4381
   24MOL   H40211488   1.402   5.607   1.612 -0.0142  0.4658 -1.7367
   24MOL   H40311489   1.290   5.715   1.696  1.8044 -0.3056  1.3983
   24MOL   H40411490   1.252   5.566   1.436  1.2929 -1.2525  0.4419
   24MOL   H40511491   1.112   5.631   1.527  0.5525  0.2880  1.5554
   24MOL   H40611492   1.342   5.984   1.282  0.4070 -1.6981 -0.5219
   24MOL   H40711493   1.197   6.015   1.392 -1.2958  0.7837 -1.4791
   24MOL   H40811494   1.083   5.942   1.165 -0.5918 -1.1149  1.4967
   24MOL   H40911495   1.094   6.092   1.241 -1.8822 -3.1129  2.3048
   24MOL   O41011496   1.348   6.029   1.032  0.0892 -0.0395  0.3548
   24MOL   C41111497   1.404   6.059   0.910 -0.1207 -0.1306  0.4983
   24MOL   C41211498   1.538   5.982   0.887 -0.4108  0.4938  0.5557
   24MOL   C41311499   1.603   6.015   0.744  0.7576  0.3328  0.2147
   24MOL   C41411500   1.721   5.919   0.704  0.0964 -0.5909  0.7436
   24MOL   O41511501   1.679   5.788   0.674 -0.1041 -0.1737 -0.3853
   24MOL   C41611502   1.767   5.692   0.671 -0.1808  0.8228  0.6947
   24MOL   O41711503   1.881   5.715   0.675 -0.4978 -0.2777  0.1668
   24MOL   C41811504   1.716   5.548   0.650 -0.3419  0.5235  0.2076
   24MOL   C41911505   1.641   5.497   0.776  0.6757  1.1057  0.1794
   24MOL   C42011506   1.494   5.515   0.762 -0.3871 -0.2141  0.5018
   24MOL   O42111507   1.436   5.483   0.658  0.4604  0.4015  0.2214
   24MOL   H42211508   1.340   6.055   0.821 -1.6437 -3.1640  1.6713
   24MOL   H42311509   1.427   6.163   0.933  1.9253 -0.5919  0.5896
   24MOL   H42411510   1.511   5.877   0.890  0.0579  0.3431 -0.3426
   24MOL   H42511511   1.614   5.991   0.965 -0.3176 -1.9022  0.7773
   24MOL   H42611512   1.638   6.119   0.749  1.0715  0.2602 -0.4156
   24MOL   H42711513   1.523   6.004   0.670  1.0550  1.2666 -0.2550
   24MOL   H42811514   1.773   5.962   0.618 -0.9212 -1.5890 -0.3785
   24MOL   H42911515   1.796   5.926   0.783 -1.2206 -1.4258  2.1050
   24MOL   H43011516   1.795   5.478   0.621 -0.4217  0.2122  0.7393
   24MOL   H43111517   1.654   5.545   0.560  0.5361 -0.1217 -0.3787
   24MOL   H43211518   1.670   5.393   0.788  0.7616  0.5085 -4.2409
   24MOL   H43311519   1.678   5.561   0.855  2.8752  1.6514 -1.2476
   24MOL   O43411520   1.427   5.569   0.870  0.1924  0.7033 -0.4878
   24MOL   C43511521   1.286   5.591   0.850  0.0166 -0.3298 -0.1963
   24MOL   C43611522   1.255   5.717   0.917 -0.4987  0.1300 -0.2056
   24MOL   C43711523   1.105   5.751   0.926  0.0772 -0.0836  0.1916
   24MOL   C43811524   1.062   5.834   0.802 -0.4565  0.0244  0.0662
   24MOL   O43911525   0.917   5.843   0.802  0.6819  0.1300 -0.1348
   24MOL   C44011526   0.848   5.844   0.684  0.0721 -0.5598  0.3827
   24MOL   O44111527   0.888   5.788   0.581 -0.0811  0.4769  0.2773
   24MOL   C44211528   0.701   5.892   0.695  0.4496 -0.1724 -0.0229
   24MOL   C44311529   0.607   5.786   0.754  0.2402  0.6399 -0.5056
   24MOL   C44411530   0.511   5.841   0.860 -0.6326 -0.1258 -0.2041
   24MOL   O44511531   0.506   5.961   0.885 -0.3374 -0.4583  0.4233
   24MOL   H44611532   1.258   5.614   0.747 -0.5104  2.1595  0.4568
   24MOL   H44711533   1.222   5.510   0.883 -0.1815  0.4699  1.4236
   24MOL   H44811534   1.310   5.802   0.876  0.0897  0.3591  1.0435
   24MOL   H44911535   1.292   5.714   1.020  1.5343  0.0364 -0.9215
   24MOL   H45011536   1.092   5.810   1.017  0.9692  0.0048  0.2582
   24MOL   H45111537   1.048   5.659   0.944 -1.5527  0.9904  0.6339
   24MOL   H45211538   1.102   5.935   0.791 -1.5396  0.3645 -0.7224
   24MOL   H45311539   1.102   5.766   0.727 -2.1540  0.2346 -1.0366
   24MOL   H45411540   0.682   5.923   0.592  1.1348  1.6829  0.3792
   24MOL   H45511541   0.698   5.987   0.748 -1.0561 -1.3561  2.0594
   24MOL   H45611542   0.554   5.728   0.678  1.4106 -0.8957 -0.1779
   24MOL   H45711543   0.661   5.712   0.814 -0.8642 -0.6423 -1.0692
   24MOL   O45811544   0.419   5.751   0.897 -0.0475 -0.1985 -0.3837
   24MOL   C45911545   0.312   5.787   0.980 -0.7382  0.4183  0.9843
   24MOL   C46011546   0.189   5.823   0.901 -0.4051  0.0544 -0.2395
   24MOL   C46111547   0.070   5.851   0.986 -0.1432  0.7221 -0.3441
   24MOL   C46211548   7.817   5.918   0.924 -0.6276  0.2474  0.2030
   24MOL   O46311549   7.846   6.038   0.853  0.1013  0.2124  0.1216
   24MOL   C46411550   7.863   6.040   0.717  0.3554 -0.0915  0.1115
   24MOL   O46511551   0.001   5.938   0.648 -0.1090 -0.1978 -0.0759
   24MOL   C46611552   7.862   6.178   0.662 -0.6429  0.0290 -0.4877
   24MOL   C46711553   0.092   6.266   0.733 -0.1088 -0.5070  0.5594
   24MOL   C46811554   0.046   6.377   0.818  0.3017 -0.0530 -0.0641
   24MOL   O46911555   7.804   6.395   0.842  0.2102  0.4296  0.3589
   24MOL   H47011556   0.286   5.702   1.042  0.2909 -0.7741 -0.1973
   24MOL   H47111557   0.344   5.853   1.061  3.4622  1.3589 -1.2631
   24MOL   H47211558   0.187   5.739   0.831  1.7778 -0.5042  0.3546
   24MOL   H47311559   0.217   5.907   0.837  0.1041 -1.2310 -1.7278
   24MOL   H47411560   0.105   5.894   1.079 -0.0328  0.3975 -0.2356
   24MOL   H47511561   0.045   5.754   1.029 -0.9299  0.2551 -1.8106
   24MOL   H47611562   7.774   5.845   0.855 -0.5611 -0.8721  1.3346
   24MOL   H47711563   7.744   5.942   1.001  0.1876  0.1667  0.9991
   24MOL   H47811564   7.761   6.217   0.673 -1.0831 -1.2113 -0.0436
   24MOL   H47911565   0.007   6.172   0.554 -1.1499 -0.1573 -0.5732
   24MOL   H48011566   0.168   6.208   0.786  1.4833 -1.1297 -2.2970
   24MOL   H48111567   0.154   6.312   0.656 -0.8531  0.5934  0.6035
   24MOL   H48211568   0.124   6.444   0.855 -0.6274  0.8030  0.4047
   25MOL     O111569   7.438   6.681   7.685  0.0575  0.2208 -0.0394
   25MOL     C211570   7.497   6.546   7.684  0.0309  0.1498 -0.5556
   25MOL     C311571   7.622   6.553   7.770  0.1663 -0.4515 -0.6365
   25MOL     C411572   7.749   6.601   7.697 -0.4680 -0.0842 -0.4222
   25MOL     C511573   7.750   6.751   7.666 -0.3034  0.4394  0.1071
   25MOL     O611574   7.862   6.776   7.586 -0.3766 -0.5291 -0.1948
   25MOL     C711575   0.110   6.802   7.640 -0.0630  0.1238 -0.8728
   25MOL     O811576   0.134   6.797   7.760  0.1881 -1.5669 -0.0220
   25MOL     C911577   0.208   6.834   7.532 -0.5588 -0.0315 -0.6773
   25MOL    C1011578   0.351   6.844   7.593 -0.3391  1.2192  0.9194
   25MOL    C1111579   0.397   6.988   7.610 -0.0304 -0.5821 -0.0109
   25MOL    O1211580   0.330   7.073   7.672  0.3600 -0.2841  0.2644
   25MOL    H1311581   7.427   6.473   7.726  0.0394  0.4446 -0.0203
   25MOL    H1411582   7.523   6.517   7.582  1.0133  1.7171 -0.7543
   25MOL    H1511583   7.640   6.451   7.804 -0.3698 -0.3479 -0.0179
   25MOL    H1611584   7.605   6.606   7.864  1.8334 -2.0517  0.5979
   25MOL    H1711585   7.749   6.549   7.600  2.2577 -0.9287 -0.0226
   25MOL    H1811586   7.836   6.562   7.750  0.3519  0.8198 -1.0901
   25MOL    H1911587   7.665   6.780   7.605 -0.0974 -1.5616 -1.1596
   25MOL    H2011588   7.756   6.802   7.763 -0.2156  3.2054 -1.2862
   25MOL    H2111589   0.186   6.924   7.475 -2.5492  0.2909  0.5665
   25MOL    H2211590   0.193   6.758   7.455 -4.7642  0.7406 -0.7646
   25MOL    H2311591   0.358   6.793   7.689 -2.5528  0.9024  0.9336
   25MOL    H2411592   0.425   6.801   7.526  0.1682  1.6584  1.1940
   25MOL    H2511593   7.355   6.668   7.642 -0.7908 -0.9540  1.8573
   25MOL    O2611594   0.518   7.009   7.556 -0.0880  0.7641  0.3672
   25MOL    C2711595   0.574   7.144   7.552 -0.4271 -0.0524 -0.0419
   25MOL    C2811596   0.731   7.124   7.549  0.1568  0.7191  0.4859
   25MOL    C2911597   0.800   7.092   7.677  0.2220 -0.4207 -0.6940
   25MOL    C3011598   0.819   7.212   7.768  0.0060  0.3904  0.1834
   25MOL    O3111599   0.903   7.157   7.871  0.2764  0.0088  0.0281
   25MOL    C3211600   0.971   7.238   0.075  0.2531  0.7798 -0.0241
   25MOL    O3311601   0.984   7.360   0.077  0.0414  0.3733 -0.3138
   25MOL    C3411602   1.044   7.155   0.176  0.5540  0.1638  0.0259
   25MOL    C3511603   0.938   7.071   0.249  0.5872 -0.2025 -0.4154
   25MOL    C3611604   0.987   7.024   0.385  0.5084 -0.9868  0.0907
   25MOL    O3711605   0.916   7.036   0.485  0.4601 -0.1846  0.3480
   25MOL    H3811606   0.548   7.201   7.462  2.1026  2.2146  0.5888
   25MOL    H3911607   0.536   7.199   7.638 -0.8949  0.0315 -0.3002
   25MOL    H4011608   0.773   7.217   7.509 -1.9702  1.1567 -0.8108
   25MOL    H4111609   0.762   7.046   7.480  0.0912  0.8510  0.3044
   25MOL    H4211610   0.896   7.043   7.656  1.4949  2.7142 -2.4834
   25MOL    H4311611   0.737   7.019   7.728 -0.0561  0.9544  0.9861
   25MOL    H4411612   0.855   7.294   7.705 -0.1983  0.7645  0.5514
   25MOL    H4511613   0.724   7.248   7.807  1.2483  2.9024  1.0284
   25MOL    H4611614   1.100   7.220   0.243  1.2346 -0.9851  0.6002
   25MOL    H4711615   1.118   7.092   0.126 -0.0188 -1.3406  1.0299
   25MOL    H4811616   0.847   7.130   0.262  1.2758  1.0562 -1.2016
   25MOL    H4911617   0.924   6.975   0.200  0.6994 -0.6382  0.3788
   25MOL    O5011618   1.108   6.960   0.376  0.5048  0.2168 -0.2451
   25MOL    C5111619   1.168   6.911   0.499  0.2086 -0.0968 -0.4092
   25MOL    C5211620   1.319   6.882   0.487  0.3958  1.1668 -0.0575
   25MOL    C5311621   1.412   6.991   0.450  0.4392 -0.1018  0.0019
   25MOL    C5411622   1.561   6.962   0.458  0.6050 -0.0995  0.0363
   25MOL    O5511623   1.589   6.914   0.588  0.2830  0.0058 -0.2276
   25MOL    C5611624   1.667   6.982   0.669  0.7906  0.1508 -0.3263
   25MOL    O5711625   1.742   7.076   0.645  0.5510  0.0447  0.4154
   25MOL    C5811626   1.662   6.912   0.811  0.0479 -0.5800  0.7785
   25MOL    C5911627   1.789   6.833   0.843 -0.4198 -0.3873 -0.4126
   25MOL    C6011628   1.814   6.804   0.985  0.0097  1.0965 -0.2978
   25MOL    O6111629   1.926   6.804   1.029 -0.3161  0.5262  0.1509
   25MOL    H6211630   1.144   6.981   0.579  0.3471 -0.9940  0.4401
   25MOL    H6311631   1.135   6.812   0.532  1.9931 -0.6714 -0.2558
   25MOL    H6411632   1.323   6.803   0.412 -0.9888  1.6513 -0.6504
   25MOL    H6511633   1.358   6.847   0.583  0.3666 -0.0133 -0.4648
   25MOL    H6611634   1.392   7.076   0.515  3.3407  0.8159 -0.2497
   25MOL    H6711635   1.389   7.026   0.349 -1.8307 -0.3532  0.4015
   25MOL    H6811636   1.598   6.900   0.376  0.9952  0.2673 -0.0650
   25MOL    H6911637   1.622   7.049   0.434  2.8507 -1.5276  0.4075
   25MOL    H7011638   1.577   6.845   0.808  0.2315 -0.8526  1.6609
   25MOL    H7111639   1.647   6.994   0.882 -0.3124  1.1988 -1.2709
   25MOL    H7211640   1.802   6.732   0.803  1.6578 -0.2912 -0.0376
   25MOL    H7311641   1.866   6.905   0.815 -1.8492  2.1316  1.9099
   25MOL    O7411642   1.695   6.799   1.056  0.1012 -0.6816  0.0586
   25MOL    C7511643   1.695   6.784   1.194 -0.4996  0.0553 -0.6864
   25MOL    C7611644   1.558   6.818   1.252 -1.2416  0.2605  0.2711
   25MOL    C7711645   1.516   6.967   1.231 -0.6670  0.2405 -0.3846
   25MOL    C7811646   1.619   7.075   1.258  0.7072  0.4484 -0.1579
   25MOL    O7911647   1.720   7.085   1.157 -0.9772  0.3962 -0.4194
   25MOL    C8011648   1.812   7.178   1.174 -0.5060  0.1860  0.4895
   25MOL    O8111649   1.802   7.269   1.255 -0.0805 -0.1892 -0.1947
   25MOL    C8211650   1.926   7.174   1.082 -0.1172  0.4007  0.1641
   25MOL    C8311651   1.886   7.181   0.937  0.3042 -0.0314 -0.0139
   25MOL    C8411652   2.004   7.168   0.846  0.3851  0.7228  0.2396
   25MOL    O8511653   2.091   7.086   0.867  0.1186 -0.4964  0.2806
   25MOL    H8611654   1.710   6.677   1.208 -1.6636 -0.1787 -1.1386
   25MOL    H8711655   1.780   6.834   1.241 -0.6324 -1.1878  0.9521
   25MOL    H8811656   1.568   6.794   1.358 -1.1099  0.2943  0.2664
   25MOL    H8911657   1.479   6.757   1.208 -0.0493 -0.6133 -0.7085
   25MOL    H9011658   1.430   6.985   1.295 -0.3266  2.0731 -0.4124
   25MOL    H9111659   1.494   6.990   1.127  0.7766  1.1674 -0.4986
   25MOL    H9211660   1.564   7.169   1.260 -0.0442 -0.0013  1.4980
   25MOL    H9311661   1.659   7.060   1.359  1.7443  2.9718 -0.1575
   25MOL    H9411662   1.965   7.073   1.100  0.8353  0.4160 -1.6991
   25MOL    H9511663   2.007   7.243   1.102  0.8153 -0.0372 -1.8971
   25MOL    H9611664   1.811   7.111   0.901  0.6515 -0.5548  0.2880
   25MOL    H9711665   1.838   7.276   0.914  0.7201 -0.1145 -1.2535
   25MOL    O9811666   1.982   7.246   0.740 -0.1227  0.2115 -0.1691
   25MOL    C9911667   2.069   7.241   0.623 -0.6672 -0.8513  0.0860
   25MOL   C10011668   2.202   7.310   0.643 -0.2092 -0.5806  0.7883
   25MOL   C10111669   2.172   7.469   0.644  0.2885 -0.1144 -0.0799
   25MOL   C10211670   2.154   7.526   0.504 -0.9661 -0.1036 -0.0965
   25MOL   O10311671   2.265   7.519   0.416  0.4426 -0.3418  0.2264
   25MOL   C10411672   2.286   7.609   0.317 -0.2121  0.1358  0.0929
   25MOL   O10511673   2.209   7.704   0.299 -0.5027  0.1745 -0.1802
   25MOL   C10611674   2.417   7.596   0.239  0.6953 -0.0532  0.6574
   25MOL   C10711675   2.447   7.719   0.148 -0.4144  0.9698 -0.5457
   25MOL   C10811676   2.368   7.734   0.021  0.4150 -1.0815 -0.4842
   25MOL   O10911677   2.370   7.832   7.829 -0.1377 -0.1313 -0.3424
   25MOL   H11011678   2.086   7.134   0.609 -3.1115 -1.1318 -0.9558
   25MOL   H11111679   2.008   7.262   0.536 -0.3253 -1.6997 -0.3643
   25MOL   H11211680   2.268   7.290   0.558 -0.6774 -0.8275  0.4826
   25MOL   H11311681   2.263   7.285   0.730  3.2796  1.6950 -0.8790
   25MOL   H11411682   2.263   7.513   0.684  0.5771 -0.7060 -0.0770
   25MOL   H11511683   2.080   7.493   0.698  0.6427  1.1173 -0.0170
   25MOL   H11611684   2.063   7.495   0.452 -0.9916 -1.1104  0.5295
   25MOL   H11711685   2.111   7.622   0.533 -0.0719  0.5354 -0.8484
   25MOL   H11811686   2.404   7.501   0.188  0.8701  0.1777  0.1867
   25MOL   H11911687   2.486   7.586   0.323  1.4058 -3.5780 -0.2584
   25MOL   H12011688   2.432   7.811   0.204  0.1498  0.1900  0.9232
   25MOL   H12111689   2.555   7.731   0.134 -0.0810  0.3086  1.3091
   25MOL   O12211690   2.312   7.621   7.864  0.1988  0.5225 -0.2479
   25MOL   C12311691   2.239   7.604   7.740  0.0287 -1.3679  0.2255
   25MOL   C12411692   2.155   7.463   7.738 -0.0138 -0.2428  0.7315
   25MOL   C12511693   2.043   7.457   7.845 -0.4079 -0.1079 -0.8957
   25MOL   C12611694   1.951   7.331   7.831 -0.1936 -0.3473 -0.5879
   25MOL   O12711695   1.842   7.336   0.048 -0.1422 -0.4071  0.0627
   25MOL   C12811696   1.860   7.339   0.178 -0.3549  0.1446 -0.2492
   25MOL   O12911697   1.973   7.329   0.234  0.4845 -0.2917  0.5152
   25MOL   C13011698   1.728   7.361   0.249  0.2592  0.0015  0.2743
   25MOL   C13111699   1.737   7.326   0.395  0.1458 -0.4406  0.4766
   25MOL   C13211700   1.605   7.339   0.471  0.3945  0.4277 -0.3630
   25MOL   O13311701   1.499   7.324   0.409 -0.3359  0.0007 -0.0934
   25MOL   H13411702   2.159   7.678   7.729  1.0416 -0.1685  0.7266
   25MOL   H13511703   2.317   7.613   7.664 -1.4691 -0.7582 -1.2714
   25MOL   H13611704   2.231   7.384   7.739  0.1746 -0.0681  2.1697
   25MOL   H13711705   2.112   7.458   7.638 -1.2322  1.3299  1.1548
   25MOL   H13811706   1.986   7.548   7.826 -0.5088 -0.8625 -4.6546
   25MOL   H13911707   2.083   7.470   0.071 -1.1636  0.3467 -0.6513
   25MOL   H14011708   1.912   7.327   7.729  0.6758 -1.7579 -0.8856
   25MOL   H14111709   2.010   7.242   7.853  1.2513  0.3021 -1.6903
   25MOL   H14211710   1.652   7.288   0.220 -0.2250 -0.0023  1.5295
   25MOL   H14311711   1.692   7.463   0.236  0.9022  0.3776  1.4246
   25MOL   H14411712   1.767   7.222   0.409  2.0097 -0.3284 -2.1614
   25MOL   H14511713   1.801   7.398   0.445  0.4475 -1.2126  1.1970
   25MOL   O14611714   1.614   7.372   0.601  0.4231 -0.8419 -0.1538
   25MOL   C14711715   1.496   7.383   0.672 -0.6975  0.4942 -0.1273
   25MOL   C14811716   1.530   7.383   0.818  0.1133 -0.8133 -0.1064
   25MOL   C14911717   1.403   7.411   0.906 -0.3446  0.8213  0.2701
   25MOL   C15011718   1.340   7.550   0.909  0.0831  0.0661  0.4922
   25MOL   O15111719   1.440   7.647   0.944  0.0828  0.0383  0.6558
   25MOL   C15211720   1.397   7.785   0.954  0.1365 -0.8207 -0.2353
   25MOL   O15311721   1.284   7.826   0.962 -0.3085  0.2138  0.4588
   25MOL   C15411722   1.518   0.007   0.964 -1.2191  0.0271  0.0405
   25MOL   C15511723   1.483   0.134   1.047 -0.0450 -0.1078  0.8960
   25MOL   C15611724   1.583   0.160   1.161 -0.0935 -0.1054  0.5062
   25MOL   O15711725   1.641   0.072   1.228  0.2850  0.4357  0.0101
   25MOL   H15811726   1.449   7.476   0.642 -0.3509  0.9873  0.8600
   25MOL   H15911727   1.418   7.308   0.654 -0.8996  0.9306 -1.1098
   25MOL   H16011728   1.607   7.457   0.835  0.6142 -1.4458  0.3940
   25MOL   H16111729   1.575   7.285   0.832  1.4389 -0.2010 -0.0282
   25MOL   H16211730   1.412   7.361   1.002  3.9403  1.2075  0.1961
   25MOL   H16311731   1.325   7.350   0.859 -0.3958  0.0135  1.3970
   25MOL   H16411732   1.294   7.574   0.813  0.2372 -1.2267  0.0864
   25MOL   H16511733   1.259   7.549   0.983  1.0427  1.8615  1.5912
   25MOL   H16611734   1.529   0.032   0.859  0.6844 -1.0517 -0.0431
   25MOL   H16711735   1.601   7.827   1.009 -0.7633  1.5874  1.1431
   25MOL   H16811736   1.491   0.218   0.978  1.2468 -0.9049  0.0548
   25MOL   H16911737   1.382   0.121   1.086 -0.9785 -0.3439 -1.4924
   25MOL   O17011738   1.593   0.294   1.174  0.7758  0.2151 -0.3814
   25MOL   C17111739   1.692   0.351   1.261  0.2648 -0.5165 -0.0389
   25MOL   C17211740   1.808   0.412   1.185 -1.0139  0.0821  0.5832
   25MOL   C17311741   1.906   0.310   1.135 -0.2308 -0.0723 -0.2481
   25MOL   C17411742   2.041   0.384   1.106  0.6460  0.3830  0.2626
   25MOL   O17511743   2.028   0.514   1.060 -0.4844 -0.1372  0.1453
   25MOL   C17611744   2.064   0.540   0.935 -0.4395 -0.1946  0.2430
   25MOL   O17711745   2.086   0.466   0.836  0.2267  0.0208 -0.3140
   25MOL   C17811746   2.054   0.689   0.908 -0.1683  0.6762  0.4690
   25MOL   C17911747   2.173   0.739   0.823  0.0121  0.0356  0.1029
   25MOL   C18011748   2.293   0.805   0.887  0.0551  0.1486 -0.4482
   25MOL   O18111749   2.268   0.864   0.993  0.1399  0.7578 -0.4658
   25MOL   H18211750   1.649   0.434   1.317 -0.6394 -1.0743  0.0971
   25MOL   H18311751   1.738   0.284   1.334  1.9827 -0.5747 -1.1505
   25MOL   H18411752   1.859   0.486   1.247 -0.6220 -0.0158  0.3741
   25MOL   H18511753   1.769   0.471   1.102 -0.0097 -0.6749 -0.4273
   25MOL   H18611754   1.878   0.261   1.042 -0.6662 -1.0759  0.4000
   25MOL   H18711755   1.914   0.231   1.210  1.9407  1.3217  1.0473
   25MOL   H18811756   2.097   0.399   1.199  2.2033 -0.3170 -0.5412
   25MOL   H18911757   2.110   0.323   1.049  0.1345  0.2872 -0.2552
   25MOL   H19011758   2.056   0.748   0.999 -1.2579  0.7549  0.4567
   25MOL   H19111759   1.958   0.717   0.863 -0.9934 -1.7005  0.6986
   25MOL   H19211760   2.223   0.667   0.758 -0.5304  1.4104 -1.9075
   25MOL   H19311761   2.139   0.816   0.753  1.8863  0.9296  0.1356
   25MOL   O19411762   2.411   0.799   0.826  0.1209 -0.0986  0.6045
   25MOL   C19511763   2.529   0.850   0.882 -0.5050 -0.0397  0.4383
   25MOL   C19611764   2.563   1.000   0.864 -0.8777 -0.1670  0.1571
   25MOL   C19711765   2.569   1.030   0.708 -0.3255  0.2966  0.6190
   25MOL   C19811766   2.628   1.170   0.684 -0.0440 -0.0079  0.5280
   25MOL   O19911767   2.544   1.273   0.723  0.3836  0.1266  0.0447
   25MOL   C20011768   2.588   1.402   0.727 -0.7433 -0.6844 -0.0671
   25MOL   O20111769   2.690   1.444   0.674  0.1597 -0.6605  0.0184
   25MOL   C20211770   2.489   1.496   0.800 -0.9745  0.4645  0.6231
   25MOL   C20311771   2.501   1.495   0.957 -1.2139 -0.3128 -0.3503
   25MOL   C20411772   2.392   1.421   1.035  0.3094  1.0343 -0.0162
   25MOL   O20511773   2.309   1.491   1.095 -0.2165 -0.3101  0.7332
   25MOL   H20611774   2.524   0.837   0.990  1.2603  1.6334  0.7434
   25MOL   H20711775   2.615   0.792   0.847 -1.4363 -1.4778  0.4958
   25MOL   H20811776   2.656   1.033   0.911 -1.2123 -1.4667  1.7746
   25MOL   H20911777   2.494   1.069   0.913  0.3883  0.2380  1.4020
   25MOL   H21011778   2.473   1.017   0.657  0.2783 -2.3447  0.0699
   25MOL   H21111779   2.627   0.959   0.649 -2.4271 -1.7990  0.9699
   25MOL   H21211780   2.725   1.182   0.732  1.3335 -2.4574 -1.4992
   25MOL   H21311781   2.638   1.181   0.576  1.1154 -0.3214  0.5991
   25MOL   H21411782   2.386   1.480   0.767 -0.0811  0.1830 -2.1530
   25MOL   H21511783   2.505   1.601   0.776  2.3247 -0.2041 -0.2955
   25MOL   H21611784   2.599   1.452   0.979 -1.5007 -0.2802  1.0593
   25MOL   H21711785   2.502   1.597   0.994 -0.3274 -0.3135 -0.3706
   25MOL   O21811786   2.394   1.298   1.008 -0.0301  0.6943 -1.1465
   25MOL   C21911787   2.302   1.207   1.073  0.6909 -0.1930  0.1235
   25MOL   C22011788   2.371   1.118   1.171 -0.1050 -0.1300  0.3451
   25MOL   C22111789   2.439   1.198   1.285 -0.4454 -0.1567 -0.2762
   25MOL   C22211790   2.493   1.108   1.403 -0.6096  0.7753 -0.3244
   25MOL   O22311791   2.555   1.194   1.503  0.3505  0.2576  0.2708
   25MOL   C22411792   2.629   1.148   1.596 -0.4091  0.0910  0.0850
   25MOL   O22511793   2.696   1.040   1.598 -0.3037  0.2154 -0.0665
   25MOL   C22611794   2.648   1.245   1.706 -0.1152 -0.0876 -0.4562
   25MOL   C22711795   2.514   1.265   1.780 -0.0612  0.0000 -0.0244
   25MOL   C22811796   2.513   1.207   1.923 -0.4287 -0.7213 -0.0934
   25MOL   O22911797   2.514   1.282   2.012  0.1186 -0.4243  0.2147
   25MOL   H23011798   2.213   1.250   1.117  0.8749  0.9781 -0.6285
   25MOL   H23111799   2.266   1.154   0.985 -0.9255  0.6778  0.2618
   25MOL   H23211800   2.448   1.058   1.123 -0.6565 -0.3518 -0.2755
   25MOL   H23311801   2.314   1.035   1.214 -0.5366  0.2250  0.4666
   25MOL   H23411802   2.370   1.273   1.323 -0.3413 -0.0725 -0.2520
   25MOL   H23511803   2.519   1.266   1.256 -0.3002  0.2832  1.1060
   25MOL   H23611804   2.410   1.064   1.458 -0.8269 -0.9446 -1.9679
   25MOL   H23711805   2.558   1.025   1.375 -1.9405 -1.0069  1.7126
   25MOL   H23811806   2.675   1.338   1.655  3.2476  0.6556  2.4602
   25MOL   H23911807   2.726   1.224   1.778 -0.9860 -0.5530  0.3513
   25MOL   H24011808   2.497   1.373   1.784  0.1028 -0.0183  1.6257
   25MOL   H24111809   2.427   1.233   1.722  0.1202  1.7647 -1.3273
   25MOL   O24211810   2.530   1.078   1.922  0.5228 -0.1637 -0.4598
   25MOL   C24311811   2.554   1.018   2.050  0.1071 -0.0049  0.5233
   25MOL   C24411812   2.619   0.880   2.026  0.5150 -0.4340  0.6055
   25MOL   C24511813   2.767   0.891   1.983  0.1747 -0.0977 -0.7537
   25MOL   C24611814   2.833   0.761   2.003  0.1004  0.6897  0.6120
   25MOL   O24711815   2.851   0.744   2.139 -0.2985  0.2421  0.1521
   25MOL   C24811816   2.819   0.626   2.201 -0.1211 -0.6007  0.2267
   25MOL   O24911817   2.788   0.519   2.150 -0.3458 -0.4219  0.7288
   25MOL   C25011818   2.837   0.630   2.351  0.3242 -0.0813 -0.1375
   25MOL   C25111819   2.712   0.656   2.430 -0.4060 -0.2590  0.4956
   25MOL   C25211820   2.681   0.805   2.418  0.6343  0.3037 -0.7294
   25MOL   O25311821   2.574   0.832   2.361 -0.0144 -0.8412 -0.9095
   25MOL   H25411822   2.622   1.077   2.111  2.4202 -0.1481 -1.8757
   25MOL   H25511823   2.465   1.019   2.114 -0.9151 -0.2513 -0.8747
   25MOL   H25611824   2.578   0.826   1.941  2.6411  0.7778 -1.2601
   25MOL   H25711825   2.604   0.817   2.114  1.4680 -0.6417  0.6239
   25MOL   H25811826   2.818   0.962   2.047 -0.1485 -0.1122 -0.4772
   25MOL   H25911827   2.780   0.927   1.881  0.8759  0.5455 -0.4357
   25MOL   H26011828   2.777   0.682   1.952  0.0380 -0.1104  1.8960
   25MOL   H26111829   2.932   0.771   1.959  0.1177  0.6199  0.6347
   25MOL   H26211830   2.908   0.705   2.384 -2.4497  2.3462  0.5662
   25MOL   H26311831   2.863   0.530   2.386  1.5237  0.8932  1.8459
   25MOL   H26411832   2.627   0.600   2.392 -0.4543  1.0868 -1.4714
   25MOL   H26511833   2.737   0.649   2.536 -0.3582  1.3631  0.5932
   25MOL   O26611834   2.773   0.882   2.457 -0.4479  0.0752  0.2783
   25MOL   C26711835   2.773   1.020   2.425 -0.2085  0.0704  0.7155
   25MOL   C26811836   2.895   1.062   2.355 -0.2938 -0.3557  0.4063
   25MOL   C26911837   3.018   1.056   2.443  0.0683 -0.1117  0.5832
   25MOL   C27011838   3.124   1.149   2.388  0.6167  0.7200 -0.7217
   25MOL   O27111839   3.095   1.284   2.415  0.0146  0.3936  0.0363
   25MOL   C27211840   3.124   1.323   2.540 -0.1644  0.6153  0.1800
   25MOL   O27311841   3.175   1.256   2.631  0.4293  0.4576  0.4161
   25MOL   C27411842   3.092   1.470   2.542  0.2272  0.0930 -0.0207
   25MOL   C27511843   3.180   1.557   2.451 -0.5677  0.0859 -0.2118
   25MOL   C27611844   3.318   1.588   2.516  0.9044  0.4799 -0.4967
   25MOL   O27711845   3.420   1.532   2.475 -0.6154 -0.3157 -0.1458
   25MOL   H27811846   2.686   1.026   2.359  1.0595 -0.9933 -1.0849
   25MOL   H27911847   2.756   1.082   2.513  1.1693  2.4617 -0.6536
   25MOL   H28011848   2.868   1.163   2.323 -2.4700 -0.9253  0.3395
   25MOL   H28111849   2.901   1.009   2.260 -2.5843 -0.5355  0.3362
   25MOL   H28211850   3.067   0.959   2.449  0.6669  0.0276 -1.6148
   25MOL   H28311851   2.988   1.085   2.544 -0.6077 -0.2252  0.4168
   25MOL   H28411852   3.214   1.121   2.444 -1.4771  1.0725  2.9571
   25MOL   H28511853   3.141   1.136   2.281 -1.7771  1.0308 -1.1463
   25MOL   H28611854   3.098   1.496   2.647  1.4262  2.9741 -0.7465
   25MOL   H28711855   2.989   1.495   2.513 -0.3115 -0.4293  1.3933
   25MOL   H28811856   3.200   1.524   2.349 -0.5289 -0.8912  0.1039
   25MOL   H28911857   3.124   1.650   2.451  1.5928  1.4573  1.9041
   25MOL   O29011858   3.302   1.679   2.619 -0.0269 -0.3623  0.4714
   25MOL   C29111859   3.409   1.754   2.676 -0.1888 -0.1517  0.0960
   25MOL   C29211860   3.392   1.755   2.828  0.0359  0.2493 -0.4493
   25MOL   C29311861   3.483   1.842   2.920 -0.1396  0.1703  0.3853
   25MOL   C29411862   3.430   1.853   3.064 -0.2609 -0.4089 -0.7198
   25MOL   O29511863   3.446   1.723   3.110  0.6701 -0.6402 -0.0466
   25MOL   C29611864   3.402   1.688   3.225 -0.4091  0.7928  0.4453
   25MOL   O29711865   3.338   1.762   3.300 -0.4768 -0.0108 -0.1483
   25MOL   C29811866   3.446   1.550   3.265 -0.0338 -0.1666  0.3007
   25MOL   C29911867   3.348   1.439   3.228 -0.4495  0.1837 -0.0716
   25MOL   C30011868   3.403   1.350   3.112 -0.1868 -0.2770  0.5002
   25MOL   O30111869   3.440   1.233   3.121 -0.1070 -0.1780  0.1839
   25MOL   H30211870   3.502   1.709   2.643  0.3985  1.7954 -0.9313
   25MOL   H30311871   3.415   1.853   2.631 -0.8587  0.1011  0.5524
   25MOL   H30411872   3.390   1.652   2.864  1.2863  0.9454  1.7565
   25MOL   H30511873   3.290   1.786   2.851 -0.1125 -0.0717 -0.6809
   25MOL   H30611874   3.474   1.946   2.887  0.6838 -0.0279 -0.4937
   25MOL   H30711875   3.589   1.820   2.911 -0.3272 -0.2089 -0.9864
   25MOL   H30811876   3.489   1.919   3.127  0.0571 -2.3068  1.0405
   25MOL   H30911877   3.331   1.898   3.062  0.3197  0.8861 -0.5792
   25MOL   H31011878   3.444   1.556   3.373  1.6705  0.4144  0.3176
   25MOL   H31111879   3.547   1.529   3.228  0.8570  3.5659  0.4558
   25MOL   H31211880   3.344   1.371   3.314  1.9136  0.5651  0.3504
   25MOL   H31311881   3.248   1.477   3.207 -0.6659 -1.6198 -2.5859
   25MOL   O31411882   3.404   1.423   3.002  0.1984  0.1094  0.8284
   25MOL   C31511883   3.393   1.353   2.876  0.2132 -0.3683 -0.8268
   25MOL   C31611884   3.528   1.327   2.809  0.4432 -0.0136 -0.0878
   25MOL   C31711885   3.623   1.451   2.782  0.1036 -0.3539  0.4805
   25MOL   C31811886   3.761   1.424   2.737 -0.1531 -0.0393  0.3084
   25MOL   O31911887   3.823   1.543   2.711  0.3501  0.4557  0.1684
   25MOL   C32011888   3.956   1.552   2.685 -0.5906  0.6394 -0.4087
   25MOL   O32111889   4.041   1.465   2.698 -0.0721  0.4518  0.4129
   25MOL   C32211890   3.996   1.702   2.649 -0.1080 -0.1363  0.5719
   25MOL   C32311891   3.911   1.809   2.719 -0.0285 -0.4442 -0.9338
   25MOL   C32411892   3.823   1.890   2.620  0.8175  0.2446  0.0226
   25MOL   O32511893   3.704   1.869   2.613 -0.0998  0.2050  0.7096
   25MOL   H32611894   3.348   1.254   2.884  0.5118 -0.7296 -3.2105
   25MOL   H32711895   3.329   1.414   2.812 -0.7360  1.1789  1.5339
   25MOL   H32811896   3.510   1.286   2.710  1.0534 -0.2556 -0.1021
   25MOL   H32911897   3.583   1.255   2.870  1.8361 -0.9941 -2.4246
   25MOL   H33011898   3.625   1.507   2.876  0.5916 -3.6434  2.4928
   25MOL   H33111899   3.580   1.508   2.699  3.7877 -0.3967 -1.5645
   25MOL   H33211900   3.812   1.368   2.815  0.7167  1.3157  0.7238
   25MOL   H33311901   3.762   1.357   2.650 -2.9041 -1.8538  1.6064
   25MOL   H33411902   3.997   1.709   2.540  0.4260 -1.2340  0.5019
   25MOL   H33511903   4.098   1.733   2.669 -0.3536 -0.3606  2.2268
   25MOL   H33611904   3.865   1.771   2.811  0.2074  1.6370  0.0606
   25MOL   H33711905   3.988   1.879   2.751  0.2028 -1.0933 -0.0484
   25MOL   O33811906   3.889   1.988   2.556 -0.0706  0.2987  0.0922
   25MOL   C33911907   3.821   2.079   2.463  0.4811  0.1205  0.5028
   25MOL   C34011908   3.770   2.203   2.542 -0.3316 -0.2837  0.9350
   25MOL   C34111909   3.892   2.288   2.591 -0.0599 -0.1944  0.3244
   25MOL   C34211910   3.854   2.393   2.699 -0.3803  0.4741 -0.5480
   25MOL   O34311911   3.982   2.440   2.752  0.4188 -0.4058 -0.3407
   25MOL   C34411912   3.982   2.562   2.817  0.2303  0.2805  0.0859
   25MOL   O34511913   3.895   2.644   2.827 -0.2635 -0.0632 -0.2868
   25MOL   C34611914   4.113   2.580   2.891  0.4602  0.2031 -0.0098
   25MOL   C34711915   4.139   2.467   2.996  0.0391  0.6238  0.3976
   25MOL   C34811916   4.280   2.470   3.058  0.1027  0.3145 -0.2316
   25MOL   O34911917   4.305   2.482   3.182  0.2783 -0.4659  0.2581
   25MOL   H35011918   3.895   2.107   2.388  2.5514 -0.4700  2.2601
   25MOL   H35111919   3.748   2.024   2.403 -0.6777  1.0308  1.0599
   25MOL   H35211920   3.701   2.176   2.622 -0.3251 -2.2335  0.3013
   25MOL   H35311921   3.717   2.258   2.463  1.5144 -0.4777 -0.4885
   25MOL   H35411922   3.952   2.326   2.508  1.7315 -2.5806  0.4708
   25MOL   H35511923   3.961   2.215   2.631 -0.7701 -0.2191  1.5204
   25MOL   H35611924   3.787   2.475   2.672  1.5870  1.8156 -1.4774
   25MOL   H35711925   3.801   2.335   2.774  0.9758  0.6698  0.5957
   25MOL   H35811926   4.112   2.684   2.926 -1.9184  1.6549 -4.0638
   25MOL   H35911927   4.181   2.568   2.807 -0.7570 -0.5607 -0.8993
   25MOL   H36011928   4.063   2.485   3.072  0.5164  1.1642  0.7435
   25MOL   H36111929   4.121   2.368   2.953  1.4934  0.3237  0.4521
   25MOL   O36211930   4.373   2.460   2.970 -0.1484  0.4417  0.8512
   25MOL   C36311931   4.507   2.417   3.004  0.2853  0.0484  0.4352
   25MOL   C36411932   4.555   2.297   2.918 -0.3108  0.7214  0.3717
   25MOL   C36511933   4.678   2.228   2.973 -1.0299  0.0851  0.0712
   25MOL   C36611934   4.730   2.133   2.863 -0.2593 -0.2496  0.6579
   25MOL   O36711935   4.642   2.022   2.847  0.0198 -0.1870  0.0567
   25MOL   C36811936   4.598   1.990   2.719  0.4674  0.0998  0.0847
   25MOL   O36911937   4.636   2.048   2.615 -0.7208  1.2238 -0.1185
   25MOL   C37011938   4.508   1.866   2.722  0.7266  0.2622  0.3428
   25MOL   C37111939   4.364   1.903   2.755  0.5504  0.2504 -0.0707
   25MOL   C37211940   4.305   2.008   2.659 -0.5749  0.1679  0.4250
   25MOL   O37311941   4.270   1.976   2.551  0.7249  0.1383 -0.3816
   25MOL   H37411942   4.567   2.506   2.987 -2.2615  1.3310 -2.3279
   25MOL   H37511943   4.514   2.386   3.108 -1.9443  0.6705  0.8068
   25MOL   H37611944   4.582   2.328   2.817 -2.8973  2.8377  0.2989
   25MOL   H37711945   4.476   2.223   2.903  0.8834 -0.6220  0.5579
   25MOL   H37811946   4.664   2.158   3.055 -0.5381 -0.3493 -0.2129
   25MOL   H37911947   4.751   2.303   3.005 -1.6935  1.1922 -0.9814
   25MOL   H38011948   4.746   2.191   2.772 -1.5180  1.1793  1.3347
   25MOL   H38111949   4.830   2.099   2.888  0.3397  0.7902 -0.2717
   25MOL   H38211950   4.547   1.800   2.799  1.5753  1.6149  1.1080
   25MOL   H38311951   4.510   1.817   2.625  0.0620  2.3421 -0.7516
   25MOL   H38411952   4.296   1.818   2.750  0.5456  0.2222  0.4104
   25MOL   H38511953   4.354   1.948   2.854 -1.2281  1.4745 -0.7748
   25MOL   O38611954   4.300   2.133   2.715 -0.4341 -0.5569  0.3145
   25MOL   C38711955   4.270   2.245   2.635 -0.2282 -0.4511  0.0707
   25MOL   C38811956   4.378   2.266   2.529 -0.0763  0.6320 -0.4217
   25MOL   C38911957   4.388   2.410   2.464  0.9025 -0.5275  0.7131
   25MOL   C39011958   4.421   2.522   2.558 -1.0158  0.6957 -0.8129
   25MOL   O39111959   4.550   2.505   2.612  0.1991  0.3271  0.1896
   25MOL   C39211960   4.649   2.575   2.562 -0.0676  0.6161 -0.7637
   25MOL   O39311961   4.637   2.677   2.493 -0.5912 -0.2075  0.1204
   25MOL   C39411962   4.789   2.526   2.594 -0.9649 -0.0637  0.0273
   25MOL   C39511963   4.893   2.634   2.641 -0.3279  0.4874 -0.1443
   25MOL   C39611964   5.006   2.626   2.536  1.0900 -0.4814 -0.4219
   25MOL   O39711965   5.001   2.691   2.436 -0.2360  0.5492  0.5444
   25MOL   H39811966   4.172   2.235   2.589 -0.6863  0.6110  0.8234
   25MOL   H39911967   4.277   2.327   2.705 -0.5077 -1.1674  0.9428
   25MOL   H40011968   4.359   2.203   2.442 -0.9880 -2.0734  1.6854
   25MOL   H40111969   4.476   2.231   2.561 -0.3501 -1.3036 -1.6431
   25MOL   H40211970   4.298   2.436   2.409  2.1770  0.4242 -0.9797
   25MOL   H40311971   4.468   2.408   2.390  1.8980 -1.4906  1.7938
   25MOL   H40411972   4.414   2.614   2.501 -1.6181  1.4158  0.4137
   25MOL   H40511973   4.338   2.534   2.628 -1.2053  4.1166 -1.5774
   25MOL   H40611974   4.818   2.468   2.506 -2.7679 -0.8883 -0.0416
   25MOL   H40711975   4.791   2.445   2.667  0.6291  0.1959  0.2909
   25MOL   H40811976   4.854   2.736   2.642 -2.0434 -0.1483 -1.1007
   25MOL   H40911977   4.918   2.611   2.745  0.4451  2.2796  0.0947
   25MOL   O41011978   5.103   2.536   2.571  0.1420 -0.0352  0.0652
   25MOL   C41111979   5.232   2.556   2.502  0.1271 -0.1130  0.0307
   25MOL   C41211980   5.345   2.464   2.548 -0.2612 -0.1709 -1.2921
   25MOL   C41311981   5.399   2.495   2.691 -0.0616  0.3505  0.3662
   25MOL   C41411982   5.493   2.386   2.750 -0.0939 -0.5289 -0.1742
   25MOL   O41511983   5.435   2.264   2.782 -0.1913 -0.0776 -0.3725
   25MOL   C41611984   5.517   2.151   2.781 -0.2009 -0.1245  0.1218
   25MOL   O41711985   5.639   2.149   2.754  0.1785 -0.3464 -0.2140
   25MOL   C41811986   5.446   2.029   2.834 -0.2145 -0.4801  0.3709
   25MOL   C41911987   5.550   1.916   2.852  0.2622  0.3334  0.3645
   25MOL   C42011988   5.578   1.890   3.001 -0.2317 -0.0904  1.2249
   25MOL   O42111989   5.568   1.983   3.082  0.2846  0.4178 -0.0828
   25MOL   H42211990   5.225   2.533   2.395  0.2764 -2.1344  0.4221
   25MOL   H42311991   5.259   2.661   2.501 -2.3325  0.5333  0.1421
   25MOL   H42411992   5.417   2.457   2.466  1.1704  0.7880 -0.1439
   25MOL   H42511993   5.311   2.360   2.551 -0.8420  0.0436 -0.4525
   25MOL   H42611994   5.329   2.535   2.765 -0.6300 -0.1976  0.1296
   25MOL   H42711995   5.453   2.586   2.665 -1.4625  1.5811  1.6579
   25MOL   H42811996   5.576   2.371   2.681  0.6776 -1.2439  0.8949
   25MOL   H42911997   5.538   2.429   2.840  0.1311  0.3804 -0.7202
   25MOL   H43011998   5.369   1.998   2.764 -0.4239  3.3525 -1.2573
   25MOL   H43111999   5.404   2.065   2.928 -2.6974  1.7057 -1.4787
   25MOL   H43212000   5.485   1.833   2.825  0.2205  0.6060 -0.3935
   25MOL   H43312001   5.636   1.923   2.786 -0.2611  0.5766 -0.3035
   25MOL   O43412002   5.642   1.779   3.023 -0.2287  0.0589  0.2024
   25MOL   C43512003   5.651   1.738   3.157 -0.2115 -0.4066 -0.0387
   25MOL   C43612004   5.747   1.618   3.159 -0.6847  0.2267  1.3313
   25MOL   C43712005   5.824   1.611   3.286  0.4203  0.2767  0.0806
   25MOL   C43812006   5.900   1.475   3.301 -0.3498  0.0436  0.0851
   25MOL   O43912007   5.983   1.449   3.189 -0.0729 -0.1951 -1.1787
   25MOL   C44012008   6.114   1.489   3.189  0.9914  0.4230 -0.5655
   25MOL   O44112009   6.181   1.527   3.291 -0.1020  0.3898  0.2958
   25MOL   C44212010   6.170   1.465   3.053  0.0345  0.4567 -0.0398
   25MOL   C44312011   6.264   1.571   3.016 -0.3062 -0.5108  0.3512
   25MOL   C44412012   6.408   1.525   3.031  0.0369  0.1548  0.0016
   25MOL   O44512013   6.471   1.475   2.936  0.0786  0.1312  0.3091
   25MOL   H44612014   5.670   1.822   3.224 -1.5997 -0.0781 -0.0315
   25MOL   H44712015   5.550   1.702   3.179  0.4279 -2.5027 -0.3920
   25MOL   H44812016   5.819   1.622   3.078 -1.0350 -0.9980  0.9516
   25MOL   H44912017   5.698   1.523   3.143 -1.4090  0.4156  2.3648
   25MOL   H45012018   5.749   1.604   3.364 -0.5741  0.2028 -0.8588
   25MOL   H45112019   5.889   1.698   3.285 -1.2716  1.5519 -0.2551
   25MOL   H45212020   5.946   1.447   3.396  1.3202 -4.2166 -1.8709
   25MOL   H45312021   5.819   1.401   3.300  1.3397 -1.8498 -0.5341
   25MOL   H45412022   6.090   1.464   2.979  0.0393 -1.9564 -0.0637
   25MOL   H45512023   6.215   1.365   3.050  0.1369  0.5326 -1.1509
   25MOL   H45612024   6.252   1.607   2.913 -2.2254  1.6599  1.2927
   25MOL   H45712025   6.237   1.659   3.074  1.4020  0.3112 -0.0491
   25MOL   O45812026   6.452   1.532   3.153 -0.8304  0.3948 -0.0271
   25MOL   C45912027   6.591   1.523   3.172 -0.2892 -0.3215  0.7624
   25MOL   C46012028   6.633   1.637   3.266 -0.4337 -0.8658  0.3225
   25MOL   C46112029   6.568   1.610   3.407  0.5525 -0.5600  0.5803
   25MOL   C46212030   6.636   1.677   3.528 -0.4346 -0.0345 -0.3185
   25MOL   O46312031   6.650   1.815   3.506  0.3270 -0.4768  0.6358
   25MOL   C46412032   6.714   1.899   3.594  0.3179 -0.8146  0.2428
   25MOL   O46512033   6.772   1.859   3.689  0.1409  0.0409 -0.1525
   25MOL   C46612034   6.688   2.044   3.563  0.0865  0.0869 -0.1902
   25MOL   C46712035   6.558   2.081   3.643 -0.2096  0.3893  0.0779
   25MOL   C46812036   6.422   2.078   3.564  0.0744 -0.5937  0.3027
   25MOL   O46912037   6.427   2.080   3.439 -0.2103 -0.2433 -0.4180
   25MOL   H47012038   6.607   1.426   3.217 -1.0126 -0.5827  0.4752
   25MOL   H47112039   6.647   1.532   3.078 -0.4010  1.8239  0.8671
   25MOL   H47212040   6.606   1.735   3.227  0.0394 -0.9701 -0.2875
   25MOL   H47312041   6.742   1.629   3.273 -0.1223  0.9426 -1.8823
   25MOL   H47412042   6.565   1.502   3.427  0.1673 -0.3948  1.4196
   25MOL   H47512043   6.462   1.633   3.405  0.5855 -0.4745 -0.1815
   25MOL   H47612044   6.574   1.668   3.618 -0.4417 -0.3031 -0.3505
   25MOL   H47712045   6.734   1.639   3.559 -0.1531  0.3781 -0.6900
   25MOL   H47812046   6.694   2.057   3.455  1.0088 -0.6190 -0.2268
   25MOL   H47912047   6.777   2.102   3.587  1.1254 -1.1725 -0.8785
   25MOL   H48012048   6.551   2.014   3.729  0.5206 -0.7936 -0.7777
   25MOL   H48112049   6.569   2.184   3.677  3.5276 -0.0694  0.4206
   25MOL   H48212050   6.335   2.071   3.629 -0.7813  1.2244 -0.5749
   26MOL     O112051   0.349   0.460   5.495  0.6206 -0.6203  0.0583
   26MOL     C212052   0.357   0.455   5.631 -0.6433  0.3497 -0.0163
   26MOL     C312053   0.365   0.599   5.687  0.0052  0.0330 -0.4998
   26MOL     C412054   0.490   0.679   5.639  0.8374  0.2704 -0.5706
   26MOL     C512055   0.514   0.787   5.736  0.2418 -0.1099  0.3852
   26MOL     O612056   0.604   0.738   5.835  0.0733 -0.1701 -0.0896
   26MOL     C712057   0.555   0.723   5.962 -0.1689  0.1918 -0.2634
   26MOL     O812058   0.447   0.764   5.996 -0.1340  0.0847 -0.6059
   26MOL     C912059   0.644   0.650   6.055  0.0823 -0.0534 -0.4353
   26MOL    C1012060   0.629   0.680   6.205 -0.1510  0.1223  0.0062
   26MOL    C1112061   0.545   0.575   6.275 -0.3791 -0.5558  0.2942
   26MOL    O1212062   0.528   0.461   6.232  0.2644 -0.1491  0.9598
   26MOL    H1312063   0.266   0.400   5.657 -1.2784  1.2351 -0.3393
   26MOL    H1412064   0.437   0.396   5.676 -0.2870  1.6924  1.1238
   26MOL    H1512065   0.370   0.584   5.795 -0.8316 -0.2264 -0.4914
   26MOL    H1612066   0.272   0.655   5.679  0.1808  0.7742  2.0987
   26MOL    H1712067   0.459   0.720   5.543 -1.1038  1.5464  0.5741
   26MOL    H1812068   0.580   0.617   5.639 -0.0016 -0.9638 -0.3664
   26MOL    H1912069   0.574   0.869   5.698 -0.6324  1.1046  1.6184
   26MOL    H2012070   0.420   0.819   5.781  1.5890  0.4979  2.8329
   26MOL    H2112071   0.745   0.669   6.017 -0.7499  1.9277 -1.7510
   26MOL    H2212072   0.634   0.543   6.034 -1.2724  0.4122 -2.2937
   26MOL    H2312073   0.730   0.681   6.247 -1.2846 -1.8488  2.9681
   26MOL    H2412074   0.603   0.780   6.237  1.7417  1.7421 -3.3103
   26MOL    H2512075   0.329   0.374   5.462  0.2248 -0.5347  0.0750
   26MOL    O2612076   0.491   0.626   6.384 -0.1285  0.1204 -0.7888
   26MOL    C2712077   0.387   0.561   6.455  0.3846  0.1983  0.6369
   26MOL    C2812078   0.248   0.602   6.432 -0.2671 -0.4565  1.1204
   26MOL    C2912079   0.188   0.590   6.296  0.0357  0.6235  0.9820
   26MOL    C3012080   0.163   0.443   6.264  0.3307  0.1192 -0.1117
   26MOL    O3112081   0.114   0.381   6.383  0.2024  0.7289  0.3364
   26MOL    C3212082   0.008   0.292   6.375 -0.7379 -0.5433 -0.7662
   26MOL    O3312083   7.830   0.261   6.270 -0.6428 -0.3735 -0.0135
   26MOL    C3412084   7.848   0.231   6.507  0.5039 -1.0049  0.0185
   26MOL    C3512085   7.795   0.338   6.605  1.2267  0.1420  0.2448
   26MOL    C3612086   7.717   0.277   6.721  0.3557  0.1883  0.1152
   26MOL    O3712087   7.655   0.171   6.721 -0.5722  0.0042 -0.2015
   26MOL    H3812088   0.376   0.456   6.429  2.0492  0.3827 -0.8850
   26MOL    H3912089   0.409   0.565   6.562  1.2110  0.9347  0.4435
   26MOL    H4012090   0.232   0.705   6.464 -0.8900 -0.0818 -0.3208
   26MOL    H4112091   0.177   0.571   6.509 -0.6948  0.2872  1.0335
   26MOL    H4212092   0.247   0.633   6.215 -1.6874 -1.5402 -1.5165
   26MOL    H4312093   0.097   0.650   6.289 -0.1380  0.3342  0.7593
   26MOL    H4412094   0.084   0.428   6.191  0.1721 -0.3617  0.1511
   26MOL    H4512095   0.254   0.390   6.235  1.4706  1.4440  0.9835
   26MOL    H4612096   0.060   0.174   6.539 -0.2816 -1.4980  1.3113
   26MOL    H4712097   7.770   0.157   6.490 -1.7331  1.7165 -2.2409
   26MOL    H4812098   0.011   0.381   6.647  1.4341 -1.5201  1.5921
   26MOL    H4912099   7.742   0.422   6.561  2.1395  1.5737  1.7798
   26MOL    O5012100   7.713   0.362   6.818 -0.2551  0.1618 -0.2219
   26MOL    C5112101   7.644   0.337   6.932  0.5344 -0.4666  0.4079
   26MOL    C5212102   7.690   0.436   7.035  0.5515 -0.2220  0.0175
   26MOL    C5312103   7.650   0.587   7.015 -0.2735 -0.1684  0.2841
   26MOL    C5412104   7.727   0.681   7.115 -0.1646  0.7704  0.2829
   26MOL    O5512105   7.864   0.681   7.089  0.4528  0.6181  0.4603
   26MOL    C5612106   0.041   0.771   7.005 -0.7314  0.5687  0.1443
   26MOL    O5712107   7.848   0.860   6.954  0.1951 -0.6355 -0.0956
   26MOL    C5812108   0.189   0.747   6.978 -0.1616 -0.6700  0.0645
   26MOL    C5912109   0.221   0.606   6.927  0.3899 -0.8541 -0.4093
   26MOL    C6012110   0.356   0.558   6.988 -0.5337  0.2617  0.4342
   26MOL    O6112111   0.368   0.451   7.055 -0.1997 -0.9306  0.0681
   26MOL    H6212112   7.539   0.357   6.910  0.5739  0.5767  1.1025
   26MOL    H6312113   7.655   0.236   6.972 -0.6242 -0.0692  1.7786
   26MOL    H6412114   7.799   0.439   7.046  1.1267 -0.8224 -4.5735
   26MOL    H6512115   7.651   0.411   7.134 -1.0867  0.0661 -0.5370
   26MOL    H6612116   7.542   0.593   7.010 -0.4198 -1.0955  1.8696
   26MOL    H6712117   7.678   0.607   6.911 -0.9644 -1.2254 -0.1116
   26MOL    H6812118   7.701   0.787   7.107  0.3612  1.1383  3.1309
   26MOL    H6912119   7.703   0.660   7.219  0.2903 -0.4787  0.1396
   26MOL    H7012120   0.242   0.772   7.069  2.6608 -1.6104 -1.2684
   26MOL    H7112121   0.211   0.819   6.899 -2.0896 -0.3390 -0.2049
   26MOL    H7212122   0.151   0.528   6.956  0.6143 -0.7394  0.4644
   26MOL    H7312123   0.242   0.610   6.820  0.5327 -0.8321 -0.3815
   26MOL    O7412124   0.459   0.634   6.952 -0.4664  0.1270 -0.1936
   26MOL    C7512125   0.582   0.595   6.999 -0.1855 -0.6501 -0.8929
   26MOL    C7612126   0.694   0.678   6.935 -0.7376  0.9902  0.0430
   26MOL    C7712127   0.695   0.824   6.985  0.0064  0.3281 -0.2710
   26MOL    C7812128   0.617   0.927   6.902  0.2031  0.1463  0.2390
   26MOL    O7912129   0.661   0.936   6.774  0.5565 -0.5894  0.4519
   26MOL    C8012130   0.588   0.905   6.663 -0.9221  0.1346 -0.5503
   26MOL    O8112131   0.482   0.849   6.653  0.5517  0.0904  0.0718
   26MOL    C8212132   0.665   0.957   6.536  0.4881 -0.2121 -0.6630
   26MOL    C8312133   0.616   1.103   6.510 -0.3937  0.0021 -0.4048
   26MOL    C8412134   0.678   1.171   6.393  0.1098  0.2504 -0.7071
   26MOL    O8512135   0.739   1.278   6.405 -0.2785 -0.1721 -0.0422
   26MOL    H8612136   0.578   0.611   7.106 -1.1970 -0.1240 -1.0018
   26MOL    H8712137   0.605   0.495   6.962  1.3332  0.1699 -2.2128
   26MOL    H8812138   0.684   0.684   6.826  0.6297  0.1123 -0.1482
   26MOL    H8912139   0.793   0.640   6.958  0.1626  2.2385 -1.5777
   26MOL    H9012140   0.799   0.855   6.979 -0.0740  0.1415 -3.5013
   26MOL    H9112141   0.662   0.831   7.088  0.4808 -1.1489 -0.0025
   26MOL    H9212142   0.511   0.906   6.908  0.7032 -1.8227  3.8073
   26MOL    H9312143   0.648   1.016   6.957  1.3873 -0.1615  0.0912
   26MOL    H9412144   0.631   0.897   6.451  2.1107 -1.1388 -0.6749
   26MOL    H9512145   0.773   0.949   6.542  0.2946 -3.0300 -0.2696
   26MOL    H9612146   0.508   1.103   6.499 -0.2622  2.5985 -1.9549
   26MOL    H9712147   0.644   1.162   6.597 -0.3233 -0.7535  0.0986
   26MOL    O9812148   0.636   1.108   6.285 -0.2867 -0.1286 -0.1085
   26MOL    C9912149   0.714   1.109   6.172  0.5430 -0.2127 -1.1012
   26MOL   C10012150   0.685   1.232   6.088 -0.2859 -0.3288  0.4494
   26MOL   C10112151   0.555   1.218   6.005  0.0462  0.4043  1.0482
   26MOL   C10212152   0.554   1.098   5.905 -0.6943 -0.1746 -0.1815
   26MOL   O10312153   0.628   1.115   5.788 -0.0166 -0.1538 -0.6138
   26MOL   C10412154   0.753   1.077   5.767 -0.2677  0.0831 -0.0423
   26MOL   O10512155   0.818   1.000   5.834 -0.0880  0.4287  0.7748
   26MOL   C10612156   0.833   1.143   5.656  0.0772 -0.3572 -0.6462
   26MOL   C10712157   0.935   1.258   5.695 -0.2968 -0.0950 -0.0480
   26MOL   C10812158   0.967   1.341   5.575 -0.5613 -0.1519  0.0505
   26MOL   O10912159   0.946   1.465   5.575 -0.1552 -0.2634 -0.4416
   26MOL   H11012160   0.821   1.105   6.192  0.8674 -0.2004 -2.7443
   26MOL   H11112161   0.690   1.018   6.117 -2.8584  1.8681 -3.2926
   26MOL   H11212162   0.769   1.240   6.018 -0.5807 -0.9964  0.0231
   26MOL   H11312163   0.679   1.319   6.154  5.5067 -0.3255  1.2685
   26MOL   H11412164   0.533   1.310   5.952  1.2221 -0.0388 -0.2187
   26MOL   H11512165   0.471   1.197   6.071 -0.2418 -2.1416 -0.0454
   26MOL   H11612166   0.566   1.007   5.964  0.2926  0.2222  0.2440
   26MOL   H11712167   0.451   1.088   5.871 -1.1107  0.7012  0.8170
   26MOL   H11812168   0.761   1.193   5.591  0.4572 -1.3132 -1.8261
   26MOL   H11912169   0.888   1.071   5.595  1.5909  0.7532 -0.6101
   26MOL   H12012170   0.908   1.323   5.778  0.7540 -0.5240  0.6443
   26MOL   H12112171   1.031   1.207   5.703 -0.8854 -1.9044 -3.3941
   26MOL   O12212172   0.992   1.270   5.466  0.2199 -0.1888  0.1628
   26MOL   C12312173   0.998   1.328   5.338  0.0456  0.2832 -0.0790
   26MOL   C12412174   0.868   1.350   5.266 -0.5134 -0.1351  0.7587
   26MOL   C12512175   0.818   1.213   5.224  0.2355  0.5249  1.1763
   26MOL   C12612176   0.679   1.216   5.162 -0.3723  0.3599 -0.0571
   26MOL   O12712177   0.638   1.088   5.118  0.7273 -0.3678 -0.0873
   26MOL   C12812178   0.593   1.003   5.213 -0.4534 -0.0910 -0.1026
   26MOL   O12912179   0.609   1.013   5.333 -0.9881  0.0269  0.3509
   26MOL   C13012180   0.538   0.879   5.154 -0.1120  0.9102 -0.6479
   26MOL   C13112181   0.481   0.792   5.261  0.2108  1.8762 -0.4543
   26MOL   C13212182   0.325   0.782   5.258  0.2049 -0.1900  0.1677
   26MOL   O13312183   0.253   0.862   5.322 -0.7019 -0.4367 -0.4393
   26MOL   H13412184   1.055   1.421   5.343 -0.2921  0.5168 -0.6018
   26MOL   H13512185   1.068   1.280   5.270 -1.9593 -0.9038 -1.3191
   26MOL   H13612186   0.891   1.416   5.182  0.9070 -0.1989  1.0922
   26MOL   H13712187   0.807   1.401   5.340 -2.1486  0.6316 -1.0676
   26MOL   H13812188   0.818   1.148   5.311  0.4120  0.6125  1.2409
   26MOL   H13912189   0.883   1.165   5.151 -0.0911  2.2296 -0.2934
   26MOL   H14012190   0.607   1.252   5.237 -0.3000 -0.3074  0.3374
   26MOL   H14112191   0.679   1.280   5.075  1.2933 -1.3302 -1.3241
   26MOL   H14212192   0.624   0.829   5.108 -1.0446 -0.6192 -0.7896
   26MOL   H14312193   0.468   0.892   5.072 -0.3446  2.3266 -0.2347
   26MOL   H14412194   0.508   0.688   5.246 -2.4392  0.7765  2.0247
   26MOL   H14512195   0.508   0.811   5.365 -0.7006  1.3338 -0.1157
   26MOL   O14612196   0.282   0.693   5.169 -0.2076  0.3582  0.0047
   26MOL   C14712197   0.140   0.680   5.147 -0.0020  0.0312 -0.0820
   26MOL   C14812198   0.110   0.545   5.087  0.1481  0.1533 -0.1032
   26MOL   C14912199   0.159   0.433   5.186  0.0961  0.2973  0.1836
   26MOL   C15012200   0.093   0.302   5.143 -0.1553  0.8487 -0.4690
   26MOL   O15112201   0.169   0.248   5.040 -0.3844 -0.9419 -0.0195
   26MOL   C15212202   0.265   0.157   5.057 -0.4003  0.6043 -0.4072
   26MOL   O15312203   0.302   0.110   5.160 -0.0283 -0.0410 -0.0034
   26MOL   C15412204   0.327   0.111   4.925  0.4215  0.0950 -0.0376
   26MOL   C15512205   0.395   0.219   4.842 -0.2873 -0.2284  0.0553
   26MOL   C15612206   0.541   0.219   4.878 -0.4406 -0.3791  0.5475
   26MOL   O15712207   0.628   0.176   4.807 -0.1567  0.2390 -0.0683
   26MOL   H15812208   0.082   0.703   5.236  0.4568  2.2877 -0.3157
   26MOL   H15912209   0.105   0.752   5.072 -0.2826 -0.8525 -0.8027
   26MOL   H16012210   0.163   0.538   4.992 -2.1604 -0.0136 -1.4245
   26MOL   H16112211   0.003   0.541   5.066  0.3292  1.0675 -1.2794
   26MOL   H16212212   0.145   0.462   5.290 -2.2371  0.4941 -0.1539
   26MOL   H16312213   0.267   0.423   5.190  0.2161  0.8024 -1.3636
   26MOL   H16412214   0.083   0.236   5.230 -0.2200  0.2165 -0.9496
   26MOL   H16512215   7.867   0.320   5.105 -0.9900  0.2597  1.4016
   26MOL   H16612216   0.237   0.080   4.874 -0.7009  1.8435  0.8443
   26MOL   H16712217   0.378   0.015   4.936 -0.4398 -0.3810 -0.1487
   26MOL   H16812218   0.398   0.188   4.737 -1.7364 -0.4840  0.0815
   26MOL   H16912219   0.344   0.314   4.829 -2.7880 -1.7939 -2.1981
   26MOL   O17012220   0.558   0.265   5.004  0.2587  0.2049  0.3202
   26MOL   C17112221   0.690   0.300   5.046 -1.1379 -0.0276 -0.3381
   26MOL   C17212222   0.655   0.410   5.142 -0.4749 -0.5056 -0.0717
   26MOL   C17312223   0.778   0.455   5.222 -0.4604 -0.0094  0.0416
   26MOL   C17412224   0.883   0.522   5.135 -0.0978  0.4979 -0.1677
   26MOL   O17512225   0.858   0.653   5.094 -0.1879 -0.0408 -0.3133
   26MOL   C17612226   0.958   0.731   5.039 -0.5977 -0.3549  0.6804
   26MOL   O17712227   1.074   0.692   5.018  0.1843  0.1310  0.2550
   26MOL   C17812228   0.904   0.871   4.991 -0.2301  0.0809  0.1543
   26MOL   C17912229   1.009   0.952   4.911 -0.5375  0.0233  0.1863
   26MOL   C18012230   0.950   1.010   4.783 -0.0496 -0.1049 -0.4829
   26MOL   O18112231   1.020   1.035   4.685 -0.0692  0.2535  0.3701
   26MOL   H18212232   0.737   0.215   5.096  0.2947 -0.0438 -1.6649
   26MOL   H18312233   0.754   0.338   4.967  0.6531 -2.3903 -0.0848
   26MOL   H18412234   0.582   0.380   5.216 -0.8996  0.1534 -0.2261
   26MOL   H18512235   0.621   0.497   5.086  2.1124 -0.8730 -2.3246
   26MOL   H18612236   0.830   0.367   5.261  1.5174  0.5526 -1.2108
   26MOL   H18712237   0.766   0.525   5.305  0.5109 -1.0783  1.0986
   26MOL   H18812238   0.979   0.529   5.187 -1.5013  0.2525  2.5307
   26MOL   H18912239   0.890   0.461   5.046 -3.6012 -1.6073  0.9249
   26MOL   H19012240   0.889   0.935   5.078 -1.4998  0.2108 -0.1538
   26MOL   H19112241   0.810   0.856   4.939  0.1904  1.5120 -1.0288
   26MOL   H19212242   1.033   1.041   4.970 -1.5888  0.1028  0.5079
   26MOL   H19312243   1.100   0.894   4.895 -1.4226 -1.4105  0.3627
   26MOL   O19412244   0.821   1.037   4.793  0.2087  0.4581  0.1013
   26MOL   C19512245   0.750   1.087   4.681  0.2517 -0.1631  0.1735
   26MOL   C19612246   0.700   1.222   4.701  0.5215  0.4653 -0.5601
   26MOL   C19712247   0.808   1.333   4.704 -0.0409 -0.1592  0.2315
   26MOL   C19812248   0.751   1.462   4.775 -0.0059  0.6886  0.5249
   26MOL   O19912249   0.854   1.565   4.771 -0.1293 -0.9261 -0.1790
   26MOL   C20012250   0.817   1.702   4.801  0.5465 -0.2980 -0.1234
   26MOL   O20112251   0.704   1.730   4.839  0.2335 -0.4603  0.8293
   26MOL   C20212252   0.915   1.812   4.763 -0.0347 -0.0645  0.2069
   26MOL   C20312253   0.858   1.953   4.739 -0.9363  1.1289 -0.1886
   26MOL   C20412254   0.848   2.025   4.876  0.4836  0.5021  0.2392
   26MOL   O20512255   0.942   2.036   4.954 -0.0871  0.9697 -0.1903
   26MOL   H20612256   0.800   1.085   4.585  1.5611  2.0183  0.7785
   26MOL   H20712257   0.665   1.022   4.660 -0.9204  2.2967 -3.1212
   26MOL   H20812258   0.653   1.214   4.799  0.5049 -0.9817 -0.6752
   26MOL   H20912259   0.621   1.240   4.629 -1.3201 -0.8520  1.0625
   26MOL   H21012260   0.821   1.346   4.596  1.7826 -1.2377  0.2969
   26MOL   H21112261   0.901   1.300   4.751 -0.2533 -3.1846 -1.3096
   26MOL   H21212262   0.663   1.494   4.718 -1.1844 -0.5492  1.6110
   26MOL   H21312263   0.715   1.436   4.874 -4.1405  2.3455 -0.4239
   26MOL   H21412264   0.985   1.780   4.685  0.6805  0.3096  0.6867
   26MOL   H21512265   0.983   1.814   4.848  0.7936 -1.8234 -0.3776
   26MOL   H21612266   0.927   2.005   4.673 -0.7341  0.1053 -0.7917
   26MOL   H21712267   0.764   1.927   4.691 -2.0796  1.6457  1.6928
   26MOL   O21812268   0.721   2.056   4.918 -0.2409  0.3255  0.5072
   26MOL   C21912269   0.697   2.117   5.042 -0.3125  0.1005  0.0709
   26MOL   C22012270   0.544   2.106   5.079 -0.2970 -0.0268  0.2061
   26MOL   C22112271   0.432   2.128   4.974 -0.0952 -0.8304 -0.4926
   26MOL   C22212272   0.428   2.013   4.870 -0.2606 -0.5828 -0.6300
   26MOL   O22312273   0.331   2.051   4.766  0.2069  0.3873 -0.0951
   26MOL   C22412274   0.266   1.952   4.712  0.2969  0.5356 -0.4670
   26MOL   O22512275   0.248   1.847   4.773 -0.6613 -0.1299  0.6430
   26MOL   C22612276   0.208   1.977   4.575 -0.0976  1.1641  0.1857
   26MOL   C22712277   0.128   1.858   4.520 -0.0425 -0.4497 -0.4728
   26MOL   C22812278   0.161   1.829   4.375  0.3887  0.6536  0.7206
   26MOL   O22912279   0.254   1.756   4.351 -0.7481  0.3293 -0.1394
   26MOL   H23012280   0.760   2.066   5.115 -0.6787  0.3105  0.5409
   26MOL   H23112281   0.720   2.223   5.050 -1.1748  0.3939 -1.2553
   26MOL   H23212282   0.533   2.175   5.162 -1.1492 -0.0669  0.1318
   26MOL   H23312283   0.534   2.007   5.124  3.8679 -0.4842  0.3444
   26MOL   H23412284   0.440   2.229   4.933  0.0960 -1.0503 -1.0070
   26MOL   H23512285   0.338   2.124   5.027  0.5826 -0.8852  0.7250
   26MOL   H23612286   0.521   1.981   4.823 -0.4872 -0.2034 -1.3569
   26MOL   H23712287   0.395   1.926   4.926  1.4014 -1.1964 -0.5848
   26MOL   H23812288   0.283   2.013   4.505 -0.6365  2.2019  0.1350
   26MOL   H23912289   0.136   2.057   4.594  1.2926  1.8197  3.0288
   26MOL   H24012290   0.151   1.768   4.577 -0.2333 -0.1044  0.1638
   26MOL   H24112291   0.022   1.881   4.531  0.1783  0.2698  0.1875
   26MOL   O24212292   0.077   1.874   4.275 -0.4498 -0.0686  0.1988
   26MOL   C24312293   0.105   1.849   4.141  0.3279  0.8509  1.2149
   26MOL   C24412294   0.210   1.947   4.077  0.7354  0.0826 -0.0679
   26MOL   C24512295   0.179   2.095   4.087  0.5816  0.2380  0.5621
   26MOL   C24612296   0.284   2.180   4.015 -0.4682 -0.2818  0.1231
   26MOL   O24712297   0.273   2.322   4.016  1.1047 -0.7994 -0.0182
   26MOL   C24812298   0.374   2.398   4.057 -0.0372 -0.7076  0.4096
   26MOL   O24912299   0.490   2.385   4.039  0.0916  0.0994 -0.3187
   26MOL   C25012300   0.331   2.534   4.104 -0.6787  0.7898  0.2929
   26MOL   C25112301   0.187   2.581   4.052 -0.3849  0.6555 -0.5750
   26MOL   C25212302   0.208   2.723   3.992 -0.9950  0.6530  0.0992
   26MOL   O25312303   0.169   2.831   4.045  0.4047  0.2139  0.4268
   26MOL   H25412304   0.153   1.755   4.115 -1.8423 -0.3783  1.5193
   26MOL   H25512305   0.014   1.850   4.081 -0.5140 -0.8448  2.4407
   26MOL   H25612306   0.206   1.933   3.969 -1.3421  0.9509 -0.1105
   26MOL   H25712307   0.311   1.933   4.116  0.3176 -0.8830  0.6848
   26MOL   H25812308   0.156   2.124   4.189 -3.2547 -1.4593  0.2776
   26MOL   H25912309   0.089   2.106   4.027  0.9498 -0.2212 -0.0768
   26MOL   H26012310   0.383   2.142   4.042 -0.7578 -1.5284 -0.5145
   26MOL   H26112311   0.284   2.166   3.907  2.1082  1.5859 -0.1681
   26MOL   H26212312   0.404   2.607   4.071 -0.4995  0.6920  0.4737
   26MOL   H26312313   0.330   2.530   4.213  3.5739  1.7954  0.4205
   26MOL   H26412314   0.149   2.524   3.968 -2.6232  0.9172  0.2380
   26MOL   H26512315   0.119   2.566   4.136 -0.3623 -0.5163 -0.7623
   26MOL   O26612316   0.272   2.709   3.879 -0.0592  0.3961 -1.0339
   26MOL   C26712317   0.311   2.825   3.804  0.0476 -0.6086  1.0193
   26MOL   C26812318   0.368   2.768   3.675  0.5603 -0.3177 -0.3361
   26MOL   C26912319   0.500   2.698   3.698  0.3381  0.1514 -0.1639
   26MOL   C27012320   0.556   2.626   3.584  0.8225  0.4331  0.3975
   26MOL   O27112321   0.586   2.727   3.488 -0.0461 -0.2742 -0.3520
   26MOL   C27212322   0.629   2.697   3.359  0.1920  0.7059  0.2603
   26MOL   O27312323   0.632   2.583   3.315 -0.9721  0.9119  0.4013
   26MOL   C27412324   0.642   2.813   3.264 -0.1602 -0.0818 -0.3585
   26MOL   C27512325   0.785   2.825   3.205  0.3816 -0.7200  0.0366
   26MOL   C27612326   0.888   2.887   3.299  0.1545 -0.0229  0.1093
   26MOL   O27712327   1.002   2.912   3.252  0.3259 -0.2882 -0.1807
   26MOL   H27812328   0.221   2.878   3.771 -1.3165 -1.4951  3.1812
   26MOL   H27912329   0.389   2.886   3.849  2.0407 -1.4422 -1.1986
   26MOL   H28012330   0.377   2.852   3.606 -2.2156  1.7346  1.6694
   26MOL   H28112331   0.293   2.699   3.635 -0.8385  0.1758  1.3565
   26MOL   H28212332   0.514   2.632   3.783 -0.9453 -1.0131 -0.8564
   26MOL   H28312333   0.572   2.776   3.724 -0.8785  1.2811 -0.1631
   26MOL   H28412334   0.647   2.574   3.610  0.1687 -0.9261  0.0006
   26MOL   H28512335   0.483   2.556   3.541  0.1380  0.9961  0.6269
   26MOL   H28612336   0.611   2.905   3.314  2.1185  0.9754 -0.8230
   26MOL   H28712337   0.564   2.804   3.189  0.5870  0.3634 -1.2010
   26MOL   H28812338   0.814   2.729   3.164 -1.6706 -0.3998 -2.3110
   26MOL   H28912339   0.772   2.881   3.112 -2.9045  0.3956  1.0970
   26MOL   O29012340   0.855   2.887   3.427 -0.1723  0.2158 -0.1808
   26MOL   C29112341   0.958   2.937   3.523 -0.0733 -0.5855  0.5848
   26MOL   C29212342   0.918   2.908   3.664 -0.4939 -0.8546  0.1092
   26MOL   C29312343   0.793   2.987   3.714  0.2037  0.5632 -0.4722
   26MOL   C29412344   0.776   2.972   3.869  0.7681  0.0595 -0.3491
   26MOL   O29512345   0.722   2.851   3.899 -0.3351  0.0860  0.0671
   26MOL   C29612346   0.794   2.762   3.970 -0.1785 -0.0292 -0.8161
   26MOL   O29712347   0.908   2.788   4.015 -0.0353 -0.4986 -0.1931
   26MOL   C29812348   0.722   2.633   3.990  0.0464  0.1167  0.2048
   26MOL   C29912349   0.801   2.513   4.029  0.8207  0.5307 -0.9300
   26MOL   C30012350   0.820   2.483   4.176 -0.0141  0.2338 -0.6856
   26MOL   O30112351   0.783   2.380   4.233 -0.1873  0.1539  1.2574
   26MOL   H30212352   1.053   2.892   3.495  0.3677  0.6750  0.0147
   26MOL   H30312353   0.966   3.046   3.515 -0.0070 -0.5636  0.9459
   26MOL   H30412354   0.995   2.943   3.733 -0.3337 -1.7449  0.3775
   26MOL   H30512355   0.906   2.801   3.677  0.1818 -1.0493 -0.7783
   26MOL   H30612356   0.697   2.956   3.672 -0.4681  1.1878  0.5988
   26MOL   H30712357   0.791   3.088   3.675  0.5602  1.1437  0.9828
   26MOL   H30812358   0.870   3.008   3.911  0.0646 -0.0980  1.4175
   26MOL   H30912359   0.698   3.038   3.907 -0.8933  0.4576 -4.2859
   26MOL   H31012360   0.702   2.596   3.889  1.3868 -4.1877  1.4132
   26MOL   H31112361   0.630   2.640   4.049 -0.1356  1.4844 -0.2129
   26MOL   H31212362   0.748   2.428   3.986 -1.9855  0.6565  2.0848
   26MOL   H31312363   0.902   2.511   3.988  2.2629 -0.6493  2.5253
   26MOL   O31412364   0.867   2.583   4.245  0.0879 -0.4423 -0.5233
   26MOL   C31512365   0.868   2.578   4.387 -0.2788  0.1335  0.1378
   26MOL   C31612366   0.733   2.586   4.457  0.1770 -0.4040 -0.1023
   26MOL   C31712367   0.656   2.723   4.425 -0.5227 -0.3430 -0.2244
   26MOL   C31812368   0.531   2.728   4.506  0.3820 -0.5902 -0.1712
   26MOL   O31912369   0.473   2.861   4.483  0.0274  0.3397  0.6013
   26MOL   C32012370   0.345   2.883   4.452 -0.4145  0.0093 -0.1435
   26MOL   O32112371   0.256   2.799   4.448  0.2218  0.1930 -0.1109
   26MOL   C32212372   0.323   3.030   4.412  0.0027 -0.1933 -0.0749
   26MOL   C32312373   0.321   3.048   4.258  0.5055 -0.6029  0.2332
   26MOL   C32412374   0.444   3.122   4.199  0.7660  0.2493  0.0699
   26MOL   O32512375   0.441   3.166   4.079  0.2904  0.0947 -0.0221
   26MOL   H32612376   0.939   2.500   4.413 -3.5917 -2.4281  1.8169
   26MOL   H32712377   0.923   2.667   4.418 -0.2268  0.0749  0.2128
   26MOL   H32812378   0.747   2.578   4.564  0.8523 -1.0282 -0.2351
   26MOL   H32912379   0.667   2.501   4.440 -0.5219  0.1134 -0.0180
   26MOL   H33012380   0.625   2.727   4.321 -0.9842 -0.3566 -0.0875
   26MOL   H33112381   0.714   2.813   4.449 -1.3747  0.0828  0.2832
   26MOL   H33212382   0.466   2.649   4.468 -2.2045  1.2796  0.2337
   26MOL   H33312383   0.553   2.722   4.612 -3.1224 -1.0959  0.6010
   26MOL   H33412384   0.396   3.092   4.464  0.1943  0.4771 -1.1189
   26MOL   H33512385   0.224   3.061   4.446  1.0129  2.6061  0.4372
   26MOL   H33612386   0.316   2.953   4.205 -3.2843 -0.4247  0.1905
   26MOL   H33712387   0.226   3.098   4.247  0.0978 -1.3841  0.1687
   26MOL   O33812388   0.546   3.132   4.288  0.5288 -0.4563 -0.4071
   26MOL   C33912389   0.659   3.203   4.242 -0.0759 -0.3793 -0.9141
   26MOL   C34012390   0.779   3.119   4.201  0.7061  0.1370  0.2029
   26MOL   C34112391   0.870   3.081   4.320  0.5438  0.3290 -0.2275
   26MOL   C34212392   0.967   2.965   4.288 -0.6706 -0.8020  0.8892
   26MOL   O34312393   1.002   2.925   4.416  0.1979 -0.3058 -0.3102
   26MOL   C34412394   1.121   2.961   4.475  0.2675  0.4303 -0.0827
   26MOL   O34512395   1.215   3.017   4.420  0.3382 -0.1751  0.0387
   26MOL   C34612396   1.129   2.911   4.617  0.5989 -0.2625  0.4413
   26MOL   C34712397   1.025   2.974   4.714 -0.3677  0.0649  0.3063
   26MOL   C34812398   0.896   2.890   4.728  0.2421 -0.3630 -0.2111
   26MOL   O34912399   0.887   2.772   4.697  0.7039  0.3587 -0.7722
   26MOL   H35012400   0.640   3.264   4.154 -0.0327 -1.2953 -1.5730
   26MOL   H35112401   0.682   3.274   4.322 -2.5719  0.1488 -0.6244
   26MOL   H35212402   0.827   3.173   4.119 -1.8579 -0.0733 -1.5166
   26MOL   H35312403   0.740   3.028   4.156  0.9452 -0.1089  0.4957
   26MOL   H35412404   0.807   3.058   4.405  0.3917 -0.2753 -0.5039
   26MOL   H35512405   0.919   3.173   4.354  0.8429 -0.8136  2.4804
   26MOL   H35612406   0.919   2.883   4.235  0.0311  0.0436 -1.1018
   26MOL   H35712407   1.043   2.987   4.213  1.0394 -0.0645  2.7859
   26MOL   H35812408   1.231   2.930   4.650  0.2154  2.7623  0.0609
   26MOL   H35912409   1.112   2.804   4.611  0.6090 -0.2690  0.5367
   26MOL   H36012410   1.071   2.967   4.813  0.9531  2.1348 -0.1227
   26MOL   H36112411   0.991   3.075   4.692  1.6668  0.4790 -1.0756
   26MOL   O36212412   0.792   2.961   4.784  0.5769 -0.0702 -0.1537
   26MOL   C36312413   0.662   2.916   4.808  0.1466 -0.7190 -0.2950
   26MOL   C36412414   0.564   3.027   4.772 -0.9135  0.4910 -0.0068
   26MOL   C36512415   0.567   3.148   4.870  0.3724 -0.4108  0.0034
   26MOL   C36612416   0.442   3.241   4.875  0.0120  0.1789  0.2227
   26MOL   O36712417   0.315   3.190   4.915 -0.1169  0.5352  0.1351
   26MOL   C36812418   0.245   3.141   4.815 -0.1320 -0.0335  0.1893
   26MOL   O36912419   0.272   3.137   4.695 -0.6908  0.2215  0.2287
   26MOL   C37012420   0.120   3.075   4.872  0.1297 -0.2344  0.4476
   26MOL   C37112421   0.025   3.032   4.754 -0.8477 -0.0293  0.4574
   26MOL   C37212422   7.759   3.000   4.801 -0.2957  0.2916  0.2656
   26MOL   O37312423   7.712   2.892   4.782 -0.4880 -0.0497  0.6437
   26MOL   H37412424   0.648   2.828   4.745  1.9887 -0.7771 -0.6743
   26MOL   H37512425   0.655   2.864   4.903 -1.0919  1.3352  0.7677
   26MOL   H37612426   0.466   2.980   4.768  0.7325 -3.1088  0.1928
   26MOL   H37712427   0.592   3.055   4.670  1.1975 -1.1891  0.0557
   26MOL   H37812428   0.662   3.198   4.850  0.8917 -0.1848  2.8355
   26MOL   H37912429   0.585   3.104   4.968 -2.7607  0.0373  0.8316
   26MOL   H38012430   0.463   3.320   4.947  1.2921  2.7554 -2.8907
   26MOL   H38112431   0.435   3.300   4.784  1.0924 -0.0145  0.0066
   26MOL   H38212432   0.073   3.144   4.942 -0.7460 -0.7983  0.4271
   26MOL   H38312433   0.140   2.985   4.931  0.1387  0.2881  1.2487
   26MOL   H38412434   0.019   3.115   4.684 -0.8294  0.6234  1.2313
   26MOL   H38512435   0.051   2.946   4.692 -0.6586 -1.5208  2.5494
   26MOL   O38612436   7.696   3.095   4.878 -0.3457 -0.9230 -0.3336
   26MOL   C38712437   7.557   3.087   4.907 -0.1063  0.2028  0.6588
   26MOL   C38812438   7.507   3.207   5.001  1.0974 -0.1378  0.1309
   26MOL   C38912439   7.560   3.170   5.141 -0.1448  0.2396 -0.0496
   26MOL   C39012440   7.515   3.256   5.260 -0.1996 -0.3767  0.3342
   26MOL   O39112441   7.577   3.379   5.253 -0.2492 -0.2016  0.0950
   26MOL   C39212442   7.508   3.490   5.247  0.5706  0.0277  0.1435
   26MOL   O39312443   7.381   3.493   5.250  0.1159  0.1246 -0.5018
   26MOL   C39412444   7.605   3.598   5.222 -0.6066  0.0258  0.2442
   26MOL   C39512445   7.538   3.735   5.217  0.0000  0.6763  0.4190
   26MOL   C39612446   7.517   3.799   5.349  0.2452  0.5157 -0.4992
   26MOL   O39712447   7.570   3.762   5.457  0.1719 -0.1977 -0.1889
   26MOL   H39812448   7.502   3.098   4.815  1.1892  2.1341  0.0837
   26MOL   H39912449   7.524   2.990   4.944 -1.1382 -0.3339 -1.6470
   26MOL   H40012450   7.399   3.194   4.993  0.8533  1.5675  0.4313
   26MOL   H40112451   7.536   3.303   4.959  0.4595 -0.1938 -0.4447
   26MOL   H40212452   7.668   3.157   5.141 -0.3345 -1.6017  1.9630
   26MOL   H40312453   7.518   3.071   5.157  1.5835 -0.6307 -0.7634
   26MOL   H40412454   7.408   3.266   5.248 -0.2809 -1.3954  0.2084
   26MOL   H40512455   7.539   3.189   5.343  1.7751  1.3589  1.2269
   26MOL   H40612456   7.650   3.581   5.124 -0.7719 -0.7424  0.2988
   26MOL   H40712457   7.686   3.595   5.296 -0.3006  1.8752 -0.0035
   26MOL   H40812458   7.584   3.804   5.147 -0.6509  1.9512  1.2366
   26MOL   H40912459   7.438   3.720   5.177 -0.5385  0.5818  1.7672
   26MOL   O41012460   7.425   3.900   5.328  0.3177 -0.3876  0.1891
   26MOL   C41112461   7.394   3.986   5.434  0.3655  0.2571 -0.0438
   26MOL   C41212462   7.308   4.102   5.384 -0.3617  0.2115  0.6484
   26MOL   C41312463   7.396   4.223   5.338 -0.2239  0.4417 -0.2390
   26MOL   C41412464   7.469   4.192   5.206 -0.4833 -0.2521 -0.6452
   26MOL   O41512465   7.380   4.140   5.108  0.5804  0.8077 -0.5152
   26MOL   C41612466   7.430   4.079   4.998  0.2765  0.2817 -0.1435
   26MOL   O41712467   7.548   4.054   4.966 -0.7379 -0.6710 -0.3586
   26MOL   C41812468   7.321   4.024   4.910 -0.4055 -0.0257  0.1702
   26MOL   C41912469   7.241   3.914   4.980 -0.5678  0.1464 -0.3698
   26MOL   C42012470   7.292   3.774   4.939  0.0890  0.3018  0.9267
   26MOL   O42112471   7.393   3.757   4.872  0.4502  0.3396 -0.0708
   26MOL   H42212472   7.333   3.929   5.504 -0.1194  0.4325 -0.3188
   26MOL   H42312473   7.480   4.020   5.492 -0.1819  2.3063 -0.4119
   26MOL   H42412474   7.253   4.135   5.472  0.5471 -1.1046  1.7429
   26MOL   H42512475   7.235   4.076   5.308  0.5347  0.1361 -0.1889
   26MOL   H42612476   7.469   4.248   5.415 -0.8929 -0.2404  0.6260
   26MOL   H42712477   7.336   4.313   5.324  2.0691  1.8845 -0.9304
   26MOL   H42812478   7.516   4.283   5.168 -0.2205 -0.4390 -0.7743
   26MOL   H42912479   7.548   4.121   5.230  0.5491  1.5757  1.5108
   26MOL   H43012480   7.341   3.996   4.806 -0.4466 -0.3588  0.2533
   26MOL   H43112481   7.247   4.103   4.902 -0.6835 -0.1786  1.2552
   26MOL   H43212482   7.246   3.915   5.088  2.6125  0.6820 -0.4876
   26MOL   H43312483   7.136   3.911   4.947 -0.8818  1.2429  0.4977
   26MOL   O43412484   7.218   3.681   4.989  0.1556  0.1107  0.2724
   26MOL   C43512485   7.243   3.548   4.949  0.3865 -0.0860 -0.5332
   26MOL   C43612486   7.129   3.466   5.013 -0.4004  0.0909  0.1011
   26MOL   C43712487   6.985   3.507   4.970  0.4983 -0.0287  0.4133
   26MOL   C43812488   6.956   3.471   4.826  0.0177  0.2074  0.9645
   26MOL   O43912489   7.007   3.590   4.761 -0.3568  0.5934 -0.7519
   26MOL   C44012490   7.074   3.571   4.643 -0.2088 -0.2964 -0.5022
   26MOL   O44112491   7.087   3.466   4.578  0.3140 -0.1087 -0.4161
   26MOL   C44212492   7.158   3.695   4.602 -0.6629 -0.5897  0.0896
   26MOL   C44312493   7.309   3.657   4.585  0.0135  0.0895  0.0263
   26MOL   C44412494   7.354   3.655   4.439  0.2201 -0.5878 -0.6621
   26MOL   O44512495   7.438   3.738   4.399  0.0049  0.6797  0.2894
   26MOL   H44612496   7.243   3.543   4.840 -1.6698  1.9958 -0.6564
   26MOL   H44712497   7.339   3.514   4.988 -0.3088  0.7964  2.0832
   26MOL   H44812498   7.138   3.492   5.119  3.3033 -2.8789  0.6157
   26MOL   H44912499   7.148   3.360   5.002  1.7093  0.2005  2.3091
   26MOL   H45012500   6.979   3.612   4.999  2.0912 -0.1820  1.3883
   26MOL   H45112501   6.920   3.453   5.039  1.3524  0.6995  1.8159
   26MOL   H45212502   7.003   3.380   4.789 -0.8208 -0.1633  0.7908
   26MOL   H45312503   6.847   3.459   4.820  0.1452 -0.0754 -0.9473
   26MOL   H45412504   7.127   3.767   4.678  2.8490  2.1270 -0.9130
   26MOL   H45512505   7.103   3.739   4.519 -2.1918 -0.8633  0.9310
   26MOL   H45612506   7.366   3.725   4.648 -0.2179  0.1897  0.1270
   26MOL   H45712507   7.336   3.564   4.636  2.5607  1.1538  0.7206
   26MOL   O45812508   7.309   3.553   4.364  0.1530 -0.5139  0.2841
   26MOL   C45912509   7.333   3.559   4.225  0.0089 -0.9049  0.1152
   26MOL   C46012510   7.458   3.476   4.190 -0.2500  0.1084  0.0392
   26MOL   C46112511   7.425   3.326   4.192  0.1676 -0.3727  0.2485
   26MOL   C46212512   7.323   3.283   4.091  0.2571  0.0379  0.3525
   26MOL   O46312513   7.335   3.146   4.056 -0.2402  0.7106 -0.3106
   26MOL   C46412514   7.274   3.059   4.136 -0.2094 -0.3979 -0.3234
   26MOL   O46512515   7.222   3.079   4.244  0.0076 -0.0618  0.1084
   26MOL   C46612516   7.278   2.918   4.081 -0.5302  0.2268 -0.3746
   26MOL   C46712517   7.196   2.889   3.958  0.4361  0.2871 -0.2853
   26MOL   C46812518   7.285   2.849   3.841  0.3932  0.1211 -0.2264
   26MOL   O46912519   7.273   2.911   3.736  0.3279 -0.5661 -0.2533
   26MOL   H47012520   7.246   3.524   4.170 -0.6427  1.0441 -0.1362
   26MOL   H47112521   7.345   3.664   4.198  2.8291 -1.0160  0.7633
   26MOL   H47212522   7.527   3.509   4.268 -2.1035  0.9861  1.3506
   26MOL   H47312523   7.503   3.508   4.096 -0.3882  1.2571  0.3508
   26MOL   H47412524   7.388   3.293   4.289 -0.8119  0.0014  0.0014
   26MOL   H47512525   7.518   3.273   4.172 -0.2015 -0.4879 -1.2230
   26MOL   H47612526   7.222   3.304   4.127  0.0009 -0.3760 -0.1174
   26MOL   H47712527   7.342   3.341   4.001 -1.5968  1.1537  0.6386
   26MOL   H47812528   7.233   2.862   4.163 -1.3458  2.1729  0.5385
   26MOL   H47912529   7.380   2.890   4.058 -0.6477 -1.8796  1.5871
   26MOL   H48012530   7.140   2.801   3.987 -0.7111  1.2760  0.5500
   26MOL   H48112531   7.121   2.964   3.932  1.8566  1.5056 -0.9577
   26MOL   H48212532   7.362   2.773   3.851 -0.3359 -0.5443  0.4242
   27MOL     O112533   5.925   3.552   5.671  0.2834  0.1177  0.1609
   27MOL     C212534   6.016   3.442   5.643  0.5900  0.2468  0.3863
   27MOL     C312535   6.159   3.498   5.673 -0.9083 -0.4782  0.1253
   27MOL     C412536   6.191   3.520   5.822 -0.1175  0.4560  0.5030
   27MOL     C512537   6.271   3.650   5.835 -0.3397 -0.2080 -0.7183
   27MOL     O612538   6.302   3.667   5.968  0.2636  0.0160 -0.2019
   27MOL     C712539   6.338   3.786   6.014  0.4814  0.0736 -0.0568
   27MOL     O812540   6.360   3.892   5.957  0.0555 -0.0238 -0.4430
   27MOL     C912541   6.331   3.778   6.168  0.4454 -0.1463 -0.8230
   27MOL    C1012542   6.467   3.815   6.230 -0.1469 -0.7880 -0.0787
   27MOL    C1112543   6.546   3.690   6.229  0.2353  0.4498 -0.6620
   27MOL    O1212544   6.569   3.622   6.329 -0.3093 -0.1818 -0.0163
   27MOL    H1312545   5.998   3.349   5.697  0.5494  1.9858  3.4654
   27MOL    H1412546   6.002   3.412   5.539  0.2013  0.4403  0.3818
   27MOL    H1512547   6.189   3.579   5.606  1.2811 -1.8092 -0.5661
   27MOL    H1612548   6.221   3.418   5.632 -1.8559  0.0187 -2.4097
   27MOL    H1712549   6.243   3.433   5.862 -0.7291 -0.2973 -0.3198
   27MOL    H1812550   6.099   3.528   5.880 -0.1067  2.0053  0.3448
   27MOL    H1912551   6.362   3.661   5.776 -0.3035 -0.8798 -0.7876
   27MOL    H2012552   6.196   3.726   5.810  1.6339  2.9376  2.4423
   27MOL    H2112553   6.287   3.689   6.213 -0.3628  1.3120  1.3612
   27MOL    H2212554   6.256   3.854   6.191 -0.5710 -1.5444  0.6197
   27MOL    H2312555   6.524   3.887   6.170 -0.3589  0.8417  1.6193
   27MOL    H2412556   6.463   3.853   6.332  0.4545 -1.6227  0.2644
   27MOL    H2512557   5.835   3.524   5.665  0.1084  0.4166  1.2985
   27MOL    O2612558   6.589   3.657   6.104  0.3572  0.6188  0.5250
   27MOL    C2712559   6.661   3.537   6.083  0.7284 -0.1516  0.4992
   27MOL    C2812560   6.617   3.479   5.952  1.2634  0.1574  0.1323
   27MOL    C2912561   6.673   3.338   5.942 -0.3492  0.0961 -0.1655
   27MOL    C3012562   6.591   3.245   5.848 -0.2401  0.0592 -0.3488
   27MOL    O3112563   6.672   3.130   5.819  0.7936  0.4532 -0.5494
   27MOL    C3212564   6.668   3.015   5.885  0.1436  0.0341  0.9354
   27MOL    O3312565   6.585   2.987   5.966 -1.1990 -0.3326 -0.5240
   27MOL    C3412566   6.796   2.925   5.857 -0.0412  0.0488 -0.6221
   27MOL    C3512567   6.826   2.906   5.710  0.4024 -0.1144 -0.6893
   27MOL    C3612568   6.722   2.821   5.637 -0.0083 -0.0396 -0.4022
   27MOL    O3712569   6.615   2.869   5.603  0.3228  0.3062  0.3289
   27MOL    H3812570   6.768   3.556   6.094  0.9893 -0.6521 -1.1090
   27MOL    H3912571   6.646   3.473   6.170  2.4044  0.2384  1.0943
   27MOL    H4012572   6.653   3.540   5.870 -0.8918  0.6106 -0.4842
   27MOL    H4112573   6.509   3.474   5.965  1.3295 -1.0259  0.3816
   27MOL    H4212574   6.667   3.292   6.041  0.3272 -0.1935 -0.2543
   27MOL    H4312575   6.778   3.335   5.911  0.5300  0.7762  2.5608
   27MOL    H4412576   6.486   3.229   5.874  0.2801 -3.0666  0.0741
   27MOL    H4512577   6.578   3.290   5.749 -0.6373  1.3627  0.2873
   27MOL    H4612578   6.783   2.832   5.913 -0.6995  1.2176  1.2265
   27MOL    H4712579   6.873   2.986   5.904  0.2687 -0.2114 -0.7951
   27MOL    H4812580   6.831   2.999   5.654 -1.0953 -0.4599 -1.4137
   27MOL    H4912581   6.923   2.857   5.710  0.2905 -0.3594  0.7800
   27MOL    O5012582   6.769   2.699   5.609  0.1226  0.0357  0.3568
   27MOL    C5112583   6.691   2.610   5.532 -0.1082 -0.5835  0.2926
   27MOL    C5212584   6.737   2.464   5.541  0.5693  0.1801  0.1777
   27MOL    C5312585   6.685   2.367   5.432  0.1454 -0.2207 -0.0094
   27MOL    C5412586   6.733   2.221   5.455  0.2132 -0.1800 -0.2201
   27MOL    O5512587   6.876   2.202   5.433  0.2048 -0.0214 -0.8381
   27MOL    C5612588   6.962   2.221   5.531  0.5169 -0.2764  0.3889
   27MOL    O5712589   6.934   2.243   5.648 -0.5482  0.3927  0.5623
   27MOL    C5812590   7.104   2.220   5.483  0.7416 -0.1508 -0.9599
   27MOL    C5912591   7.174   2.355   5.524 -0.0132  0.5641  0.0913
   27MOL    C6012592   7.197   2.431   5.396  0.7684  0.5738 -0.0201
   27MOL    O6112593   7.310   2.442   5.347  0.6353 -0.1203 -0.1027
   27MOL    H6212594   6.586   2.610   5.560 -0.5747  1.2057 -1.3111
   27MOL    H6312595   6.696   2.636   5.426 -1.1412 -0.9097  0.1603
   27MOL    H6412596   6.709   2.430   5.641  1.3924 -0.4323  0.2030
   27MOL    H6512597   6.846   2.462   5.544  0.5519 -0.5059  0.5777
   27MOL    H6612598   6.725   2.408   5.339 -1.4560  2.2957  0.3398
   27MOL    H6712599   6.576   2.376   5.435  0.2481  1.2698 -0.1269
   27MOL    H6812600   6.702   2.200   5.557 -1.5458  1.2088 -0.4448
   27MOL    H6912601   6.669   2.162   5.388 -0.1525  0.0078 -0.0380
   27MOL    H7012602   7.120   2.193   5.379  0.3139  0.2084 -1.1188
   27MOL    H7112603   7.152   2.144   5.544  1.3387 -0.1801 -1.4626
   27MOL    H7212604   7.121   2.415   5.597  0.9750  1.4281  0.1090
   27MOL    H7312605   7.274   2.332   5.562 -0.2762  1.2838  1.2293
   27MOL    O7412606   7.080   2.485   5.352 -0.0659  0.2388  0.0953
   27MOL    C7512607   7.085   2.563   5.237 -0.1397  0.1381  0.5667
   27MOL    C7612608   6.988   2.535   5.133  0.4810 -1.3335 -0.0157
   27MOL    C7712609   7.002   2.397   5.064 -0.4614 -0.2547  0.0508
   27MOL    C7812610   7.122   2.367   4.970 -0.0484  0.1796  0.0585
   27MOL    O7912611   7.228   2.338   5.050 -0.2320 -0.3100 -0.2757
   27MOL    C8012612   7.324   2.258   5.014  0.2040 -0.5230 -0.4094
   27MOL    O8112613   7.340   2.213   4.901  0.9036  0.1868 -0.2616
   27MOL    C8212614   7.417   2.209   5.121  0.2673 -0.3246 -0.2635
   27MOL    C8312615   7.364   2.098   5.205  0.2358  0.1163  0.1771
   27MOL    C8412616   7.466   1.979   5.228 -0.1030 -0.0537 -0.2603
   27MOL    O8512617   7.590   1.993   5.205  0.4101 -0.4596 -0.2950
   27MOL    H8612618   7.076   2.666   5.271  1.8461 -0.5252  3.3104
   27MOL    H8712619   7.179   2.578   5.185 -0.6414  0.5670 -0.2287
   27MOL    H8812620   6.994   2.613   5.057 -1.2251 -0.8597  0.3238
   27MOL    H8912621   6.886   2.550   5.169  1.7176  2.7110  2.0661
   27MOL    H9012622   6.919   2.397   4.994  0.0781 -0.8809 -0.6026
   27MOL    H9112623   6.990   2.308   5.126 -0.7253 -0.1971  0.0838
   27MOL    H9212624   7.092   2.279   4.913  1.5452  0.6227 -1.5050
   27MOL    H9312625   7.154   2.457   4.918  0.3691  1.8971  3.2035
   27MOL    H9412626   7.426   2.297   5.186 -1.3548  0.7922 -1.5057
   27MOL    H9512627   7.513   2.200   5.071  0.1529 -1.0712 -0.3448
   27MOL    H9612628   7.353   2.144   5.304  2.3777  1.6274 -0.2349
   27MOL    H9712629   7.268   2.067   5.166  0.0707  1.7505 -0.7610
   27MOL    O9812630   7.410   1.870   5.273 -0.0405 -0.1837 -0.0525
   27MOL    C9912631   7.490   1.751   5.275  0.2060 -0.6826  0.0175
   27MOL   C10012632   7.543   1.724   5.413 -1.1888  0.0338  0.3511
   27MOL   C10112633   7.439   1.690   5.516  0.4632 -0.5432  0.3653
   27MOL   C10212634   7.323   1.785   5.524  0.6902  0.5201  0.0946
   27MOL   O10312635   7.263   1.764   5.650 -0.1036 -0.0409 -0.3688
   27MOL   C10412636   7.249   1.854   5.746  0.1002  0.5827  0.4123
   27MOL   O10512637   7.280   1.971   5.729  0.0538 -0.2390  0.6358
   27MOL   C10612638   7.184   1.809   5.867  0.5917  0.0938  0.5014
   27MOL   C10712639   7.296   1.791   5.972  0.0085  0.4924  0.1720
   27MOL   C10812640   7.340   1.642   5.986 -0.6477  0.0304 -0.0204
   27MOL   O10912641   7.306   1.575   6.084  0.0476  0.2577  0.4046
   27MOL   H11012642   7.429   1.667   5.242  0.3979  0.0410 -2.2592
   27MOL   H11112643   7.566   1.756   5.197 -0.2413  1.3959 -0.3049
   27MOL   H11212644   7.590   1.816   5.445 -1.9958  0.8862 -0.8416
   27MOL   H11312645   7.628   1.656   5.416 -1.4620 -0.3135  0.3569
   27MOL   H11412646   7.495   1.687   5.610  2.2618  0.3589 -0.6549
   27MOL   H11512647   7.410   1.586   5.503  1.5027 -0.6196 -1.5307
   27MOL   H11612648   7.342   1.891   5.503 -2.3405  1.1113  0.0318
   27MOL   H11712649   7.242   1.774   5.452  0.2515 -1.0297  0.8084
   27MOL   H11812650   7.134   1.719   5.831  0.3818  0.7779 -0.9316
   27MOL   H11912651   7.117   1.888   5.901 -1.3458 -1.6899  0.9356
   27MOL   H12012652   7.383   1.855   5.956 -0.0900  0.0313 -2.5749
   27MOL   H12112653   7.251   1.825   6.065 -0.9501 -0.4710  0.0676
   27MOL   O12212654   7.405   1.594   5.878 -0.7362 -0.3353 -0.1105
   27MOL   C12312655   7.436   1.456   5.862  0.6520  0.7387 -0.0518
   27MOL   C12412656   7.567   1.412   5.927  0.4089 -0.0208  0.4585
   27MOL   C12512657   7.604   1.256   5.918 -0.0437  0.1349 -0.2712
   27MOL   C12612658   7.639   1.223   5.766  0.5004 -1.3894  0.2811
   27MOL   O12712659   7.752   1.303   5.721  0.1646 -0.3596 -0.3010
   27MOL   C12812660   7.732   1.401   5.628  0.6892 -0.1702 -0.1395
   27MOL   O12912661   7.625   1.423   5.571 -0.6130  0.3137  0.1276
   27MOL   C13012662   7.861   1.483   5.604 -0.3000  0.3545  0.3523
   27MOL   C13112663   0.044   1.554   5.730 -0.0635  0.1049 -0.9508
   27MOL   C13212664   0.139   1.475   5.818  0.2231 -0.1999  0.6538
   27MOL   O13312665   0.207   1.383   5.765 -0.6236 -0.5733  0.3879
   27MOL   H13412666   7.361   1.400   5.918  0.6320  0.0798 -0.7377
   27MOL   H13512667   7.436   1.432   5.756  1.8868  3.0120 -0.5845
   27MOL   H13612668   7.561   1.431   6.034 -2.9697  1.4087  0.0831
   27MOL   H13712669   7.656   1.461   5.889 -0.6972 -0.0247 -2.2192
   27MOL   H13812670   7.527   1.183   5.943  0.6236 -0.6899 -0.5891
   27MOL   H13912671   7.699   1.254   5.973 -0.2638  2.2357  0.2535
   27MOL   H14012672   7.668   1.118   5.764  1.6957 -1.0483 -1.3644
   27MOL   H14112673   7.544   1.243   5.718  1.6097 -1.6908 -2.1203
   27MOL   H14212674   7.831   1.562   5.535 -1.3981  0.6979  1.1972
   27MOL   H14312675   0.062   1.426   5.550  0.1126  1.1575  0.0814
   27MOL   H14412676   0.099   1.642   5.697 -1.3526  1.8507  1.3386
   27MOL   H14512677   7.845   1.592   5.802 -1.3665 -0.5985 -1.8932
   27MOL   O14612678   0.146   1.525   5.946  0.2533  0.2327 -0.6708
   27MOL   C14712679   0.216   1.463   6.054 -0.3274 -0.1090 -0.6491
   27MOL   C14812680   0.138   1.363   6.134  0.2712  0.1873  0.8778
   27MOL   C14912681   0.021   1.428   6.210  0.0228  0.6075 -0.1819
   27MOL   C15012682   7.800   1.318   6.254 -0.8500 -0.6118 -0.5695
   27MOL   O15112683   7.696   1.390   6.318  0.7232  0.3594 -0.4767
   27MOL   C15212684   7.650   1.360   6.444 -0.7517  0.3184  0.3114
   27MOL   O15312685   7.672   1.256   6.506 -0.0129  0.4515  0.9634
   27MOL   C15412686   7.566   1.468   6.495 -0.1193 -0.8457  0.3981
   27MOL   C15512687   7.424   1.441   6.444  0.2546  0.3154  0.4063
   27MOL   C15612688   7.310   1.460   6.537 -0.1664 -0.0588 -0.3037
   27MOL   O15712689   7.206   1.392   6.522  0.0684  0.6143  0.7010
   27MOL   H15812690   0.290   1.400   6.004  1.5917  1.9578 -0.4850
   27MOL   H15912691   0.263   1.531   6.125 -2.9604  1.1715 -0.0940
   27MOL   H16012692   0.203   1.306   6.201  1.7102  0.0219 -0.6115
   27MOL   H16112693   0.084   1.294   6.069  0.1229 -0.3345  1.5492
   27MOL   H16212694   7.843   1.499   6.147  1.8796  0.5934 -1.7962
   27MOL   H16312695   0.067   1.471   6.299 -0.9604  1.8921 -0.2944
   27MOL   H16412696   7.754   1.258   6.175 -0.1003 -1.6246 -0.2527
   27MOL   H16512697   7.859   1.246   6.311  0.7418  0.3184 -1.0157
   27MOL   H16612698   7.604   1.563   6.458  1.8044 -0.8475  2.2596
   27MOL   H16712699   7.572   1.476   6.603  0.7848  1.3882  0.2141
   27MOL   H16812700   7.407   1.494   6.350 -1.4043  0.7178  0.9106
   27MOL   H16912701   7.407   1.337   6.418 -1.2956  1.0444 -1.6831
   27MOL   O17012702   7.325   1.560   6.626 -0.0562  0.1025  0.7226
   27MOL   C17112703   7.221   1.602   6.707  0.8818 -0.4704 -0.6023
   27MOL   C17212704   7.283   1.657   6.835  0.3190 -0.2131 -0.5373
   27MOL   C17312705   7.382   1.769   6.806  0.2420  0.0655  0.5658
   27MOL   C17412706   7.468   1.804   6.930  0.1934 -0.5105  0.6128
   27MOL   O17512707   7.542   1.686   6.946 -0.1991  0.1877 -0.2263
   27MOL   C17612708   7.599   1.661   7.057  0.2263 -0.2183 -0.5626
   27MOL   O17712709   7.601   1.733   7.156 -0.2158  0.1612 -0.0677
   27MOL   C17812710   7.658   1.524   7.059  0.0714 -0.3788 -0.2676
   27MOL   C17912711   7.787   1.502   6.984 -0.2909 -0.1683 -0.2134
   27MOL   C18012712   7.778   1.393   6.875 -0.2690  0.2299  0.2809
   27MOL   O18112713   7.828   1.406   6.764 -0.2028 -0.3835 -0.4729
   27MOL   H18212714   7.166   1.687   6.667  2.9892  1.4029  0.3734
   27MOL   H18312715   7.140   1.534   6.733  2.3419 -1.6935  0.8886
   27MOL   H18412716   7.334   1.582   6.895  1.8354 -0.0531 -1.6010
   27MOL   H18512717   7.214   1.690   6.913  1.4103  1.3791 -0.2086
   27MOL   H18612718   7.308   1.836   6.762  0.1339 -2.0959 -2.7256
   27MOL   H18712719   7.444   1.726   6.727  1.6165 -1.1234  2.2443
   27MOL   H18812720   7.525   1.894   6.909 -0.7318 -0.2843 -0.9983
   27MOL   H18912721   7.407   1.823   7.018 -2.8283  0.0453 -1.5078
   27MOL   H19012722   7.582   1.464   7.011  0.8075  0.0713 -2.0288
   27MOL   H19112723   7.667   1.484   7.160  0.8868 -2.6114 -1.1910
   27MOL   H19212724   7.816   1.600   6.946 -1.2872  0.2349  0.0352
   27MOL   H19312725   7.865   1.484   7.058 -0.8422  2.6659  1.1518
   27MOL   O19412726   7.718   1.287   6.925 -0.4566  0.5391  0.8548
   27MOL   C19512727   7.686   1.173   6.849 -0.2556  0.4415  0.2481
   27MOL   C19612728   7.542   1.164   6.808  0.5431 -0.2190 -0.0074
   27MOL   C19712729   7.524   1.037   6.737  0.2497 -0.5603 -0.1340
   27MOL   C19812730   7.380   1.029   6.687 -0.1800 -0.1944 -0.6021
   27MOL   O19912731   7.373   0.918   6.598  0.3049 -0.3047 -0.7157
   27MOL   C20012732   7.258   0.862   6.561  0.1387  0.0026  0.0262
   27MOL   O20112733   7.146   0.899   6.607 -0.2894 -0.2184  0.2135
   27MOL   C20212734   7.275   0.754   6.449  0.1793 -0.8254  0.2595
   27MOL   C20312735   7.153   0.686   6.399  0.0247  0.3200 -0.3420
   27MOL   C20412736   7.116   0.705   6.257  0.0126  0.2956 -0.3693
   27MOL   O20512737   7.017   0.770   6.223 -0.0498 -0.2363 -0.4057
   27MOL   H20612738   7.750   1.162   6.761 -0.8623 -0.1198 -0.1204
   27MOL   H20712739   7.696   1.087   6.915 -0.4542  1.2359  1.3479
   27MOL   H20812740   7.517   1.261   6.767  1.7168 -0.3518 -1.0640
   27MOL   H20912741   7.481   1.158   6.898 -1.1719  0.4869 -1.1173
   27MOL   H21012742   7.554   0.948   6.792  1.6616 -0.5566 -0.8799
   27MOL   H21112743   7.588   1.034   6.649 -0.2114 -1.2213 -0.4489
   27MOL   H21212744   7.314   1.004   6.770 -1.6283  2.0403 -1.0134
   27MOL   H21312745   7.343   1.123   6.646 -1.3802 -0.0361  0.8026
   27MOL   H21412746   7.355   0.690   6.488  0.1190 -0.0215  1.7726
   27MOL   H21512747   7.315   0.810   6.364  0.9667  1.0132  1.7880
   27MOL   H21612748   7.162   0.577   6.403 -2.0852  0.1978  2.8206
   27MOL   H21712749   7.073   0.703   6.471  0.0039  2.9453 -0.9445
   27MOL   O21812750   7.193   0.653   6.170  0.4554  0.1601  0.1045
   27MOL   C21912751   7.188   0.667   6.031  0.1138  0.2192  0.4523
   27MOL   C22012752   7.259   0.804   5.990  0.5379 -0.2954 -0.4080
   27MOL   C22112753   7.277   0.819   5.832  0.7904 -1.4081 -0.3354
   27MOL   C22212754   7.313   0.959   5.781  0.8443 -0.1921 -0.1873
   27MOL   O22312755   7.365   0.946   5.650 -0.1845  0.3927 -0.4459
   27MOL   C22412756   7.496   0.919   5.637  0.1286 -0.2700  0.3186
   27MOL   O22512757   7.582   0.893   5.723 -0.0181  0.6179 -0.3146
   27MOL   C22612758   7.537   0.932   5.496  1.0754 -0.2141  0.4582
   27MOL   C22712759   7.517   0.798   5.424  0.1927 -0.6150 -0.0598
   27MOL   C22812760   7.644   0.724   5.390  0.3960  0.5777  0.2317
   27MOL   O22912761   7.681   0.704   5.275  0.3643  0.5914 -0.1659
   27MOL   H23012762   7.250   0.592   5.982 -0.3574 -0.7467  1.3319
   27MOL   H23112763   7.084   0.671   5.998 -0.2036  2.3827  1.6147
   27MOL   H23212764   7.358   0.818   6.033  0.3293  2.8670 -0.8393
   27MOL   H23312765   7.198   0.879   6.039  2.2988  0.6144  0.4170
   27MOL   H23412766   7.187   0.795   5.775  1.3122  2.2575 -2.8954
   27MOL   H23512767   7.357   0.752   5.803  1.0142 -0.7844 -1.1837
   27MOL   H23612768   7.228   1.022   5.754  3.2441  1.5124 -4.2461
   27MOL   H23712769   7.379   1.016   5.846  1.9402  0.0605 -1.4864
   27MOL   H23812770   7.641   0.965   5.488  0.4235  1.8404  0.0379
   27MOL   H23912771   7.479   1.002   5.436  1.8890 -0.3953 -0.5469
   27MOL   H24012772   7.450   0.734   5.480  0.6078 -0.3273  0.7800
   27MOL   H24112773   7.469   0.813   5.327 -1.5147  0.6442  0.9663
   27MOL   O24212774   7.715   0.694   5.497  0.8717 -0.5508 -0.2068
   27MOL   C24312775   7.841   0.639   5.494 -0.3833  0.1336 -0.0872
   27MOL   C24412776   7.864   0.544   5.619  1.1321  0.3434 -0.9030
   27MOL   C24512777   7.849   0.614   5.759  0.3547  0.0224 -0.5313
   27MOL   C24612778   0.030   0.532   5.874  0.2159 -0.6413 -0.0911
   27MOL   O24712779   7.831   0.407   5.874 -0.0161 -1.2303  0.4193
   27MOL   C24812780   0.017   0.286   5.851  0.0530 -0.1671 -0.3066
   27MOL   O24912781   0.140   0.261   5.839  0.3750  0.4888  0.3579
   27MOL   C25012782   7.792   0.175   5.846 -0.8889  0.3382 -0.2186
   27MOL   C25112783   7.702   0.153   5.962 -0.0369 -0.2824 -0.0355
   27MOL   C25212784   7.728   0.031   6.050 -0.1805  0.4136  0.0506
   27MOL   O25312785   7.804   7.818   6.018 -0.3821  0.3265 -0.1552
   27MOL   H25412786   7.851   0.592   5.397  2.6426 -0.1720  0.3378
   27MOL   H25512787   0.054   0.702   5.504  0.4926 -0.9315 -1.0359
   27MOL   H25612788   0.093   0.508   5.624  0.2141 -2.2711 -0.0705
   27MOL   H25712789   7.803   0.454   5.612  0.9384  0.4767 -0.9300
   27MOL   H25812790   7.748   0.649   5.781 -0.1672 -0.6277 -1.8326
   27MOL   H25912791   0.040   0.700   5.742  4.2657 -2.5280  0.9990
   27MOL   H26012792   0.135   0.513   5.852  0.5393  2.6590 -1.6236
   27MOL   H26112793   0.026   0.583   5.970 -0.9012 -0.8984  0.0066
   27MOL   H26212794   7.837   0.077   5.826  1.7678  1.0930  1.7768
   27MOL   H26312795   7.732   0.204   5.760 -2.5736 -1.8604  0.1689
   27MOL   H26412796   7.696   0.242   6.024 -1.1784 -0.6304  0.3610
   27MOL   H26512797   7.598   0.148   5.930  0.1245  1.1594 -0.8266
   27MOL   O26612798   7.650   0.018   6.161  0.0324 -0.8136  0.0176
   27MOL   C26712799   7.672   7.786   6.255 -0.1469  1.0913  0.3330
   27MOL   C26812800   7.580   7.812   6.381  0.1733  0.5942  0.2320
   27MOL   C26912801   7.432   7.818   6.332 -0.1569 -0.4888  0.0062
   27MOL   C27012802   7.336   7.843   6.459 -0.6340 -0.4394  0.6995
   27MOL   O27112803   7.358   0.091   6.529 -0.1640 -0.0675  0.4324
   27MOL   C27212804   7.267   0.133   6.615 -0.0934 -0.0560  0.3147
   27MOL   O27312805   7.150   0.095   6.619  0.2629  0.0568  0.4806
   27MOL   C27412806   7.321   0.242   6.702  0.2173 -0.0325 -0.3020
   27MOL   C27512807   7.355   0.366   6.619 -0.3555  0.0097  0.6355
   27MOL   C27612808   7.332   0.493   6.704  0.0326  0.1184  1.0499
   27MOL   O27712809   7.421   0.582   6.716 -0.9178  0.8890  0.4435
   27MOL   H27812810   7.646   7.692   6.207 -0.6678  0.7265  1.3198
   27MOL   H27912811   7.778   7.772   6.276 -0.2625 -0.6380 -0.2007
   27MOL   H28012812   7.603   0.025   6.442 -0.8471 -0.2769  1.8905
   27MOL   H28112813   7.591   7.735   6.458  0.6204  0.5605  0.1383
   27MOL   H28212814   7.402   7.716   6.306  1.7017 -1.3064  0.9473
   27MOL   H28312815   7.407   0.018   6.257  0.0163 -0.9134 -0.4744
   27MOL   H28412816   7.232   7.840   6.428  0.1172  1.6347 -2.1667
   27MOL   H28512817   7.356   7.757   6.524  0.6313 -0.3433  0.4544
   27MOL   H28612818   7.412   0.207   6.752  1.5080  0.0519 -2.5242
   27MOL   H28712819   7.242   0.262   6.774  0.2508 -1.2019  0.0677
   27MOL   H28812820   7.457   0.362   6.580 -0.4348 -0.7549  0.4956
   27MOL   H28912821   7.286   0.359   6.534 -2.6967 -3.0583  2.7162
   27MOL   O29012822   7.210   0.506   6.769  0.6528 -0.1786 -0.5634
   27MOL   C29112823   7.184   0.623   6.850  0.3010  0.6544 -0.0471
   27MOL   C29212824   7.067   0.583   6.940  0.0403  0.3452 -0.2724
   27MOL   C29312825   7.018   0.711   7.018  0.1330 -0.8307 -0.5718
   27MOL   C29412826   6.894   0.698   7.106  0.1136 -0.4167 -0.4744
   27MOL   O29512827   6.835   0.820   7.121  0.7015  0.1299 -0.5727
   27MOL   C29612828   6.825   0.882   7.242 -0.3928  0.6556  0.4892
   27MOL   O29712829   6.857   0.840   7.348 -0.1456 -0.4105 -0.3878
   27MOL   C29812830   6.774   1.022   7.221  0.1347  0.6919 -0.3863
   27MOL   C29912831   6.890   1.121   7.204 -0.0244 -0.0443  0.2971
   27MOL   C30012832   6.987   1.080   7.102 -0.1610  0.2253 -0.0716
   27MOL   O30112833   7.100   1.045   7.134  0.1377  0.1109 -0.6181
   27MOL   H30212834   7.276   0.631   6.908  0.9286 -1.3646 -0.7523
   27MOL   H30312835   7.185   0.718   6.795  0.0280  0.9488  0.4572
   27MOL   H30412836   7.111   0.510   7.008 -0.2275  0.1494 -0.3059
   27MOL   H30512837   6.982   0.532   6.896 -0.3820  0.1579  0.7294
   27MOL   H30612838   7.011   0.783   6.937 -2.1480 -0.8037 -0.3585
   27MOL   H30712839   7.101   0.754   7.075  0.7059 -1.3677 -0.9940
   27MOL   H30812840   6.825   0.624   7.067  2.0126 -4.2498  3.0151
   27MOL   H30912841   6.936   0.651   7.195  0.6783  0.8017 -0.0771
   27MOL   H31012842   6.709   1.046   7.306  1.9839  2.6397  0.5377
   27MOL   H31112843   6.711   1.032   7.133  2.2984  0.2474 -2.0264
   27MOL   H31212844   6.845   1.217   7.179 -0.7055 -0.3472  0.3348
   27MOL   H31312845   6.939   1.126   7.301  0.6390  1.0634 -0.0900
   27MOL   O31412846   6.945   1.087   6.980 -0.1029 -0.6277  0.0457
   27MOL   C31512847   7.030   1.064   6.864  0.0068  0.8515  0.1328
   27MOL   C31612848   7.069   1.204   6.813 -0.3839  0.1814  0.3421
   27MOL   C31712849   6.960   1.275   6.729 -0.1494 -0.1627  0.0520
   27MOL   C31812850   6.828   1.312   6.807  0.4016 -0.1107  0.2675
   27MOL   O31912851   6.744   1.392   6.722 -0.0792  0.2846  0.4626
   27MOL   C32012852   6.644   1.466   6.761 -0.4215 -0.1637 -0.2422
   27MOL   O32112853   6.610   1.475   6.878  0.2496  0.8036  0.1674
   27MOL   C32212854   6.581   1.549   6.643  0.6982  0.1675 -0.6160
   27MOL   C32312855   6.501   1.669   6.701 -0.6692 -0.7695 -0.1094
   27MOL   C32412856   6.352   1.641   6.701  0.0837  0.9466 -0.2891
   27MOL   O32512857   6.306   1.533   6.728 -0.4691 -0.4336  0.0581
   27MOL   H32612858   7.113   1.000   6.891  1.2607  1.9755 -0.9163
   27MOL   H32712859   6.979   1.007   6.786  1.3577 -1.3898  0.8411
   27MOL   H32812860   7.155   1.206   6.746 -2.0057  0.5031 -1.7805
   27MOL   H32912861   7.093   1.271   6.896  0.6922 -0.2218  0.3635
   27MOL   H33012862   6.932   1.211   6.645  2.2563 -1.6568  0.3601
   27MOL   H33112863   6.994   1.368   6.682  0.9860 -0.1436  0.9110
   27MOL   H33212864   6.770   1.221   6.823 -0.8356  0.7756  0.8963
   27MOL   H33312865   6.836   1.354   6.907 -1.4691  0.5269  0.1696
   27MOL   H33412866   6.532   1.472   6.584 -0.5057  0.2600  0.2501
   27MOL   H33512867   6.670   1.584   6.590  1.9528 -1.2198  0.5436
   27MOL   H33612868   6.534   1.698   6.800  0.5889  0.4637 -0.8726
   27MOL   H33712869   6.508   1.752   6.631 -1.4816  1.1086  1.9785
   27MOL   O33812870   6.284   1.752   6.675 -0.5572 -0.0660  0.2254
   27MOL   C33912871   6.148   1.738   6.670  0.7695  0.3463  0.0342
   27MOL   C34012872   6.086   1.874   6.625  0.1338 -0.8432  0.3939
   27MOL   C34112873   6.126   1.917   6.481  0.1758 -0.2036 -0.7849
   27MOL   C34212874   6.053   2.049   6.439  0.5309  0.1485  0.4825
   27MOL   O34312875   5.923   2.027   6.404 -0.4715  0.7381 -0.0069
   27MOL   C34412876   5.855   2.116   6.327 -0.1140  0.0714  0.4865
   27MOL   O34512877   5.893   2.232   6.297 -0.2108  0.1002 -0.2817
   27MOL   C34612878   5.701   2.090   6.304 -0.3767  0.1131 -0.1100
   27MOL   C34712879   5.607   2.210   6.320 -0.1064 -0.0260 -0.3956
   27MOL   C34812880   5.489   2.183   6.410  0.4485 -0.2858  0.1518
   27MOL   O34912881   5.375   2.167   6.367  0.0995 -0.0743  0.3752
   27MOL   H35012882   6.106   1.665   6.601 -0.6786 -0.1587  1.4474
   27MOL   H35112883   6.100   1.728   6.767 -0.8635  1.1648 -0.6601
   27MOL   H35212884   6.113   1.952   6.696 -0.3650 -1.7110  1.5566
   27MOL   H35312885   5.978   1.859   6.631 -0.0103  0.3226  0.8021
   27MOL   H35412886   6.110   1.835   6.411  2.7317 -0.5354 -1.0074
   27MOL   H35512887   6.233   1.928   6.466  0.0921  1.3106 -0.3893
   27MOL   H35612888   6.057   2.127   6.514 -0.3524 -0.1323  0.8273
   27MOL   H35712889   6.117   2.081   6.357 -0.1982  0.7263  0.1349
   27MOL   H35812890   5.670   2.007   6.368 -0.0501 -2.4007 -3.0837
   27MOL   H35912891   5.688   2.055   6.202 -0.1271  0.7853 -0.3712
   27MOL   H36012892   5.655   2.290   6.376  2.3298 -1.1227 -0.8280
   27MOL   H36112893   5.572   2.248   6.224  1.7626  1.3768 -0.5582
   27MOL   O36212894   5.526   2.181   6.541 -0.0725 -0.3949  0.3815
   27MOL   C36312895   5.422   2.169   6.638 -0.3372  0.6791 -0.3057
   27MOL   C36412896   5.413   2.029   6.700  0.4067 -0.6392 -0.3202
   27MOL   C36512897   5.307   2.011   6.813  1.0711  0.6822 -0.6285
   27MOL   C36612898   5.305   2.107   6.928  0.1341 -0.3529 -0.5721
   27MOL   O36712899   5.416   2.096   7.023  0.8847 -0.1459 -0.4177
   27MOL   C36812900   5.400   2.044   7.144 -0.0857 -0.6135 -0.3343
   27MOL   O36912901   5.295   2.000   7.193 -0.3019  0.1898 -0.2083
   27MOL   C37012902   5.529   2.061   7.218  0.8346  0.3684 -0.4814
   27MOL   C37112903   5.516   2.037   7.368  0.1006 -0.2290 -0.1948
   27MOL   C37212904   5.655   1.992   7.425  0.1644  0.1471 -0.2852
   27MOL   O37312905   5.756   2.007   7.353 -0.1272 -0.0706 -0.3917
   27MOL   H37412906   5.449   2.225   6.728  0.0118 -0.3554  0.2400
   27MOL   H37512907   5.327   2.209   6.603  0.1236  1.1821 -0.9925
   27MOL   H37612908   5.509   1.984   6.726  1.2921  1.8864  0.9210
   27MOL   H37712909   5.389   1.973   6.610 -0.8926 -1.3035  0.4182
   27MOL   H37812910   5.313   1.908   6.849  0.8037  1.8230  2.8574
   27MOL   H37912911   5.208   2.016   6.766  0.3325  1.6741  0.9879
   27MOL   H38012912   5.305   2.207   6.886  0.2545 -1.1907 -2.6298
   27MOL   H38112913   5.210   2.092   6.978 -1.1759  0.9575 -2.5914
   27MOL   H38212914   5.574   2.158   7.197 -0.4798  1.3127  0.9846
   27MOL   H38312915   5.599   1.988   7.177  0.6449 -0.1330  0.0810
   27MOL   H38412916   5.475   2.128   7.411 -1.4844 -0.3632 -1.3784
   27MOL   H38512917   5.444   1.959   7.394 -3.1065  2.0973 -1.7610
   27MOL   O38612918   5.646   1.961   7.551 -0.6006 -0.0059  0.6206
   27MOL   C38712919   5.759   1.896   7.602 -0.3470  0.0462 -0.2069
   27MOL   C38812920   5.780   1.751   7.555 -0.1107  0.3113 -0.4614
   27MOL   C38912921   5.662   1.656   7.596  0.2066 -0.0982 -0.5724
   27MOL   C39012922   5.681   1.512   7.567 -0.5324  0.3365  0.2586
   27MOL   O39112923   5.642   1.493   7.427  0.9018  0.3136  0.2963
   27MOL   C39212924   5.735   1.500   7.334 -0.1678  0.7194  0.3533
   27MOL   O39312925   5.857   1.497   7.351 -0.3434  0.2795 -0.7337
   27MOL   C39412926   5.671   1.514   7.197 -0.3059 -0.0655  0.5300
   27MOL   C39512927   5.535   1.584   7.193  0.5028  0.2289  0.1299
   27MOL   C39612928   5.506   1.636   7.047  0.1580 -0.0136  0.5450
   27MOL   O39712929   5.477   1.751   7.018 -0.7007 -0.1251 -0.0061
   27MOL   H39812930   5.848   1.957   7.589  0.2333 -0.8074 -0.3238
   27MOL   H39912931   5.754   1.895   7.711 -2.5285 -1.2503 -0.3005
   27MOL   H40012932   5.878   1.718   7.589 -0.3955 -3.1937 -2.7727
   27MOL   H40112933   5.788   1.754   7.446 -3.0555 -1.4955 -0.7901
   27MOL   H40212934   5.565   1.702   7.575  0.1235 -0.1591 -0.3203
   27MOL   H40312935   5.665   1.658   7.705  0.9429 -1.9064 -0.5500
   27MOL   H40412936   5.784   1.489   7.596 -0.2458  0.4022 -0.6763
   27MOL   H40512937   5.617   1.456   7.634  0.3528 -1.4770 -0.3925
   27MOL   H40612938   5.657   1.413   7.159  0.3180  0.3432 -0.8041
   27MOL   H40712939   5.747   1.556   7.131 -0.8308 -2.1271 -1.4426
   27MOL   H40812940   5.466   1.506   7.226  0.5786 -0.1110 -0.4984
   27MOL   H40912941   5.527   1.665   7.265 -2.9820 -0.7761  0.9635
   27MOL   O41012942   5.504   1.526   6.960 -0.0667  0.2104 -0.0319
   27MOL   C41112943   5.466   1.543   6.824  0.4577 -0.2504  0.4160
   27MOL   C41212944   5.539   1.431   6.740 -0.0175 -0.4913 -0.2012
   27MOL   C41312945   5.689   1.435   6.772  0.6642  0.0331  0.1013
   27MOL   C41412946   5.786   1.356   6.681 -0.5963 -0.4324 -0.1209
   27MOL   O41512947   5.818   1.217   6.707  0.1868  0.4405 -0.4750
   27MOL   C41612948   5.909   1.147   6.637  0.0196  0.5023 -0.2667
   27MOL   O41712949   5.972   1.203   6.546 -0.3355  0.2995 -0.3129
   27MOL   C41812950   5.923   0.997   6.675 -0.2863 -0.4568 -0.2324
   27MOL   C41912951   5.970   0.923   6.552 -0.1283  0.3444  0.4885
   27MOL   C42012952   6.118   0.934   6.522 -0.1357  0.3411 -0.2010
   27MOL   O42112953   6.204   0.911   6.605 -0.1082 -0.1432  0.7483
   27MOL   H42212954   5.359   1.527   6.809  0.8271 -2.8623  0.3594
   27MOL   H42312955   5.495   1.635   6.774  0.6435 -0.8397 -0.5645
   27MOL   H42412956   5.517   1.438   6.633 -1.5130 -1.1696  0.0508
   27MOL   H42512957   5.504   1.331   6.767 -1.0924 -0.3387 -0.9584
   27MOL   H42612958   5.710   1.399   6.873  1.6028  0.2288 -0.0121
   27MOL   H42712959   5.728   1.536   6.762  0.4748  0.1435  0.4811
   27MOL   H42812960   5.754   1.372   6.578 -1.3966  0.3941  0.2405
   27MOL   H42912961   5.880   1.411   6.672 -2.1750  2.3376 -0.4215
   27MOL   H43012962   5.828   0.962   6.714 -1.0260  0.5773 -1.0764
   27MOL   H43112963   6.005   0.984   6.745  0.3952 -2.0011 -1.2999
   27MOL   H43212964   5.956   0.814   6.555  0.3997  0.1929 -1.5704
   27MOL   H43312965   5.932   0.970   6.462  1.9674  0.8405 -0.1646
   27MOL   O43412966   6.143   0.962   6.390  0.1015  0.3822 -0.1037
   27MOL   C43512967   6.281   0.956   6.350  0.1920  0.2512 -0.4218
   27MOL   C43612968   6.291   0.845   6.249 -0.1815 -0.2959 -0.5101
   27MOL   C43712969   6.216   0.877   6.125  0.5200 -0.0295 -0.5143
   27MOL   C43812970   6.258   0.800   6.002 -0.3914  0.0622  0.4456
   27MOL   O43912971   6.206   0.866   5.887 -0.2410  0.1622  0.4373
   27MOL   C44012972   6.078   0.875   5.863 -0.7302  0.5795  0.0232
   27MOL   O44112973   5.987   0.820   5.924  0.2318 -0.1362 -0.0833
   27MOL   C44212974   6.056   0.968   5.740  0.4126 -0.9084 -0.3414
   27MOL   C44312975   6.079   0.893   5.604 -0.1992  0.0795 -0.3119
   27MOL   C44412976   5.981   0.926   5.483  0.1827  0.5532  0.5484
   27MOL   O44512977   5.966   0.840   5.401  0.1379 -0.3619 -0.3068
   27MOL   H44612978   6.302   1.053   6.305 -0.7654 -0.6085 -2.7963
   27MOL   H44712979   6.351   0.941   6.432  0.7948  2.7405 -0.4620
   27MOL   H44812980   6.269   0.753   6.302  1.6874  0.1856  1.1882
   27MOL   H44912981   6.396   0.822   6.229 -0.0785  1.1913 -1.7623
   27MOL   H45012982   6.248   0.978   6.103  0.0973  0.2086 -0.0405
   27MOL   H45112983   6.111   0.868   6.152  1.5245 -0.9193  3.4872
   27MOL   H45212984   6.366   0.796   5.993 -0.6852 -0.4812 -4.5036
   27MOL   H45312985   6.224   0.696   6.009  0.4942 -0.4295 -1.8323
   27MOL   H45412986   6.130   1.048   5.743 -0.0107 -0.5427  0.8122
   27MOL   H45512987   5.968   1.033   5.745  0.6642 -0.5298 -0.7858
   27MOL   H45612988   6.182   0.893   5.569 -0.8282  2.6085 -2.3270
   27MOL   H45712989   6.072   0.786   5.627 -2.6092 -0.1617 -1.9804
   27MOL   O45812990   5.906   1.040   5.488  1.0697 -0.1247  0.0444
   27MOL   C45912991   5.826   1.072   5.372  0.5480  0.0610  0.2353
   27MOL   C46012992   5.813   1.221   5.350  0.5821  0.1092 -0.4039
   27MOL   C46112993   5.944   1.280   5.287  0.7975 -0.0274  0.5122
   27MOL   C46212994   5.934   1.432   5.247 -0.0131 -0.1249  0.7155
   27MOL   O46312995   6.044   1.463   5.170 -0.8731  0.4660  0.0549
   27MOL   C46412996   6.055   1.586   5.116  0.0946  0.1980 -0.1469
   27MOL   O46512997   5.989   1.688   5.143 -0.2941 -0.9871  0.2544
   27MOL   C46612998   6.174   1.601   5.024  1.5298 -0.5633 -0.1119
   27MOL   C46712999   6.196   1.740   4.956 -0.0195 -0.4615  0.2266
   27MOL   C46813000   6.287   1.727   4.835 -0.3700 -0.0462 -0.4963
   27MOL   O46913001   6.371   1.633   4.822  0.3064 -0.0274 -0.1162
   27MOL   H47013002   5.854   1.034   5.274  2.9610  0.4884  0.7343
   27MOL   H47113003   5.731   1.024   5.396  1.0351 -0.2571  1.5652
   27MOL   H47213004   5.783   1.261   5.447  0.7147 -0.4786 -0.1159
   27MOL   H47313005   5.735   1.227   5.274 -0.3637 -1.2153  0.4330
   27MOL   H47413006   5.988   1.211   5.214 -0.1234 -0.2915  0.1973
   27MOL   H47513007   6.016   1.275   5.368 -1.2416 -0.1041  2.3454
   27MOL   H47613008   5.854   1.449   5.175 -2.1320 -0.5747  2.8998
   27MOL   H47713009   5.922   1.499   5.332 -1.1340 -0.7463  1.0566
   27MOL   H47813010   6.166   1.531   4.941 -0.0338 -0.9759  0.3667
   27MOL   H47913011   6.265   1.584   5.080  3.0514 -3.2205 -3.2315
   27MOL   H48013012   6.100   1.775   4.917  0.2883 -0.2503 -0.3517
   27MOL   H48113013   6.237   1.808   5.030  3.3035 -1.8544 -0.2042
   27MOL   H48213014   6.269   1.799   4.755 -1.5943  0.7869  0.5285
   28MOL     O113015   5.835   1.581   1.262 -0.0807  0.0348  0.1501
   28MOL     C213016   5.792   1.550   1.389  0.0283  0.0702 -0.4604
   28MOL     C313017   5.923   1.516   1.468 -0.4454  0.6243 -0.4499
   28MOL     C413018   5.899   1.446   1.601 -0.4126 -0.2244  0.4849
   28MOL     C513019   6.023   1.388   1.663 -0.0983  0.0984 -0.1850
   28MOL     O613020   6.097   1.493   1.714 -0.1773  0.4811  0.2432
   28MOL     C713021   6.182   1.462   1.820 -0.0609  0.7360  0.6248
   28MOL     O813022   6.190   1.350   1.865  0.0180  0.2937 -0.1327
   28MOL     C913023   6.278   1.574   1.858 -0.2270  0.5148  0.1807
   28MOL    C1013024   6.338   1.558   2.000  0.0218  0.2197 -0.2818
   28MOL    C1113025   6.283   1.650   2.106  0.7916 -0.5782 -0.3526
   28MOL    O1213026   6.359   1.694   2.188  0.7123 -0.2483 -0.6462
   28MOL    H1313027   5.731   1.623   1.442  0.0173  0.1207 -0.5432
   28MOL    H1413028   5.728   1.462   1.382 -0.6497  0.6159 -1.1394
   28MOL    H1513029   5.978   1.608   1.483 -0.8176  0.5558  1.5554
   28MOL    H1613030   5.990   1.445   1.420  1.8678  0.3070  3.0705
   28MOL    H1713031   5.842   1.357   1.575 -0.4841  0.4125 -1.6604
   28MOL    H1813032   5.848   1.501   1.680 -1.0639 -0.2166  0.0600
   28MOL    H1913033   5.984   1.318   1.737 -0.1754  0.4240  0.0810
   28MOL    H2013034   6.081   1.326   1.594  0.5385  0.4375  0.0372
   28MOL    H2113035   6.228   1.670   1.849 -0.9007  0.0851 -0.7022
   28MOL    H2213036   6.357   1.562   1.784  0.0159  2.8819  0.0225
   28MOL    H2313037   6.325   1.455   2.032  0.3726 -0.7184 -3.0249
   28MOL    H2413038   6.443   1.584   1.988 -0.3876  2.4301  0.6152
   28MOL    H2513039   5.760   1.571   1.205  1.2534 -1.8317 -1.3456
   28MOL    O2613040   6.147   1.666   2.102  0.1242 -0.0287 -0.5108
   28MOL    C2713041   6.080   1.744   2.199  0.0861  0.2652 -0.2510
   28MOL    C2813042   5.939   1.683   2.191 -0.1948 -0.2812 -0.0595
   28MOL    C2913043   5.871   1.727   2.069  0.3160 -0.9830  0.3674
   28MOL    C3013044   5.735   1.652   2.036 -0.0708 -0.5007  0.6639
   28MOL    O3113045   5.768   1.515   2.000  0.1672 -0.4083  0.1253
   28MOL    C3213046   5.667   1.427   1.978 -0.5417 -0.4779 -0.0916
   28MOL    O3313047   5.548   1.462   1.975 -0.1883  0.2543  0.1582
   28MOL    C3413048   5.710   1.287   1.934  0.7085  0.1245  0.2127
   28MOL    C3513049   5.626   1.225   1.829  0.5616 -0.0513 -0.1918
   28MOL    C3613050   5.572   1.085   1.882 -0.2442  0.3498  0.0983
   28MOL    O3713051   5.557   1.070   2.001 -0.0903  0.1661  0.6101
   28MOL    H3813052   6.105   1.731   2.304 -0.6080  0.4385 -0.0619
   28MOL    H3913053   6.059   1.851   2.191  0.7624  0.4700  0.6530
   28MOL    H4013054   5.886   1.729   2.274  0.9112  2.2552 -0.7199
   28MOL    H4113055   5.936   1.574   2.202 -1.4784 -0.2928 -0.4645
   28MOL    H4213056   5.936   1.735   1.982  1.5342 -0.5243  1.3004
   28MOL    H4313057   5.848   1.833   2.084  1.6643 -0.2691 -2.3003
   28MOL    H4413058   5.665   1.667   2.117  0.0771 -0.3137  0.7563
   28MOL    H4513059   5.680   1.695   1.952  2.4787  1.1125 -0.2519
   28MOL    H4613060   5.732   1.221   2.018 -0.7011  1.5553  1.7354
   28MOL    H4713061   5.809   1.303   1.890 -0.3102  1.5458 -1.6654
   28MOL    H4813062   5.540   1.291   1.819  0.8746  0.4357  0.3139
   28MOL    H4913063   5.669   1.211   1.730  2.6432  4.4937 -0.0209
   28MOL    O5013064   5.551   0.997   1.786  0.2062  0.6301 -0.2240
   28MOL    C5113065   5.500   0.875   1.812  0.0836  0.6374 -0.3139
   28MOL    C5213066   5.627   0.779   1.783 -0.1176 -0.0924 -0.4533
   28MOL    C5313067   5.591   0.634   1.830  0.1813 -0.3475 -0.3071
   28MOL    C5413068   5.722   0.549   1.826 -0.2683 -0.5238 -0.4502
   28MOL    O5513069   5.782   0.536   1.700 -0.2668 -0.0963 -0.0150
   28MOL    C5613070   5.913   0.567   1.694  0.4816 -0.9816 -0.0105
   28MOL    O5713071   5.992   0.595   1.790 -0.1743 -0.3810 -0.5398
   28MOL    C5813072   5.969   0.566   1.553  0.3146 -0.0706  1.4933
   28MOL    C5913073   5.920   0.691   1.477 -0.5652 -0.2025  0.3082
   28MOL    C6013074   5.797   0.662   1.391  0.3701 -0.0768  0.3772
   28MOL    O6113075   5.688   0.660   1.447 -0.3246 -0.2608  0.5428
   28MOL    H6213076   5.470   0.856   1.915  2.1675 -1.2307 -0.0145
   28MOL    H6313077   5.416   0.854   1.747  0.9430 -1.6873 -0.7195
   28MOL    H6413078   5.710   0.823   1.840 -0.8232 -0.2412  0.7191
   28MOL    H6513079   5.658   0.788   1.679 -0.5381  1.2538 -0.4742
   28MOL    H6613080   5.515   0.594   1.763  0.7802  0.4378 -1.4746
   28MOL    H6713081   5.561   0.640   1.934  0.4137  1.4304 -0.3242
   28MOL    H6813082   5.785   0.572   1.912  0.8382 -0.3031 -1.3061
   28MOL    H6913083   5.701   0.443   1.840  1.7752 -0.7090  1.5539
   28MOL    H7013084   5.943   0.470   1.508  1.1693  0.2393  0.3257
   28MOL    H7113085   6.078   0.573   1.561  0.3175  1.5077  0.3709
   28MOL    H7213086   5.903   0.766   1.554  0.8881 -0.3712  0.8084
   28MOL    H7313087   5.997   0.726   1.409 -2.6565  2.0528 -0.9782
   28MOL    O7413088   5.812   0.642   1.263 -0.2792  0.7505 -0.2478
   28MOL    C7513089   5.718   0.652   1.161  0.4014  0.2173 -0.8054
   28MOL    C7613090   5.725   0.788   1.095  0.0144  0.2762 -0.2952
   28MOL    C7713091   5.862   0.824   1.037 -0.1311  0.1710 -0.6176
   28MOL    C7813092   5.889   0.963   0.994 -0.5090  0.6608 -0.2197
   28MOL    O7913093   5.903   1.038   1.110 -0.1510  0.4431  0.2250
   28MOL    C8013094   6.007   1.124   1.133  0.1527  0.0728  0.2397
   28MOL    O8113095   6.107   1.138   1.062 -0.6204 -0.4188 -0.3532
   28MOL    C8213096   5.991   1.187   1.276 -0.5511 -0.6134  0.2909
   28MOL    C8313097   5.987   1.075   1.380  0.2186 -0.5170  0.0341
   28MOL    C8413098   5.854   1.067   1.460  0.7120  0.3010 -0.7024
   28MOL    O8513099   5.834   1.097   1.581 -0.5424  0.3724  0.5768
   28MOL    H8613100   5.743   0.575   1.089 -1.9675 -1.3676  0.0086
   28MOL    H8713101   5.612   0.637   1.182  0.5684 -1.0334 -0.8533
   28MOL    H8813102   5.700   0.873   1.159 -0.3609 -0.9751  1.2370
   28MOL    H8913103   5.656   0.800   1.012  0.3584  1.2388 -0.4531
   28MOL    H9013104   5.894   0.756   0.958  2.3560 -0.4856  0.8990
   28MOL    H9113105   5.937   0.801   1.113 -0.9313 -1.3396 -0.2572
   28MOL    H9213106   5.974   0.971   0.926 -1.5760 -0.0798 -1.6642
   28MOL    H9313107   5.802   1.000   0.941 -0.0220  0.4833 -1.1663
   28MOL    H9413108   5.892   1.233   1.277  0.0150  0.6207  2.0908
   28MOL    H9513109   6.059   1.271   1.295  1.8654 -2.3353 -0.4385
   28MOL    H9613110   6.001   0.978   1.330  0.3903 -0.1125 -0.7222
   28MOL    H9713111   6.061   1.080   1.460  0.3320 -2.3558  0.0792
   28MOL    O9813112   5.757   1.014   1.383 -0.7966 -0.1922  1.0367
   28MOL    C9913113   5.629   0.985   1.435  0.4610 -0.5574 -0.0483
   28MOL   C10013114   5.550   1.114   1.421 -0.3005  0.7366 -0.0627
   28MOL   C10113115   5.537   1.167   1.278 -0.5969  0.2847  0.9326
   28MOL   C10213116   5.455   1.300   1.267 -0.6246  0.3519 -0.1770
   28MOL   O10313117   5.319   1.270   1.269  0.3198  0.6614  0.2208
   28MOL   C10413118   5.240   1.313   1.167 -0.1461 -0.2524 -0.0356
   28MOL   O10513119   5.275   1.384   1.076 -0.8626  0.3216 -0.0586
   28MOL   C10613120   5.097   1.250   1.175  0.4057  0.4642  0.3606
   28MOL   C10713121   5.024   1.292   1.305  0.6114 -0.3463 -0.8480
   28MOL   C10813122   5.052   1.194   1.424 -0.0329  0.5268  0.4249
   28MOL   O10913123   5.100   1.079   1.406 -0.1640 -0.0160  0.0096
   28MOL   H11013124   5.590   0.903   1.374 -1.2225  0.9987 -1.1022
   28MOL   H11113125   5.636   0.949   1.538 -0.2009 -2.5287 -0.6562
   28MOL   H11213126   5.598   1.186   1.487  0.9193  1.3821 -1.6322
   28MOL   H11313127   5.449   1.092   1.457 -0.4662 -0.3181 -1.1477
   28MOL   H11413128   5.516   1.088   1.206  0.4414  0.1066  0.8264
   28MOL   H11513129   5.635   1.192   1.239  0.2197 -1.7281  1.6192
   28MOL   H11613130   5.483   1.364   1.351 -0.0305  1.0638 -0.9107
   28MOL   H11713131   5.485   1.350   1.175  1.4591  0.3377  0.4674
   28MOL   H11813132   5.105   1.142   1.161  0.6049  0.5511 -0.2126
   28MOL   H11913133   5.054   1.285   1.082  1.2231  0.9339  0.1509
   28MOL   H12013134   5.047   1.395   1.332  2.3635 -0.3567 -2.2233
   28MOL   H12113135   4.919   1.283   1.278  0.8726 -3.1835 -1.1364
   28MOL   O12213136   5.008   1.249   1.538  0.5567  0.0406  0.2442
   28MOL   C12313137   5.014   1.182   1.670 -0.3531 -0.5691  0.1764
   28MOL   C12413138   5.132   1.233   1.757 -0.3859 -0.5585 -0.3045
   28MOL   C12513139   5.149   1.380   1.781 -0.3370  0.1639  0.1179
   28MOL   C12613140   5.025   1.425   1.858 -0.6632 -0.5101 -0.3711
   28MOL   O12713141   5.039   1.568   1.867  0.0098  0.0968 -0.3346
   28MOL   C12813142   4.934   1.648   1.877 -0.1716 -0.4905  0.3337
   28MOL   O12913143   4.820   1.616   1.860 -0.4460  0.0664 -0.1031
   28MOL   C13013144   4.977   1.789   1.905 -0.6480  0.4242 -0.0491
   28MOL   C13113145   4.878   1.893   1.952 -0.2393 -0.4701  0.4510
   28MOL   C13213146   4.842   1.986   1.836  0.0412 -0.4915  0.0988
   28MOL   O13313147   4.871   2.105   1.836  0.0707 -0.4222  0.3477
   28MOL   H13413148   4.919   1.200   1.719 -1.6709 -1.9627 -1.7998
   28MOL   H13513149   5.018   1.075   1.653 -0.3676 -0.6730  0.8145
   28MOL   H13613150   5.217   1.187   1.708  1.1227  1.4634  0.3477
   28MOL   H13713151   5.134   1.183   1.854  0.9048  1.2142  0.6078
   28MOL   H13813152   5.154   1.443   1.692 -0.3682  1.5698  1.0890
   28MOL   H13913153   5.238   1.393   1.844 -1.6841 -1.3064  2.4007
   28MOL   H14013154   4.940   1.392   1.798 -0.2409 -1.2300 -0.5898
   28MOL   H14113155   5.035   1.377   1.955  0.1409  0.9358  0.2781
   28MOL   H14213156   5.021   1.819   1.810  0.0062 -0.5402 -0.0569
   28MOL   H14313157   5.062   1.783   1.972 -1.1955  2.1298  0.8346
   28MOL   H14413158   4.785   1.850   1.990  0.0619 -1.5164  0.0335
   28MOL   H14513159   4.922   1.940   2.040 -0.7291  1.6531 -0.3968
   28MOL   O14613160   4.773   1.925   1.737 -0.5409 -0.0335  0.4844
   28MOL   C14713161   4.744   1.979   1.611  0.2406 -0.3601  0.3916
   28MOL   C14813162   4.592   2.019   1.613  0.6712 -0.0688 -0.7594
   28MOL   C14913163   4.528   2.076   1.480  0.4573 -0.3663  0.3721
   28MOL   C15013164   4.527   1.977   1.366 -0.6574  0.0984 -0.2509
   28MOL   O15113165   4.522   2.045   1.239 -0.5648 -0.0012 -0.1228
   28MOL   C15213166   4.636   2.080   1.179  0.5002  0.2078 -0.2553
   28MOL   O15313167   4.744   2.063   1.232  0.1339  0.4252 -0.3595
   28MOL   C15413168   4.614   2.136   1.033  0.3506  0.0659 -1.1747
   28MOL   C15513169   4.750   2.174   0.979 -0.0483 -0.2288 -0.6606
   28MOL   C15613170   4.821   2.050   0.906 -0.1812 -0.9608 -0.6438
   28MOL   O15713171   4.932   2.011   0.937 -0.1605  0.3840  0.3745
   28MOL   H15813172   4.802   2.069   1.590 -2.0396  0.9247 -0.5282
   28MOL   H15913173   4.771   1.903   1.537  1.0460  0.8548 -0.5893
   28MOL   H16013174   4.578   2.100   1.684 -1.3429 -1.1379  0.0912
   28MOL   H16113175   4.524   1.939   1.643 -1.5656  1.3306 -1.9322
   28MOL   H16213176   4.596   2.150   1.439 -0.9253 -0.8948 -2.9693
   28MOL   H16313177   4.424   2.109   1.484  0.7932  0.6990  0.5755
   28MOL   H16413178   4.603   1.900   1.375  1.9571  2.5468 -0.7022
   28MOL   H16513179   4.435   1.921   1.380 -0.5388  0.3029  1.3875
   28MOL   H16613180   4.559   2.229   1.048  2.6410  0.9560  2.3337
   28MOL   H16713181   4.555   2.066   0.974 -0.3107  0.4778 -1.0123
   28MOL   H16813182   4.731   2.246   0.899  1.2625  0.3920 -0.4303
   28MOL   H16913183   4.815   2.222   1.051 -1.4413 -0.6410  0.8945
   28MOL   O17013184   4.741   1.988   0.816 -0.1365 -0.3772  0.3231
   28MOL   C17113185   4.789   1.878   0.738  0.3808 -0.0299 -0.6450
   28MOL   C17213186   4.665   1.824   0.669  0.1572 -0.7834 -0.1400
   28MOL   C17313187   4.690   1.716   0.557 -0.1447 -0.3342 -0.4114
   28MOL   C17413188   4.746   1.774   0.425  0.1686  0.3195 -0.7504
   28MOL   O17513189   4.788   1.668   0.345 -0.5081  0.3601  0.2793
   28MOL   C17613190   4.691   1.583   0.288  1.0955 -0.1521 -0.1388
   28MOL   O17713191   4.572   1.613   0.284  0.2353  0.0536 -0.2201
   28MOL   C17813192   4.751   1.462   0.219  0.4632  0.4657  0.0949
   28MOL   C17913193   4.722   1.333   0.307  0.4163 -0.9724  0.2770
   28MOL   C18013194   4.633   1.235   0.234  0.3306  0.2501  0.1699
   28MOL   O18113195   4.621   1.228   0.111  0.2210 -0.5097 -0.0222
   28MOL   H18213196   4.864   1.902   0.663  0.4475  0.9175 -0.2919
   28MOL   H18313197   4.837   1.809   0.808  1.1330  0.5922 -0.5348
   28MOL   H18413198   4.612   1.904   0.616  0.2293  0.7406  2.0394
   28MOL   H18513199   4.602   1.779   0.745  0.6273 -2.7124 -0.8479
   28MOL   H18613200   4.600   1.656   0.550 -0.0441 -0.8478  2.1513
   28MOL   H18713201   4.765   1.645   0.592  1.4099  0.4515 -2.0509
   28MOL   H18813202   4.680   1.838   0.368  0.7868  1.1915 -0.4956
   28MOL   H18913203   4.839   1.830   0.439  1.1811 -1.2029 -1.1939
   28MOL   H19013204   4.860   1.466   0.208  0.3749  1.2592 -0.5406
   28MOL   H19113205   4.726   1.455   0.113 -3.3891 -0.4194  0.9745
   28MOL   H19213206   4.817   1.286   0.332  1.6433  1.8583  1.0066
   28MOL   H19313207   4.670   1.355   0.400 -0.2512 -0.6710 -0.1623
   28MOL   O19413208   4.575   1.154   0.316 -0.0153  0.0929 -0.0832
   28MOL   C19513209   4.508   1.040   0.266 -0.0635  0.0944 -0.1359
   28MOL   C19613210   4.432   0.974   0.378 -0.2126 -0.0764  0.1727
   28MOL   C19713211   4.350   0.849   0.334 -0.6952  0.4720 -0.1873
   28MOL   C19813212   4.431   0.732   0.272 -0.2022 -0.4173  0.9273
   28MOL   O19913213   4.516   0.672   0.364  0.2838  0.4760  0.0798
   28MOL   C20013214   4.512   0.541   0.378  0.4502  0.0280 -0.2766
   28MOL   O20113215   4.482   0.462   0.289 -0.1947 -0.2260  0.5589
   28MOL   C20213216   4.561   0.497   0.518 -0.0841  0.5894  0.3475
   28MOL   C20313217   4.573   0.345   0.556 -0.5014  0.1937 -0.4529
   28MOL   C20413218   4.511   0.315   0.690 -0.2323  0.2849 -0.5537
   28MOL   O20513219   4.569   0.333   0.797  0.0881  0.2622 -0.6647
   28MOL   H20613220   4.440   1.076   0.189  0.3099  1.6803  0.2488
   28MOL   H20713221   4.585   0.974   0.228  0.7162 -1.0339  3.2254
   28MOL   H20813222   4.378   1.047   0.438  1.7355  2.0711 -0.5736
   28MOL   H20913223   4.503   0.931   0.449  0.4104 -2.1083 -1.6442
   28MOL   H21013224   4.269   0.880   0.268 -1.5624  0.5560  0.9023
   28MOL   H21113225   4.294   0.801   0.415 -1.9269 -2.9031 -2.9432
   28MOL   H21213226   4.369   0.657   0.223 -2.0035  1.6711 -0.0454
   28MOL   H21313227   4.493   0.780   0.197  1.1987 -0.8472  1.7878
   28MOL   H21413228   4.498   0.543   0.594  0.4583  1.8190  0.0612
   28MOL   H21513229   4.659   0.541   0.531 -0.6060  1.4876  1.2900
   28MOL   H21613230   4.533   0.283   0.476 -0.6180 -0.7441  0.3121
   28MOL   H21713231   4.681   0.333   0.550 -0.0881  2.9604  0.7612
   28MOL   O21813232   4.382   0.270   0.679 -0.0177  0.5972 -0.0420
   28MOL   C21913233   4.310   0.238   0.800 -0.0244  0.4038  0.6692
   28MOL   C22013234   4.338   0.091   0.838 -0.6354  0.5197  0.2511
   28MOL   C22113235   4.321   7.858   0.733 -0.7111 -0.7539  0.1161
   28MOL   C22213236   4.394   7.727   0.777  0.4315  0.0982  0.0939
   28MOL   O22313237   4.362   7.686   0.905 -0.0256 -0.2978  0.1671
   28MOL   C22413238   4.254   7.623   0.925 -0.1403 -0.2434 -0.1327
   28MOL   O22513239   4.173   7.596   0.840 -0.4866  0.4383  0.4496
   28MOL   C22613240   4.239   7.578   1.070 -0.5006  0.4757 -0.2714
   28MOL   C22713241   4.106   7.636   1.135  0.0564  0.5700  0.8466
   28MOL   C22813242   3.978   7.554   1.104 -0.2642 -0.2564  0.6935
   28MOL   O22913243   3.888   7.596   1.031 -0.1405  0.3705  0.3853
   28MOL   H23013244   4.333   0.316   0.872  1.5549  0.6656 -0.1016
   28MOL   H23113245   4.204   0.251   0.773  0.3787  2.0777 -0.2330
   28MOL   H23213246   4.270   0.065   0.919  0.6241 -2.5579  0.3841
   28MOL   H23313247   4.441   0.084   0.875 -0.4156  0.1118 -0.4301
   28MOL   H23413248   4.371   0.015   0.642 -0.5083  1.6099  1.0187
   28MOL   H23513249   4.218   7.835   0.710  0.1769 -0.6563 -4.3962
   28MOL   H23613250   4.379   7.653   0.698 -3.0738 -1.2451  1.8717
   28MOL   H23713251   4.500   7.750   0.785  0.4699 -0.0955  0.1542
   28MOL   H23813252   4.321   7.616   1.130 -0.7198  0.2654  0.1621
   28MOL   H23913253   4.245   7.469   1.073 -0.4133  0.4668 -0.8147
   28MOL   H24013254   4.105   7.622   1.243 -2.1336 -0.7037  0.6953
   28MOL   H24113255   4.099   7.741   1.106  0.3416  0.3170 -0.1647
   28MOL   O24213256   3.980   7.427   1.159  0.5626  0.8766 -0.2988
   28MOL   C24313257   3.857   7.353   1.147 -0.4812  0.4785  0.2161
   28MOL   C24413258   3.864   7.214   1.220 -0.1445  0.2894 -0.4935
   28MOL   C24513259   3.989   7.137   1.159  0.3393  0.6603  0.1069
   28MOL   C24613260   3.996   6.985   1.208  0.1178 -0.0097  1.4684
   28MOL   O24713261   4.112   6.910   1.158  0.6626 -0.3490  0.2494
   28MOL   C24813262   4.109   6.775   1.165 -0.8990  0.4897 -0.4117
   28MOL   O24913263   4.016   6.711   1.205 -0.2927  0.5471 -0.0554
   28MOL   C25013264   4.242   6.702   1.136 -0.6042  0.0789  0.2182
   28MOL   C25113265   4.274   6.694   0.985  0.0520  0.1328  0.4236
   28MOL   C25213266   4.291   6.550   0.932 -0.0301 -0.5551  0.3699
   28MOL   O25313267   4.223   6.506   0.835 -0.2084 -0.3334  0.5913
   28MOL   H25413268   3.779   7.408   1.200 -0.6707  0.4659 -0.0487
   28MOL   H25513269   3.819   7.344   1.046 -1.8267 -0.3989  0.7840
   28MOL   H25613270   3.779   7.146   1.212 -0.3550  0.5346 -0.3323
   28MOL   H25713271   3.880   7.221   1.327 -3.8152 -0.7897  0.1977
   28MOL   H25813272   4.078   7.200   1.162  1.7899 -1.2603 -0.9078
   28MOL   H25913273   3.987   7.129   1.050 -1.7581  1.0073  0.0929
   28MOL   H26013274   3.994   6.977   1.317  1.3965 -0.9680  1.4238
   28MOL   H26113275   3.904   6.948   1.162  1.4271 -1.3082 -0.1256
   28MOL   H26213276   4.242   6.604   1.183 -1.9174  0.8942  1.9597
   28MOL   H26313277   4.317   6.760   1.188  0.2428  0.0817 -0.9738
   28MOL   H26413278   4.187   6.739   0.938  0.7370  2.9507  1.7741
   28MOL   H26513279   4.365   6.749   0.959 -0.4963  1.1072  0.5604
   28MOL   O26613280   4.378   6.479   0.991 -0.2136 -0.2502  0.7269
   28MOL   C26713281   4.411   6.347   0.936 -0.1001  0.0289  0.1325
   28MOL   C26813282   4.516   6.264   1.013 -0.6064 -0.0380  0.3657
   28MOL   C26913283   4.491   6.257   1.167 -0.2657  0.3742 -0.4895
   28MOL   C27013284   4.347   6.224   1.204 -0.2662  0.2582  0.0434
   28MOL   O27113285   4.332   6.237   1.347 -0.4316 -0.1630 -0.0545
   28MOL   C27213286   4.225   6.301   1.401  0.0431  0.7427 -0.1588
   28MOL   O27313287   4.124   6.339   1.336 -0.6152 -0.4118 -0.1601
   28MOL   C27413288   4.219   6.309   1.555  0.7080 -0.0922 -0.0815
   28MOL   C27513289   4.355   6.354   1.615  0.0823 -0.5747 -0.4586
   28MOL   C27613290   4.357   6.509   1.616 -0.1748 -0.2582 -0.4653
   28MOL   O27713291   4.383   6.573   1.714 -0.5214  0.9620 -0.5915
   28MOL   H27813292   4.317   6.293   0.926 -1.6681  2.9427 -1.5939
   28MOL   H27913293   4.448   6.364   0.835 -0.3146 -2.3347 -0.3570
   28MOL   H28013294   4.614   6.310   0.998 -0.1237 -1.2081 -0.1984
   28MOL   H28113295   4.516   6.166   0.965  1.0641 -0.0163  0.2723
   28MOL   H28213296   4.514   6.351   1.217 -2.2372  1.1050 -0.9003
   28MOL   H28313297   4.567   6.190   1.207 -0.7251 -0.0117 -0.2557
   28MOL   H28413298   4.282   6.304   1.167 -2.0483 -0.2749  1.8698
   28MOL   H28513299   4.311   6.128   1.168  2.4557 -1.6124  2.1153
   28MOL   H28613300   4.199   6.207   1.589 -2.5832  0.8142  0.9603
   28MOL   H28713301   4.132   6.370   1.582  1.0149  1.0875 -1.7091
   28MOL   H28813302   4.362   6.316   1.717 -0.0645  3.6774  1.2507
   28MOL   H28913303   4.446   6.335   1.559  0.8491  1.0891  0.1885
   28MOL   O29013304   4.346   6.565   1.494  0.1990  0.2636 -0.1494
   28MOL   C29113305   4.376   6.699   1.468  0.0902  0.7965 -0.6894
   28MOL   C29213306   4.508   6.722   1.400 -0.0742  0.0682  0.2729
   28MOL   C29313307   4.634   6.733   1.490  0.0166 -0.9072  0.1144
   28MOL   C29413308   4.769   6.777   1.433  0.1514  0.4909  0.0449
   28MOL   O29513309   4.869   6.717   1.505  0.1995  0.2471  0.5842
   28MOL   C29613310   4.944   6.787   1.586 -0.5378 -0.4212  0.9809
   28MOL   O29713311   4.947   6.907   1.593  0.4138 -0.1257  0.0887
   28MOL   C29813312   5.023   6.693   1.682  0.6422  0.5558 -0.7318
   28MOL   C29913313   4.927   6.615   1.780 -0.3458  0.1343 -0.0515
   28MOL   C30013314   4.887   6.705   1.896  0.0050 -0.2978 -0.3791
   28MOL   O30113315   4.971   6.725   1.986  0.0517 -0.0635  0.4811
   28MOL   H30213316   4.294   6.730   1.403  0.4317 -1.0084 -2.0303
   28MOL   H30313317   4.368   6.768   1.552 -2.1006  1.1152 -1.1268
   28MOL   H30413318   4.509   6.820   1.352 -2.4289  0.2037  0.4583
   28MOL   H30513319   4.529   6.645   1.325  2.5169 -0.3516  1.3803
   28MOL   H30613320   4.648   6.633   1.531 -0.6820 -0.8357  0.5371
   28MOL   H30713321   4.609   6.799   1.573 -0.0264 -1.8982  0.8898
   28MOL   H30813322   4.779   6.727   1.337 -0.7693  1.3274 -0.5028
   28MOL   H30913323   4.781   6.885   1.420 -0.5592  0.7315  1.3047
   28MOL   H31013324   5.089   6.754   1.743 -0.5558  0.1986  0.9751
   28MOL   H31113325   5.076   6.616   1.627  1.0085 -1.0694  1.7915
   28MOL   H31213326   4.841   6.575   1.727 -1.5228  0.0576  1.8605
   28MOL   H31313327   4.975   6.524   1.816  2.6164  1.7824  0.3611
   28MOL   O31413328   4.761   6.751   1.895  0.5450  0.2791 -0.1082
   28MOL   C31513329   4.721   6.824   2.009  0.7256  0.0648  0.7365
   28MOL   C31613330   4.566   6.829   2.005 -0.0239  0.9086  0.2475
   28MOL   C31713331   4.495   6.915   1.896 -0.0802  0.6996  0.1631
   28MOL   C31813332   4.342   6.890   1.896 -0.2036 -0.3472 -0.8089
   28MOL   O31913333   4.291   6.925   1.768 -0.0459  0.6720  0.4982
   28MOL   C32013334   4.169   6.982   1.755 -0.0719  0.6766 -0.4255
   28MOL   O32113335   4.110   7.020   1.851  0.6097  0.3489  0.1716
   28MOL   C32213336   4.115   6.985   1.615 -0.2889  0.3504  0.0886
   28MOL   C32313337   4.167   7.095   1.531  0.4776  0.6666  0.2090
   28MOL   C32413338   4.304   7.067   1.483 -0.0515  0.6877 -0.3848
   28MOL   O32513339   4.321   7.021   1.370 -0.0419 -0.1639 -0.3384
   28MOL   H32613340   4.756   6.783   2.104  1.0236  0.3145  0.7373
   28MOL   H32713341   4.751   6.927   1.989  0.5263 -0.1676 -0.8472
   28MOL   H32813342   4.533   6.861   2.104 -1.0584 -1.5554  0.7265
   28MOL   H32913343   4.521   6.730   2.003  0.6267  0.5346  2.3642
   28MOL   H33013344   4.545   6.880   1.805  2.6203  0.9186  1.5450
   28MOL   H33113345   4.501   7.024   1.895  1.9135  0.6712 -4.0957
   28MOL   H33213346   4.295   6.796   1.924 -1.0874 -0.0792 -1.3463
   28MOL   H33313347   4.304   6.960   1.970 -1.1163 -0.6736 -0.9655
   28MOL   H33413348   4.010   7.013   1.626 -0.6618  0.2215 -2.7119
   28MOL   H33513349   4.117   6.888   1.563 -2.0839 -0.1716  0.9552
   28MOL   H33613350   4.092   7.101   1.453  0.2244 -1.1020  0.2985
   28MOL   H33713351   4.167   7.188   1.588  1.6576  2.3046 -2.3816
   28MOL   O33813352   4.399   7.105   1.572  0.0547 -0.1802  0.3511
   28MOL   C33913353   4.540   7.095   1.539  0.3089  0.6206  0.1597
   28MOL   C34013354   4.611   7.230   1.542 -0.4834  0.5756 -0.2904
   28MOL   C34113355   4.760   7.236   1.490 -0.1589 -0.1340 -0.5490
   28MOL   C34213356   4.815   7.370   1.465 -0.3331  0.2079  0.5113
   28MOL   O34313357   4.833   7.440   1.584 -0.9614  0.5714 -0.0274
   28MOL   C34413358   4.877   7.568   1.587 -0.0478  0.5025  0.5326
   28MOL   O34513359   4.909   7.631   1.487  0.0465  0.1603 -0.4998
   28MOL   C34613360   4.889   7.630   1.726  0.3592 -0.2862 -0.1209
   28MOL   C34713361   4.752   7.645   1.795  0.2575  0.3256  0.2613
   28MOL   C34813362   4.727   7.535   1.901  0.3047 -0.5167 -0.4224
   28MOL   O34913363   4.758   7.544   2.020 -0.3693  0.1500 -0.3957
   28MOL   H35013364   4.579   7.021   1.609 -1.6992 -0.8075 -0.1700
   28MOL   H35113365   4.540   7.041   1.444 -0.0250 -0.9337  1.0250
   28MOL   H35213366   4.598   7.277   1.639 -0.4974 -0.1070  0.0406
   28MOL   H35313367   4.561   7.301   1.476 -0.8768  0.9798  0.4388
   28MOL   H35413368   4.773   7.181   1.397  3.4573  0.7937 -0.6968
   28MOL   H35513369   4.824   7.192   1.566  1.5574  1.0552 -1.2496
   28MOL   H35613370   4.916   7.378   1.424 -0.4923  1.4479  0.3317
   28MOL   H35713371   4.745   7.424   1.400 -0.4134 -1.8814 -1.1936
   28MOL   H35813372   4.936   7.727   1.710 -0.4672 -0.0235 -1.0304
   28MOL   H35913373   4.965   7.574   1.781  2.0910  3.1314  1.1076
   28MOL   H36013374   4.754   7.744   1.840 -1.9406 -0.2664  1.7210
   28MOL   H36113375   4.670   7.646   1.723  0.1030  1.9862  0.4474
   28MOL   O36213376   4.667   7.427   1.850  0.2923  0.3897 -0.1417
   28MOL   C36313377   4.638   7.312   1.935 -0.6865 -0.2116 -0.3962
   28MOL   C36413378   4.726   7.189   1.918  0.1594 -0.7009 -0.1432
   28MOL   C36513379   4.876   7.230   1.917  0.2064  0.6952 -0.1335
   28MOL   C36613380   4.979   7.110   1.927  0.1631 -0.0355 -0.1729
   28MOL   O36713381   5.107   7.166   1.930  0.1834 -0.0322 -0.2656
   28MOL   C36813382   5.154   7.234   1.825  0.1787 -0.6776 -1.0469
   28MOL   O36913383   5.123   7.233   1.711  0.4683  0.2652 -0.0338
   28MOL   C37013384   5.273   7.317   1.864 -0.1270 -0.2409 -0.9601
   28MOL   C37113385   5.243   7.428   1.977 -0.6543 -0.1494  0.1944
   28MOL   C37213386   5.209   7.559   1.919 -0.6078 -0.0981 -0.3821
   28MOL   O37313387   5.230   7.584   1.799  0.0593  0.1563 -0.3545
   28MOL   H37413388   4.639   7.343   2.040  0.9508 -0.2034 -0.3992
   28MOL   H37513389   4.535   7.280   1.921 -1.7015  2.7147 -0.0364
   28MOL   H37613390   4.693   7.138   1.828  1.1079 -1.4050 -0.0915
   28MOL   H37713391   4.712   7.117   1.998  0.5247  1.8307  2.3018
   28MOL   H37813392   4.881   7.307   1.994 -0.1294 -0.2825  0.8639
   28MOL   H37913393   4.887   7.281   1.821 -0.5997  0.6087 -0.2728
   28MOL   H38013394   4.975   7.061   2.024  0.4127  1.2387  0.4836
   28MOL   H38113395   4.975   7.042   1.842 -2.4296  1.5558 -1.3868
   28MOL   H38213396   5.334   7.350   1.780  0.0920 -0.6824 -0.9765
   28MOL   H38313397   5.332   7.244   1.918  3.2195  4.1752  1.7181
   28MOL   H38413398   5.154   7.403   2.034  0.2306 -1.9387  0.8519
   28MOL   H38513399   5.325   7.446   2.046 -0.2480 -0.6004 -0.1684
   28MOL   O38613400   5.156   7.648   2.009  0.5384 -0.5009 -0.4983
   28MOL   C38713401   5.122   7.776   1.968  0.5471 -0.1915  0.0853
   28MOL   C38813402   5.065   7.872   2.068 -0.2867 -0.0703 -0.2685
   28MOL   C38913403   5.171   0.010   2.191 -0.1134  0.1990  0.0838
   28MOL   C39013404   5.127   0.105   2.298  0.2218  0.0794  0.3625
   28MOL   O39113405   5.005   0.062   2.349 -0.2794  0.6649 -0.1708
   28MOL   C39213406   4.897   0.136   2.342  0.4212  0.2960 -0.3226
   28MOL   O39313407   4.904   0.255   2.310  0.0585  0.0148  0.0024
   28MOL   C39413408   4.773   0.059   2.380  0.5127  0.0080 -0.1371
   28MOL   C39513409   4.729   7.842   2.271  0.8594  0.4565 -0.2654
   28MOL   C39613410   4.575   7.838   2.260 -0.1371  0.0986  0.3763
   28MOL   O39713411   4.500   0.009   2.341 -0.1224 -0.3143 -0.0948
   28MOL   H39813412   5.210   7.828   1.929  1.1003 -2.6936 -2.0935
   28MOL   H39913413   5.067   7.761   1.875  1.8981 -2.3250 -0.3786
   28MOL   H40013414   4.967   7.835   2.098 -0.9368  1.4239 -0.4764
   28MOL   H40113415   5.027   0.090   2.025 -0.4626 -0.4951 -1.0349
   28MOL   H40213416   5.274   0.027   2.157 -0.4647  1.9058 -0.1941
   28MOL   H40313417   5.193   7.789   2.237  0.7214 -0.3027 -1.3230
   28MOL   H40413418   5.201   0.106   2.378 -0.3011 -0.4061  0.8577
   28MOL   H40513419   5.118   0.203   2.252  0.1814  0.0919  0.3969
   28MOL   H40613420   4.701   0.141   2.384  0.1725 -0.2407 -1.0578
   28MOL   H40713421   4.781   0.001   2.472 -0.2702 -0.7693 -0.5425
   28MOL   H40813422   4.755   7.869   2.169  0.3127  1.4147 -0.1532
   28MOL   H40913423   4.764   7.741   2.293  1.9130  1.1503  1.3865
   28MOL   O41013424   4.546   7.760   2.158  1.3339 -0.1020 -0.3222
   28MOL   C41113425   4.404   7.751   2.121  0.7324 -0.2391 -0.0106
   28MOL   C41213426   4.396   7.748   1.966 -0.2349 -0.0888 -0.6611
   28MOL   C41313427   4.259   7.702   1.928 -0.6462 -0.3246  0.3096
   28MOL   C41413428   4.222   7.717   1.779 -0.1467 -0.5830  0.4487
   28MOL   O41513429   4.304   7.637   1.689 -0.5408 -0.8599 -0.1463
   28MOL   C41613430   4.258   7.526   1.639 -0.4535 -0.0444  0.6973
   28MOL   O41713431   4.155   7.467   1.667  0.5399 -0.3833 -0.4905
   28MOL   C41813432   4.351   7.456   1.547 -0.0606 -0.3170 -0.8075
   28MOL   C41913433   4.350   7.530   1.412 -0.8996  0.1774 -0.0689
   28MOL   C42013434   4.491   7.598   1.389 -0.0596 -0.4080 -0.3933
   28MOL   O42113435   4.572   7.620   1.486 -0.2882 -0.0485  0.4970
   28MOL   H42213436   4.361   7.662   2.168 -0.0339  0.6641  1.0404
   28MOL   H42313437   4.351   7.839   2.157 -0.6340 -2.1304  2.8530
   28MOL   H42413438   4.471   7.681   1.924 -0.4374 -1.0464  0.4810
   28MOL   H42513439   4.423   7.847   1.928  2.7836 -0.0497  1.4105
   28MOL   H42613440   4.188   7.762   1.986  2.9105  3.4787  0.9787
   28MOL   H42713441   4.234   7.599   1.955 -0.9195 -0.3605 -0.0812
   28MOL   H42813442   4.117   7.690   1.768 -0.1878  0.0148 -0.6826
   28MOL   H42913443   4.229   7.824   1.760  4.0827 -0.5334  1.6607
   28MOL   H43013444   4.307   7.356   1.540 -1.7641  0.5139 -2.4869
   28MOL   H43113445   4.452   7.456   1.587 -0.6944 -1.4189  0.8690
   28MOL   H43213446   4.339   7.457   1.332  0.6512 -0.1026 -0.0567
   28MOL   H43313447   4.279   7.613   1.408 -0.9005  0.1860  0.1443
   28MOL   O43413448   4.510   7.637   1.266  0.8186  0.4453 -0.0128
   28MOL   C43513449   4.637   7.681   1.217 -0.2743  0.9102  0.1740
   28MOL   C43613450   4.687   7.609   1.086 -0.0469 -0.0984 -0.5765
   28MOL   C43713451   4.685   7.457   1.095  0.5733  0.0704 -0.4220
   28MOL   C43813452   4.727   7.401   0.960  0.9279 -0.3234  0.1726
   28MOL   O43913453   4.863   7.434   0.928 -0.4301  0.1983 -0.4378
   28MOL   C44013454   4.980   7.373   0.979 -0.1713 -0.3988 -0.3352
   28MOL   O44113455   4.985   7.282   1.063  0.0870 -0.1126  0.1121
   28MOL   C44213456   5.112   7.420   0.910  0.1860 -1.5255  0.7388
   28MOL   C44313457   5.138   7.573   0.924 -0.5643  0.2377  0.3563
   28MOL   C44413458   5.195   7.639   0.791  0.9814  0.3391 -0.0828
   28MOL   O44513459   5.134   7.726   0.738 -0.0784 -0.2420  0.7237
   28MOL   H44613460   4.636   7.787   1.193  0.7419  0.9056  0.1215
   28MOL   H44713461   4.710   7.644   1.289  0.0764  3.1697  1.0280
   28MOL   H44813462   4.785   7.650   1.061  1.2396 -2.4285  0.5304
   28MOL   H44913463   4.626   7.637   1.000  0.5128  1.1109 -0.5950
   28MOL   H45013464   4.584   7.420   1.116  0.3155  0.0175 -1.7176
   28MOL   H45113465   4.765   7.422   1.160 -0.7650  1.7416  2.2216
   28MOL   H45213466   4.710   7.294   0.968 -3.1399  0.1712 -0.5760
   28MOL   H45313467   4.650   7.428   0.887 -0.7675  0.6913  2.2791
   28MOL   H45413468   5.118   7.389   0.805  0.3924  0.8940  0.0062
   28MOL   H45513469   5.195   7.371   0.961  0.7306  0.0435  1.3816
   28MOL   H45613470   5.049   7.635   0.931 -0.0642  1.0839 -0.5515
   28MOL   H45713471   5.220   7.594   0.993 -1.6278  0.7406  1.4689
   28MOL   O45813472   5.307   7.590   0.746 -0.3114  0.6023  0.2619
   28MOL   C45913473   5.364   7.643   0.629 -0.4543 -0.4772 -0.7078
   28MOL   C46013474   5.324   7.589   0.491  0.5250  0.2747  0.6209
   28MOL   C46113475   5.374   7.442   0.464 -0.2514 -0.3941 -0.4419
   28MOL   C46213476   5.308   7.336   0.553 -0.6614 -0.1969  0.4761
   28MOL   O46313477   5.162   7.323   0.545  0.0806 -0.3954  0.2593
   28MOL   C46413478   5.099   7.201   0.589 -0.1200  0.4562  0.5788
   28MOL   O46513479   5.154   7.100   0.623  0.3116  0.0144 -0.2262
   28MOL   C46613480   4.948   7.219   0.590 -0.4234  0.6963  0.4636
   28MOL   C46713481   4.872   7.090   0.618  0.2335 -0.2277 -0.5500
   28MOL   C46813482   4.854   6.997   0.502 -0.2085  0.6074  0.1833
   28MOL   O46913483   4.856   7.038   0.391 -0.2316 -0.2061 -0.5829
   28MOL   H47013484   5.339   7.749   0.630 -0.4517 -0.4886  0.6333
   28MOL   H47113485   5.472   7.647   0.643 -0.5845  2.0644 -0.0516
   28MOL   H47213486   5.365   7.660   0.419  2.5174 -1.5652 -0.1075
   28MOL   H47313487   5.216   7.596   0.474  0.8237  1.2581 -1.0030
   28MOL   H47413488   5.482   7.452   0.474 -0.0681 -1.0240 -1.7645
   28MOL   H47513489   5.365   7.407   0.361 -1.6962 -3.4122  0.6228
   28MOL   H47613490   5.347   7.241   0.516  0.8322  0.3396  0.6579
   28MOL   H47713491   5.332   7.345   0.659  0.8178 -0.6272  0.1903
   28MOL   H47813492   4.908   7.258   0.496  0.0386 -2.0495 -0.9102
   28MOL   H47913493   4.928   7.293   0.667 -0.5474  0.3609  0.7554
   28MOL   H48013494   4.929   7.036   0.693 -0.5131  1.7760  1.5366
   28MOL   H48113495   4.786   7.122   0.677 -0.2268 -0.5477 -1.0334
   28MOL   H48213496   4.832   6.894   0.531  0.9444  0.4492  0.5466
   29MOL     O113497   1.611   5.639   1.890  0.4400  0.2785  0.9658
   29MOL     C213498   1.736   5.661   1.958  0.6362 -0.3586 -0.5140
   29MOL     C313499   1.760   5.553   2.063  0.2985  0.7294  0.1065
   29MOL     C413500   1.771   5.414   2.011  0.1481 -0.2662 -0.1215
   29MOL     C513501   1.854   5.315   2.096 -0.1208 -0.1281 -0.2546
   29MOL     O613502   1.780   5.268   2.205 -0.0603  0.2364  0.0802
   29MOL     C713503   1.815   5.155   2.267 -0.4081  0.7917  0.1359
   29MOL     O813504   1.904   5.085   2.227  0.1463 -0.2425 -0.2846
   29MOL     C913505   1.724   5.113   2.383  0.0422 -0.0045  0.3464
   29MOL    C1013506   1.737   5.207   2.514  0.0830  0.6509  1.2142
   29MOL    C1113507   1.615   5.295   2.524  0.0685  0.3548 -0.3029
   29MOL    O1213508   1.608   5.394   2.449  0.2644  0.4953  0.1845
   29MOL    H1313509   1.826   5.659   1.896  2.0856 -3.8404  1.5263
   29MOL    H1413510   1.729   5.754   2.015  0.7475 -0.9111  0.4074
   29MOL    H1513511   1.670   5.559   2.124 -1.0139 -0.4289 -1.6707
   29MOL    H1613512   1.848   5.573   2.124  0.2505 -1.2368  0.8343
   29MOL    H1713513   1.805   5.404   1.908 -1.8763 -0.6758 -0.7638
   29MOL    H1813514   1.671   5.371   2.008  0.1268 -0.3935  1.5138
   29MOL    H1913515   1.896   5.237   2.033  2.4410  0.5084  0.5848
   29MOL    H2013516   1.940   5.376   2.126 -0.6784  0.3439  0.4028
   29MOL    H2113517   1.762   5.013   2.405  0.7291  0.2999  0.5537
   29MOL    H2213518   1.621   5.107   2.347 -0.5597  2.5622  1.5719
   29MOL    H2313519   1.735   5.145   2.605  0.9093 -1.8087 -0.3922
   29MOL    H2413520   1.820   5.276   2.519  0.3906  0.3282  0.4947
   29MOL    H2513521   1.538   5.620   1.947  2.1655 -0.5670  2.9773
   29MOL    O2613522   1.528   5.244   2.609 -0.6144 -0.5870 -0.8927
   29MOL    C2713523   1.392   5.288   2.617 -0.3946  0.1971  0.2749
   29MOL    C2813524   1.324   5.236   2.746 -1.2788 -0.1707  0.6910
   29MOL    C2913525   1.289   5.083   2.721  0.1055 -0.8305 -0.6869
   29MOL    C3013526   1.185   5.071   2.610 -0.0889 -0.4687 -0.6593
   29MOL    O3113527   1.232   5.016   2.485 -1.4412  0.9601  0.2030
   29MOL    C3213528   1.247   4.876   2.476 -0.1541 -0.1852 -0.6803
   29MOL    O3313529   1.233   4.794   2.574  0.3943 -0.2381  0.1937
   29MOL    C3413530   1.290   4.821   2.338 -0.3745  0.5948 -0.0290
   29MOL    C3513531   1.341   4.674   2.334  0.4127  0.4926  0.0252
   29MOL    C3613532   1.233   4.570   2.306 -0.0545  0.6397  0.5905
   29MOL    O3713533   1.129   4.600   2.255 -0.4273  0.5254  0.3097
   29MOL    H3813534   1.394   5.397   2.617  1.1834  0.2115  2.8094
   29MOL    H3913535   1.337   5.264   2.526  1.5879 -0.9805 -0.6587
   29MOL    H4013536   1.223   5.276   2.753 -1.1949  0.3136 -0.6239
   29MOL    H4113537   1.379   5.242   2.840  0.6118 -2.1555 -0.2419
   29MOL    H4213538   1.229   5.065   2.810  0.4665  1.0853 -0.0489
   29MOL    H4313539   1.373   5.013   2.720  1.3182  0.5623  1.5946
   29MOL    H4413540   1.100   5.011   2.641 -0.7118 -0.5146 -2.3649
   29MOL    H4513541   1.146   5.170   2.584  1.7787  0.4340 -0.1257
   29MOL    H4613542   1.373   4.887   2.317  0.2092  0.1450  0.8214
   29MOL    H4713543   1.219   4.836   2.257 -1.4002 -2.1486  0.2872
   29MOL    H4813544   1.398   4.667   2.242  0.8127  0.9164  0.2329
   29MOL    H4913545   1.385   4.656   2.433  0.8397 -0.4817 -0.3363
   29MOL    O5013546   1.286   4.450   2.328  0.1420  0.3901  0.0270
   29MOL    C5113547   1.215   4.330   2.288  0.0649 -0.1759 -0.3191
   29MOL    C5213548   1.110   4.267   2.384  0.3127  0.1743 -0.6562
   29MOL    C5313549   0.988   4.360   2.416 -0.7924  0.7539 -0.6244
   29MOL    C5413550   0.858   4.294   2.477 -0.1492  0.0996 -0.2692
   29MOL    O5513551   0.741   4.374   2.446 -0.2274  0.2194  0.2192
   29MOL    C5613552   0.628   4.350   2.527 -0.2405 -0.7572  0.4447
   29MOL    O5713553   0.616   4.285   2.626 -0.2923  0.2425  0.1696
   29MOL    C5813554   0.500   4.429   2.478 -1.0556  0.2899  0.1246
   29MOL    C5913555   0.370   4.388   2.556 -0.4463 -0.4896 -0.1502
   29MOL    C6013556   0.256   4.388   2.458 -0.3421  0.2278  0.2078
   29MOL    O6113557   0.238   4.291   2.381  0.4574 -0.0164  0.6480
   29MOL    H6213558   1.166   4.345   2.191 -1.6927 -2.2308  0.2170
   29MOL    H6313559   1.299   4.262   2.272  0.1230 -0.4070  0.9549
   29MOL    H6413560   1.152   4.226   2.476  2.0966 -1.2178 -2.0447
   29MOL    H6513561   1.067   4.180   2.334 -0.0070  1.2247 -2.2742
   29MOL    H6613562   0.963   4.409   2.322  1.5343 -0.9899 -2.1935
   29MOL    H6713563   1.035   4.435   2.481  0.6185  1.3125 -2.2552
   29MOL    H6813564   0.848   4.197   2.427  0.3943  0.1374 -0.4471
   29MOL    H6913565   0.860   4.277   2.584 -2.1852  0.8421 -0.0734
   29MOL    H7013566   0.497   4.395   2.375 -0.7190  2.4477 -0.6129
   29MOL    H7113567   0.518   4.536   2.491 -0.5936  0.2751 -0.4057
   29MOL    H7213568   0.394   4.285   2.581  0.5928 -0.6979 -1.9145
   29MOL    H7313569   0.355   4.452   2.644  0.7815 -0.3964 -0.0043
   29MOL    O7413570   0.182   4.498   2.471 -0.0721 -0.9048 -0.8861
   29MOL    C7513571   0.069   4.514   2.385 -0.3136 -0.3346 -0.4610
   29MOL    C7613572   0.034   4.660   2.358 -0.2609 -0.0562  0.0615
   29MOL    C7713573   0.143   4.743   2.280 -0.1981 -0.0762 -0.2442
   29MOL    C7813574   0.278   4.745   2.349  0.7092 -0.1413  0.5175
   29MOL    O7913575   0.351   4.862   2.335 -0.0999  0.3098 -0.3854
   29MOL    C8013576   0.462   4.884   2.404 -0.5913 -0.5900 -0.8291
   29MOL    O8113577   0.525   4.801   2.468  0.0710  0.9799 -0.0566
   29MOL    C8213578   0.510   5.032   2.409 -0.1088 -0.1943  0.0108
   29MOL    C8313579   0.487   5.084   2.553  0.0148  0.0372  0.1598
   29MOL    C8413580   0.609   5.171   2.593  0.0219 -0.4434 -0.0497
   29MOL    O8513581   0.621   5.281   2.543 -0.0330  0.0986 -0.2839
   29MOL    H8613582   0.080   4.468   2.287  0.1427 -0.2061 -0.4680
   29MOL    H8713583   7.855   4.469   2.429 -1.5727  2.7249  0.2836
   29MOL    H8813584   0.026   4.710   2.455 -1.0584  2.2162 -1.1331
   29MOL    H8913585   7.811   4.672   2.311 -1.4060 -2.3898  1.7714
   29MOL    H9013586   0.113   4.847   2.263 -1.9260 -0.6932 -0.9902
   29MOL    H9113587   0.151   4.709   2.177  0.8152 -0.6858  0.0310
   29MOL    H9213588   0.272   4.753   2.457 -1.9882 -1.9605  0.5325
   29MOL    H9313589   0.335   4.652   2.346  0.4220 -0.2965 -0.9147
   29MOL    H9413590   0.465   5.093   2.331  2.5520 -1.8706 -3.0007
   29MOL    H9513591   0.618   5.022   2.392 -0.2389  1.4797 -1.9582
   29MOL    H9613592   0.397   5.146   2.554  0.5281  0.7846  1.0248
   29MOL    H9713593   0.478   5.008   2.630  1.9563 -0.9873 -0.5992
   29MOL    O9813594   0.697   5.106   2.681 -0.7500  0.2436  0.0260
   29MOL    C9913595   0.827   5.153   2.708 -0.4022 -0.2729  0.6326
   29MOL   C10013596   0.816   5.231   2.844  0.5003 -0.6068  0.2880
   29MOL   C10113597   0.937   5.306   2.902  0.1502 -0.0630 -0.0831
   29MOL   C10213598   0.918   5.393   3.023 -0.3694  0.7858 -0.4147
   29MOL   O10313599   0.858   5.512   2.990  0.1005  0.6853  0.4842
   29MOL   C10413600   0.843   5.609   3.078  0.9633  0.0043  0.9283
   29MOL   O10513601   0.902   5.620   3.188  0.4591  0.1699 -0.4880
   29MOL   C10613602   0.750   5.721   3.020  0.5368 -0.6733  0.2939
   29MOL   C10713603   0.622   5.661   2.965 -1.1544  0.1712  0.2990
   29MOL   C10813604   0.504   5.755   2.961  0.2068 -0.1106  0.3109
   29MOL   O10913605   0.392   5.715   2.986 -0.0394 -0.2662  0.1735
   29MOL   H11013606   0.898   5.071   2.720 -0.8040 -0.6943  0.1567
   29MOL   H11113607   0.848   5.214   2.620  1.0787  0.1387  1.2610
   29MOL   H11213608   0.766   5.170   2.920 -2.7821  2.1789  0.5064
   29MOL   H11313609   0.748   5.312   2.817  0.1171 -1.2967 -0.8078
   29MOL   H11413610   0.979   5.362   2.819 -2.3969  1.9493 -0.0740
   29MOL   H11513611   1.014   5.235   2.932  0.3488  0.3744  0.4289
   29MOL   H11613612   0.850   5.346   3.093 -1.7462  0.9788 -1.5921
   29MOL   H11713613   1.016   5.412   3.068 -0.5455 -0.5297  0.5433
   29MOL   H11813614   0.806   5.781   2.948 -1.1715  0.9405  0.2698
   29MOL   H11913615   0.719   5.787   3.101 -1.8325  0.2057 -1.2586
   29MOL   H12013616   0.644   5.618   2.867  1.4539  0.4846  0.7117
   29MOL   H12113617   0.585   5.579   3.027 -0.5680  0.1923  0.6799
   29MOL   O12213618   0.531   5.891   2.947 -0.2458  0.6214 -0.3206
   29MOL   C12313619   0.430   5.985   2.922  0.1904 -0.8950 -0.5541
   29MOL   C12413620   0.349   5.957   2.795 -0.0973 -0.5459 -0.2942
   29MOL   C12513621   0.433   5.953   2.668 -0.0829 -0.8051 -0.2044
   29MOL   C12613622   0.340   5.944   2.542 -0.7595  0.7611 -0.1185
   29MOL   O12713623   0.283   6.071   2.504 -0.0317 -0.5092 -0.3862
   29MOL   C12813624   0.223   6.091   2.388 -1.0535  0.8012  0.5025
   29MOL   O12913625   0.227   6.004   2.305  0.0848  0.2470  0.0836
   29MOL   C13013626   0.144   6.216   2.374  0.7904  0.1158  0.4006
   29MOL   C13113627   0.237   6.336   2.332  0.1591  0.0681  0.2570
   29MOL   C13213628   0.249   6.357   2.178  0.0472 -0.7382  0.5300
   29MOL   O13313629   0.238   6.269   2.091  0.2123 -0.4929  0.0690
   29MOL   H13413630   0.364   5.992   3.009  0.0375  1.5539 -0.8483
   29MOL   H13513631   0.484   6.079   2.911 -1.3775 -0.1659 -2.2958
   29MOL   H13613632   0.270   6.031   2.782  1.6616  1.8040  1.9095
   29MOL   H13713633   0.301   5.859   2.786 -0.6596 -0.5983  2.8467
   29MOL   H13813634   0.505   5.871   2.661 -1.3677 -2.5192  4.5928
   29MOL   H13913635   0.494   6.041   2.650  0.2867 -1.3955 -1.8976
   29MOL   H14013636   0.409   5.926   2.461 -0.5869 -0.4526  0.2947
   29MOL   H14113637   0.270   5.860   2.540 -1.1969  1.0994  0.5841
   29MOL   H14213638   0.098   6.249   2.468  1.6622  0.2434  0.7900
   29MOL   H14313639   0.073   6.202   2.293  0.9027  0.2946  0.2711
   29MOL   H14413640   0.215   6.424   2.393  1.3659 -0.8027  2.0098
   29MOL   H14513641   0.332   6.309   2.379  0.0478  1.2961  1.2481
   29MOL   O14613642   0.262   6.491   2.152  0.4625 -0.4943  0.5794
   29MOL   C14713643   0.264   6.526   2.013  0.2043 -0.4191  0.5425
   29MOL   C14813644   0.289   6.680   1.996 -0.2055 -0.3743  0.5317
   29MOL   C14913645   0.328   6.702   1.851 -0.5306  0.4872  1.1594
   29MOL   C15013646   0.319   6.849   1.814 -0.5673 -0.5753  0.8789
   29MOL   O15113647   0.184   6.900   1.839 -0.6006  0.0853  0.4376
   29MOL   C15213648   0.098   6.909   1.733 -0.1270  0.7330  0.0760
   29MOL   O15313649   0.123   6.907   1.613  0.2352 -0.2741 -0.3575
   29MOL   C15413650   7.835   6.918   1.785 -0.1206 -0.3225 -0.1945
   29MOL   C15513651   7.771   6.784   1.843 -0.0783 -0.6798  0.6326
   29MOL   C15613652   7.701   6.699   1.738 -0.4743 -0.6357  0.5086
   29MOL   O15713653   7.661   6.749   1.628  0.1333  0.1659 -0.8384
   29MOL   H15813654   0.349   6.484   1.960  1.7388  3.4340 -0.2242
   29MOL   H15913655   0.179   6.493   1.953  0.4580 -0.3635  0.1549
   29MOL   H16013656   0.362   6.727   2.062 -1.1540  2.3494 -0.2561
   29MOL   H16113657   0.193   6.725   2.022 -0.0262  0.3645 -0.0660
   29MOL   H16213658   0.252   6.644   1.798 -0.0194 -0.7258  1.7360
   29MOL   H16313659   0.429   6.674   1.819 -0.7090 -0.0360  1.0618
   29MOL   H16413660   0.388   6.901   1.880  0.6371 -2.3548  1.0218
   29MOL   H16513661   0.352   6.859   1.710 -0.8870 -3.0103  0.5114
   29MOL   H16613662   7.772   6.968   1.711 -0.1182 -0.9424 -0.6276
   29MOL   H16713663   7.851   6.990   1.865  2.0280 -1.6264  0.5937
   29MOL   H16813664   7.847   6.732   1.901  0.0601  0.2813  1.3139
   29MOL   H16913665   7.700   6.822   1.915 -0.8547  1.6151 -1.2933
   29MOL   O17013666   7.683   6.569   1.773  0.2929 -0.3070  0.0893
   29MOL   C17113667   7.595   6.486   1.698  0.4453  0.3858 -0.1131
   29MOL   C17213668   7.567   6.366   1.789  0.4222 -0.4458 -0.8704
   29MOL   C17313669   7.684   6.277   1.832 -0.4479 -0.1672  0.4158
   29MOL   C17413670   7.781   6.341   1.933  0.0818  0.3435  0.4924
   29MOL   O17513671   7.704   6.388   2.043 -0.7160 -0.4575  0.3847
   29MOL   C17613672   7.750   6.491   2.110 -0.3926 -0.5664 -0.1701
   29MOL   O17713673   7.839   6.564   2.071  0.5138  0.1375 -0.0982
   29MOL   C17813674   7.664   6.514   2.237  0.3995  0.4170  0.7059
   29MOL   C17913675   7.696   6.641   2.308  0.4209 -0.0529  0.3392
   29MOL   C18013676   7.565   6.717   2.337 -0.2915  0.0914 -0.2574
   29MOL   O18113677   7.537   6.825   2.286  0.0562 -0.0531  0.1149
   29MOL   H18213678   7.503   6.536   1.669  1.2495  1.6449 -0.5503
   29MOL   H18313679   7.638   6.451   1.604  0.8232  0.1455  0.1459
   29MOL   H18413680   7.501   6.302   1.731  1.0442 -1.9824  0.0856
   29MOL   H18513681   7.516   6.401   1.879 -1.5208  0.1332 -2.1809
   29MOL   H18613682   7.746   6.241   1.750 -0.4848  0.6741  0.0157
   29MOL   H18713683   7.646   6.188   1.882  0.0935 -0.2367  0.7028
   29MOL   H18813684   7.857   6.271   1.968  0.2092  0.4885  0.5028
   29MOL   H18913685   7.833   6.425   1.887 -0.9578  2.4158  2.9513
   29MOL   H19013686   7.706   6.430   2.292 -0.0616 -0.2729  0.0237
   29MOL   H19113687   7.558   6.492   2.219  0.7686  0.7274 -2.0740
   29MOL   H19213688   7.740   6.618   2.405  2.0443  1.9969  0.1232
   29MOL   H19313689   7.775   6.693   2.255  0.1543 -0.0055 -0.0145
   29MOL   O19413690   7.488   6.657   2.427 -0.2194 -0.0657 -0.5369
   29MOL   C19513691   7.366   6.706   2.470 -0.5359  0.2425  0.3145
   29MOL   C19613692   7.287   6.610   2.552  0.2774  0.0523  0.3384
   29MOL   C19713693   7.371   6.538   2.655  0.1590  0.3865  0.3830
   29MOL   C19813694   7.453   6.625   2.747  0.1154 -0.0093  0.0915
   29MOL   O19913695   7.511   6.543   2.845 -0.2851  0.3681 -0.8519
   29MOL   C20013696   7.505   6.592   2.983  0.4646 -0.8098  0.2109
   29MOL   O20113697   7.441   6.687   3.028  0.0295 -0.7240  0.0468
   29MOL   C20213698   7.603   6.515   3.075  0.1927 -0.9094 -0.5321
   29MOL   C20313699   7.575   6.363   3.072  0.2437  0.6199 -0.5972
   29MOL   C20413700   7.643   6.305   3.203  0.0606 -0.7316  0.7467
   29MOL   O20513701   7.588   6.218   3.265 -0.0344 -0.0391  0.0964
   29MOL   H20613702   7.385   6.805   2.512 -0.8048  0.6368 -0.4779
   29MOL   H20713703   7.297   6.738   2.392 -0.4360 -1.1602 -0.3656
   29MOL   H20813704   7.248   6.532   2.487  0.7400  0.5648 -0.5604
   29MOL   H20913705   7.202   6.661   2.599 -2.0920 -0.5057 -3.1160
   29MOL   H21013706   7.434   6.473   2.593 -2.0202 -2.0338  0.5871
   29MOL   H21113707   7.311   6.465   2.710  2.0975 -0.7451  1.0363
   29MOL   H21213708   7.530   6.672   2.686  1.1733 -1.2909  0.4137
   29MOL   H21313709   7.402   6.702   2.805 -1.9183 -1.8672  0.8425
   29MOL   H21413710   7.579   6.552   3.175  2.6027  0.2839 -0.3450
   29MOL   H21513711   7.704   6.545   3.045 -0.3389 -0.2711 -1.7012
   29MOL   H21613712   7.468   6.345   3.083  0.2579  1.5935  1.5375
   29MOL   H21713713   7.613   6.318   2.980 -0.2386  0.2841 -0.6360
   29MOL   O21813714   7.768   6.351   3.216 -0.0289  0.1804  0.3410
   29MOL   C21913715   7.843   6.319   3.323 -0.0695  0.2812 -0.2025
   29MOL   C22013716   0.054   6.441   3.365  0.5192 -0.2781  0.5287
   29MOL   C22113717   7.847   6.559   3.418  0.1391  0.0582 -0.6047
   29MOL   C22213718   0.043   6.692   3.408 -0.1649  0.4067  0.3088
   29MOL   O22313719   7.837   6.806   3.421  0.0862 -0.4364 -0.4106
   29MOL   C22413720   7.803   6.880   3.316  0.8853 -0.4585  0.1131
   29MOL   O22513721   7.835   6.857   3.203 -0.6151 -0.1882  0.2055
   29MOL   C22613722   7.701   6.976   3.353  0.5979 -0.1070  0.6162
   29MOL   C22713723   7.555   6.943   3.303  0.4386 -0.6282  0.4059
   29MOL   C22813724   7.480   6.873   3.407  0.0005  0.3497  0.0384
   29MOL   O22913725   7.397   6.933   3.478 -0.0467 -0.0079 -0.3676
   29MOL   H23013726   7.777   6.300   3.407  1.3175  0.8715  1.0385
   29MOL   H23113727   0.039   6.240   3.298 -0.8463  0.0245 -1.6659
   29MOL   H23213728   0.119   6.477   3.285 -0.4372  3.3985  1.3203
   29MOL   H23313729   0.123   6.417   3.445  4.8876 -0.2361 -2.9909
   29MOL   H23413730   7.810   6.553   3.521  3.3538  0.1130  0.6138
   29MOL   H23513731   7.766   6.588   3.351  0.0244  0.4896 -0.2877
   29MOL   H23613732   0.116   6.702   3.489 -0.6625 -3.4735  1.3526
   29MOL   H23713733   0.098   6.699   3.314 -0.3080 -3.7975 -0.1841
   29MOL   H23813734   7.723   7.059   3.286 -0.2877 -0.8315 -0.6140
   29MOL   H23913735   7.705   7.012   3.456 -1.2863 -2.5145  1.5881
   29MOL   H24013736   7.501   7.033   3.273  0.6054  0.1222  2.2696
   29MOL   H24113737   7.559   6.884   3.211 -0.0112  0.3419 -0.2492
   29MOL   O24213738   7.511   6.737   3.412 -0.5804 -0.1366 -0.0789
   29MOL   C24313739   7.434   6.663   3.507  0.0732 -0.5782  0.4253
   29MOL   C24413740   7.454   6.511   3.489  0.3890  0.4832 -0.1483
   29MOL   C24513741   7.377   6.427   3.592  0.8107 -0.5041 -0.3037
   29MOL   C24613742   7.416   6.281   3.587  0.5088  0.5403  0.3316
   29MOL   O24713743   7.548   6.255   3.625  0.1343  0.0338  0.7342
   29MOL   C24813744   7.589   6.274   3.749 -0.1584 -0.0812 -0.8904
   29MOL   O24913745   7.515   6.298   3.844  0.1155  0.5051  0.0786
   29MOL   C25013746   7.745   6.252   3.772 -0.0493  0.1998 -0.0889
   29MOL   C25113747   7.779   6.103   3.748 -0.3910  0.5225 -0.1012
   29MOL   C25213748   7.808   6.063   3.602 -0.7346 -0.0149  0.5670
   29MOL   O25313749   0.039   6.109   3.558  0.2322 -0.7685  0.1129
   29MOL   H25413750   7.469   6.695   3.605  0.6402 -3.7125  1.3305
   29MOL   H25513751   7.329   6.688   3.498  0.1018 -0.9848 -1.2339
   29MOL   H25613752   7.559   6.485   3.487 -0.0132 -1.2600  0.7041
   29MOL   H25713753   7.419   6.487   3.388 -0.9283  0.1956  0.3568
   29MOL   H25813754   7.270   6.441   3.577  0.8273  0.8311  0.7997
   29MOL   H25913755   7.368   6.465   3.694  2.7301 -1.0558  0.0834
   29MOL   H26013756   7.348   6.233   3.657  0.2438  2.4656  1.4288
   29MOL   H26113757   7.385   6.229   3.496 -2.4557  1.6516  0.6374
   29MOL   H26213758   7.773   6.293   3.869  0.6216  1.9480 -0.9818
   29MOL   H26313759   7.797   6.310   3.695  0.9396  1.0928  1.2267
   29MOL   H26413760   7.872   6.087   3.802 -0.3521 -0.8340 -0.5570
   29MOL   H26513761   7.703   6.028   3.770 -0.9292  1.1352  0.1492
   29MOL   O26613762   7.729   5.975   3.541 -0.3098  0.2238 -0.1567
   29MOL   C26713763   7.742   5.945   3.403 -0.4688 -0.2494 -0.9069
   29MOL   C26813764   7.651   5.820   3.377  0.1021 -0.1948  0.3906
   29MOL   C26913765   7.506   5.865   3.329  0.2343 -0.3503 -0.6390
   29MOL   C27013766   7.403   5.750   3.322 -0.1368 -0.4404 -0.0547
   29MOL   O27113767   7.401   5.676   3.446 -0.0573  0.1863  0.3557
   29MOL   C27213768   7.443   5.549   3.456  0.5044  0.4753 -0.1652
   29MOL   O27313769   7.483   5.481   3.364  0.5048 -0.3836 -0.2989
   29MOL   C27413770   7.409   5.502   3.594  0.0158 -0.1545 -0.0234
   29MOL   C27513771   7.492   5.385   3.647  0.0364 -0.6945  0.1654
   29MOL   C27613772   7.624   5.431   3.714  0.5821  0.4158 -0.8077
   29MOL   O27713773   7.736   5.401   3.674  0.0450 -0.7119  0.0179
   29MOL   H27813774   7.731   6.037   3.347 -0.9429  0.4963  0.3767
   29MOL   H27913775   7.846   5.913   3.398  0.2459  1.5061  1.7941
   29MOL   H28013776   7.645   5.752   3.462 -0.2096 -0.9106 -0.1989
   29MOL   H28113777   7.693   5.762   3.295  0.1175 -1.3996  1.2360
   29MOL   H28213778   7.514   5.909   3.230 -0.5643  1.7702  0.2042
   29MOL   H28313779   7.469   5.945   3.394  3.1625 -1.0924  2.0854
   29MOL   H28413780   7.307   5.793   3.295  1.0343  1.6692 -0.9239
   29MOL   H28513781   7.429   5.684   3.239 -2.5450  0.2163 -1.3873
   29MOL   H28613782   7.307   5.463   3.599 -1.6843  3.9619 -0.2560
   29MOL   H28713783   7.421   5.594   3.652 -1.9239 -0.9218  1.6629
   29MOL   H28813784   7.431   5.339   3.725  1.0382  0.1400  1.4745
   29MOL   H28913785   7.507   5.317   3.564  0.2278 -1.7496  1.0535
   29MOL   O29013786   7.596   5.499   3.823 -0.0911 -0.1231  0.2876
   29MOL   C29113787   7.694   5.568   3.908  0.9066  0.3213 -0.8918
   29MOL   C29213788   7.644   5.559   4.051 -0.2641 -0.1658  0.4485
   29MOL   C29313789   7.744   5.601   4.165 -0.2410  0.2954 -0.2820
   29MOL   C29413790   7.670   5.586   4.301 -0.6447  0.3538 -0.1395
   29MOL   O29513791   7.734   5.636   4.417 -0.3269  0.1573 -0.2670
   29MOL   C29613792   7.751   5.762   4.437 -0.0798  0.8459  0.0665
   29MOL   O29713793   7.708   5.848   4.363  0.0838  0.3650  0.4704
   29MOL   C29813794   7.826   5.800   4.560 -0.5005 -0.0859  0.1406
   29MOL   C29913795   7.861   5.938   4.595  0.6698  0.1645  0.5060
   29MOL   C30013796   0.128   5.980   4.560  0.0369  0.4125  0.1045
   29MOL   O30113797   0.195   5.937   4.467 -0.4143  0.8963  0.0029
   29MOL   H30213798   7.791   5.518   3.903  1.3787  0.9999  1.3030
   29MOL   H30313799   7.715   5.671   3.879 -0.1783  1.0158  0.7398
   29MOL   H30413800   7.622   5.454   4.071 -0.0556 -0.7608 -2.1804
   29MOL   H30513801   7.552   5.617   4.050 -1.0332 -1.3432  1.2570
   29MOL   H30613802   7.784   5.702   4.156  2.4879 -0.6012  0.9370
   29MOL   H30713803   7.828   5.532   4.177  1.1336  2.5167  4.1936
   29MOL   H30813804   7.570   5.630   4.298 -0.8428  0.3692  4.2433
   29MOL   H30913805   7.642   5.481   4.314 -2.0347  0.5173 -1.6372
   29MOL   H31013806   0.046   5.747   4.547 -1.5668 -1.4773 -2.1955
   29MOL   H31113807   7.791   5.765   4.657  1.1689 -1.0956  0.4097
   29MOL   H31213808   7.799   6.017   4.553  0.3567  0.0259  0.7026
   29MOL   H31313809   7.853   5.942   4.704  0.6370  4.2585  0.4173
   29MOL   O31413810   0.173   6.075   4.642 -0.0348 -0.8275 -0.6006
   29MOL   C31513811   0.303   6.126   4.622  0.0237 -0.0994 -0.1309
   29MOL   C31613812   0.281   6.255   4.539 -0.3468 -0.6771 -0.0527
   29MOL   C31713813   0.406   6.344   4.506  0.0845 -0.5653 -0.2443
   29MOL   C31813814   0.462   6.415   4.635 -0.4344  0.5155 -0.2873
   29MOL   O31913815   0.511   6.318   4.726 -0.3089  0.4274  0.2562
   29MOL   C32013816   0.630   6.260   4.716 -0.8684 -0.7486 -0.3385
   29MOL   O32113817   0.713   6.290   4.631 -0.3425 -0.1864  0.5930
   29MOL   C32213818   0.652   6.153   4.826  0.3771 -0.6176  1.0133
   29MOL   C32313819   0.788   6.085   4.835  0.1907  0.1090  0.4736
   29MOL   C32413820   0.895   6.182   4.895 -0.5662 -0.0034 -0.6582
   29MOL   O32513821   0.859   6.271   4.974  0.0754  0.3465  0.1067
   29MOL   H32613822   0.353   6.144   4.718  2.2962  0.6021 -1.3907
   29MOL   H32713823   0.372   6.058   4.573  1.4408  1.1931  0.0132
   29MOL   H32813824   0.206   6.316   4.589 -0.4551 -0.5094 -0.4200
   29MOL   H32913825   0.236   6.220   4.446  0.2039 -1.0151 -0.1949
   29MOL   H33013826   0.387   6.423   4.434  2.3494  0.2365  0.0031
   29MOL   H33113827   0.484   6.279   4.466  0.3881 -0.4022  0.0764
   29MOL   H33213828   0.539   6.490   4.617  1.8655 -1.7541 -0.1745
   29MOL   H33313829   0.377   6.458   4.688 -0.2794  0.8402 -0.3047
   29MOL   H33413830   0.584   6.070   4.805  0.4972 -1.0216  2.2090
   29MOL   H33513831   0.611   6.183   4.922  1.2654  0.1511  1.1640
   29MOL   H33613832   0.774   5.995   4.895 -0.7117 -0.4374 -0.5398
   29MOL   H33713833   0.815   6.058   4.733  2.1663 -0.5958  1.1630
   29MOL   O33813834   1.015   6.173   4.841  0.3119 -0.9122  0.1689
   29MOL   C33913835   1.106   6.282   4.870 -0.4269  0.9807  0.5536
   29MOL   C34013836   1.194   6.300   4.751  0.5469 -0.0208 -0.0353
   29MOL   C34113837   1.152   6.402   4.646  0.0952 -0.3604 -0.4743
   29MOL   C34213838   1.013   6.364   4.586  0.3573  0.4709  0.6759
   29MOL   O34313839   0.980   6.452   4.479  0.2118 -0.0497 -0.0324
   29MOL   C34413840   0.886   6.409   4.390 -0.0475 -0.0154  0.0104
   29MOL   O34513841   0.855   6.294   4.370 -0.0961 -0.0534  0.2483
   29MOL   C34613842   0.824   6.528   4.307  0.3398  0.1263 -0.5003
   29MOL   C34713843   0.737   6.627   4.398  0.7054 -0.1158 -0.6932
   29MOL   C34813844   0.808   6.691   4.524  0.0844  0.2733 -0.1094
   29MOL   O34913845   0.895   6.779   4.517  0.1274  0.0529 -0.6719
   29MOL   H35013846   1.053   6.373   4.896 -1.4380  0.7532 -0.6439
   29MOL   H35113847   1.169   6.260   4.956 -1.3505 -0.8644  0.8088
   29MOL   H35213848   1.229   6.209   4.702 -0.9683 -0.7416  0.2068
   29MOL   H35313849   1.287   6.341   4.791  0.2009 -3.2127  4.4935
   29MOL   H35413850   1.230   6.398   4.570  0.1791 -0.6576 -0.3741
   29MOL   H35513851   1.151   6.501   4.692 -1.1723 -0.7971  0.4765
   29MOL   H35613852   1.016   6.260   4.553  0.0907  1.0475 -1.2057
   29MOL   H35713853   0.939   6.368   4.666  1.1778  3.0763  1.3638
   29MOL   H35813854   0.763   6.489   4.225 -1.5515 -1.2696  1.5045
   29MOL   H35913855   0.902   6.592   4.266 -0.5056  1.3488 -0.2300
   29MOL   H36013856   0.691   6.707   4.340 -1.1738 -0.1067  0.7721
   29MOL   H36113857   0.652   6.564   4.423  0.4034  0.9465  1.0213
   29MOL   O36213858   0.789   6.621   4.633  0.4618  0.1174 -0.3261
   29MOL   C36313859   0.852   6.646   4.758  0.2619  0.0590 -0.7002
   29MOL   C36413860   0.751   6.612   4.873 -0.4517 -0.0347 -0.3054
   29MOL   C36513861   0.641   6.716   4.876  0.6582  0.8781  0.9781
   29MOL   C36613862   0.533   6.691   4.983  0.0082  0.2085 -0.2045
   29MOL   O36713863   0.473   6.560   4.959  0.0010  0.6607 -0.1771
   29MOL   C36813864   0.350   6.537   5.013  0.0396 -0.5170 -0.2117
   29MOL   O36913865   0.290   6.608   5.094 -0.1571 -0.2657  0.9321
   29MOL   C37013866   0.273   6.419   4.947 -0.4961  0.0821 -0.4770
   29MOL   C37113867   0.157   6.354   5.040  0.0444  0.1126 -0.3905
   29MOL   C37213868   0.207   6.281   5.167 -0.7668 -0.1297  0.5556
   29MOL   O37313869   0.130   6.271   5.263 -0.8451  0.3495 -0.3794
   29MOL   H37413870   0.937   6.578   4.767  1.5936  2.0612  2.6776
   29MOL   H37513871   0.892   6.747   4.767  0.1836  0.2319 -2.1511
   29MOL   H37613872   0.808   6.612   4.966  0.0842 -1.0930 -0.6194
   29MOL   H37713873   0.714   6.510   4.858 -0.9079  0.3334 -1.7058
   29MOL   H37813874   0.593   6.719   4.778  1.9770 -0.8475  0.2621
   29MOL   H37913875   0.688   6.813   4.892 -1.1896  1.9599  0.0396
   29MOL   H38013876   0.578   6.703   5.082 -0.6325 -2.8018  0.5071
   29MOL   H38113877   0.447   6.756   4.976 -1.2094 -1.0596  2.2460
   29MOL   H38213878   0.345   6.338   4.931 -0.6990 -0.0580 -0.6784
   29MOL   H38313879   0.243   6.444   4.845 -1.4389  2.2375  0.3040
   29MOL   H38413880   0.097   6.440   5.070 -0.7656 -1.3479  2.3282
   29MOL   H38513881   0.096   6.283   4.984 -0.2779 -1.1371  1.5141
   29MOL   O38613882   0.333   6.227   5.155  0.2643  0.4526 -0.3061
   29MOL   C38713883   0.374   6.138   5.251 -0.1664  0.1361 -0.3067
   29MOL   C38813884   0.520   6.088   5.230  0.2454  0.4277  0.5963
   29MOL   C38913885   0.634   6.196   5.235 -0.0245 -0.5430  0.0147
   29MOL   C39013886   0.761   6.121   5.224 -0.1316 -0.5782  0.5291
   29MOL   O39113887   0.785   6.022   5.322 -0.1017 -0.0134  0.0290
   29MOL   C39213888   0.830   5.905   5.282  0.6250 -0.2261 -0.8470
   29MOL   O39313889   0.852   5.862   5.169 -0.6940 -0.7459 -0.5208
   29MOL   C39413890   0.840   5.808   5.397  1.0782 -0.7714  0.1513
   29MOL   C39513891   0.947   5.860   5.496  0.0710  0.4853 -0.0748
   29MOL   C39613892   1.069   5.789   5.474 -0.6221 -0.1800  0.6332
   29MOL   O39713893   1.179   5.841   5.461 -0.4377  0.1786 -0.9064
   29MOL   H39813894   0.376   6.198   5.342  1.2595  1.1843 -1.0103
   29MOL   H39913895   0.308   6.052   5.261  2.2463 -1.6333  0.5751
   29MOL   H40013896   0.527   6.038   5.133 -1.9533  0.2254  0.5139
   29MOL   H40113897   0.544   6.009   5.300 -1.3826  0.4061  1.1437
   29MOL   H40213898   0.622   6.254   5.327  0.4537  0.7187 -0.7045
   29MOL   H40313899   0.647   6.262   5.149 -0.0070 -0.4729  0.0702
   29MOL   H40413900   0.766   6.068   5.129 -0.4710 -0.2320  0.3164
   29MOL   H40513901   0.846   6.190   5.222  0.0339 -0.7932 -0.0532
   29MOL   H40613902   0.861   5.711   5.354  1.0666 -1.2513  1.2035
   29MOL   H40713903   0.742   5.808   5.445  1.7427  0.1715  1.5409
   29MOL   H40813904   0.959   5.968   5.507  1.9681  0.5448 -2.4383
   29MOL   H40913905   0.914   5.828   5.595  0.0778  0.0432 -0.2159
   29MOL   O41013906   1.049   5.655   5.477  0.4261  0.3075 -0.1982
   29MOL   C41113907   1.150   5.563   5.462 -0.3541  0.1839  0.5487
   29MOL   C41213908   1.168   5.539   5.311  0.0187  0.7990 -0.2894
   29MOL   C41313909   1.048   5.472   5.250 -0.3972  0.0252  0.1419
   29MOL   C41413910   1.006   5.339   5.316 -0.2758  0.8500  0.4736
   29MOL   O41513911   0.902   5.273   5.245 -0.5055 -0.0759 -0.2340
   29MOL   C41613912   0.828   5.177   5.310  1.1478 -0.6174  0.0921
   29MOL   O41713913   0.857   5.132   5.421 -0.1939 -0.7010  0.2029
   29MOL   C41813914   0.718   5.121   5.221  0.1985  0.0689  0.0593
   29MOL   C41913915   0.745   4.978   5.169  0.6347  0.0406  0.8287
   29MOL   C42013916   0.843   4.965   5.046 -0.3586  0.6319  0.2993
   29MOL   O42113917   0.942   4.892   5.051 -0.4675  0.3691 -0.6007
   29MOL   H42213918   1.235   5.607   5.512 -0.1204 -0.0148  0.3300
   29MOL   H42313919   1.118   5.472   5.514  0.6220  0.9794  2.5827
   29MOL   H42413920   1.263   5.493   5.285 -1.9520 -3.4758 -0.3388
   29MOL   H42513921   1.186   5.632   5.256  1.1372  0.3312 -0.7339
   29MOL   H42613922   1.083   5.447   5.150 -0.1073 -2.1941  0.7831
   29MOL   H42713923   0.967   5.544   5.238 -1.7424 -1.8132 -2.3859
   29MOL   H42813924   1.089   5.272   5.336 -1.7615 -1.1026  0.2288
   29MOL   H42913925   0.970   5.373   5.413 -0.8973  0.3301  0.4278
   29MOL   H43013926   0.706   5.184   5.133 -3.5931 -1.2189 -0.4052
   29MOL   H43113927   0.624   5.123   5.277  0.2317  2.2620  0.0992
   29MOL   H43213928   0.803   4.914   5.237  1.1294  1.1177  1.4373
   29MOL   H43313929   0.646   4.943   5.139  0.3458  1.7483 -0.2054
   29MOL   O43413930   0.799   5.044   4.933  0.1870  0.3600 -0.7318
   29MOL   C43513931   0.883   5.034   4.817 -0.2068 -0.2201  0.4244
   29MOL   C43613932   1.011   5.113   4.841  0.3219  0.2849 -0.4257
   29MOL   C43713933   0.983   5.257   4.868 -0.8563 -0.0837  0.1326
   29MOL   C43813934   1.109   5.352   4.877 -0.7622 -0.6174  1.1173
   29MOL   O43913935   1.059   5.479   4.906  0.5963  0.4364  0.2958
   29MOL   C44013936   1.125   5.580   4.856 -0.9778  0.0020  0.2787
   29MOL   O44113937   1.228   5.572   4.783  0.4642  0.7214 -0.0438
   29MOL   C44213938   1.078   5.717   4.916  0.8660 -0.5014  0.3074
   29MOL   C44313939   1.169   5.836   4.900 -0.0886 -0.1250 -0.3840
   29MOL   C44413940   1.212   5.897   5.036  0.0164 -0.1525  0.8773
   29MOL   O44513941   1.168   6.006   5.072  0.1231 -0.3271  0.0945
   29MOL   H44613942   0.892   4.926   4.805  0.9831 -0.1381  0.5537
   29MOL   H44713943   0.817   5.075   4.740 -0.2856  0.7166  0.9734
   29MOL   H44813944   1.070   5.110   4.749 -0.1634  0.2706 -0.7371
   29MOL   H44913945   1.067   5.061   4.919 -0.1362 -0.1716 -0.4005
   29MOL   H45013946   0.940   5.264   4.968  1.5692  2.5745  1.0675
   29MOL   H45113947   0.911   5.299   4.798 -1.5570  2.4858  2.3055
   29MOL   H45213948   1.178   5.320   4.955 -0.3465  0.3384  1.1432
   29MOL   H45313949   1.161   5.358   4.781  1.1077  0.9660  2.1921
   29MOL   H45413950   1.061   5.693   5.021  0.2382  0.0324  0.3306
   29MOL   H45513951   0.983   5.756   4.879  0.2778 -0.3389  1.9664
   29MOL   H45613952   1.262   5.804   4.855  0.4179 -0.8477  1.1596
   29MOL   H45713953   1.120   5.910   4.836 -0.3476  0.2614  0.2484
   29MOL   O45813954   1.299   5.826   5.107  0.0612  0.0450  0.5345
   29MOL   C45913955   1.385   5.888   5.204 -0.0102 -0.7987 -0.0411
   29MOL   C46013956   1.513   5.944   5.146 -0.2316 -0.5422 -0.1638
   29MOL   C46113957   1.581   5.862   5.042  0.2583 -0.2330 -0.4619
   29MOL   C46213958   1.718   5.930   5.004  0.3886  0.2333  0.3118
   29MOL   O46313959   1.788   5.837   4.928  0.1948 -0.6617 -0.3811
   29MOL   C46413960   1.918   5.856   4.888  0.4314  1.0311  0.3641
   29MOL   O46513961   1.978   5.961   4.904 -0.5167 -0.2255 -0.0372
   29MOL   C46613962   1.974   5.743   4.812  0.2328 -0.6408 -0.1486
   29MOL   C46713963   1.951   5.763   4.659  0.1393  0.1786 -0.0241
   29MOL   C46813964   2.073   5.814   4.586  0.2821  0.1501 -0.0892
   29MOL   O46913965   2.167   5.737   4.571  0.7233 -0.3472  0.2077
   29MOL   H47013966   1.329   5.969   5.251 -1.2331 -2.8271  2.1438
   29MOL   H47113967   1.402   5.820   5.288  0.5977  2.4008  2.5169
   29MOL   H47213968   1.571   5.970   5.235 -2.1187 -1.6820  1.4477
   29MOL   H47313969   1.482   6.035   5.095  2.5778 -1.0814 -2.9960
   29MOL   H47413970   1.521   5.840   4.954  0.9632 -3.2991 -0.2440
   29MOL   H47513971   1.592   5.768   5.097 -0.5566 -1.1503 -1.8386
   29MOL   H47613972   1.703   6.030   4.965  0.9699  1.4009  2.9536
   29MOL   H47713973   1.774   5.927   5.098 -0.5904 -0.2623  0.8888
   29MOL   H47813974   1.908   5.660   4.837  0.7111 -0.8063  0.5784
   29MOL   H47913975   2.075   5.732   4.852 -1.5714 -1.1304  4.5645
   29MOL   H48013976   1.934   5.665   4.615  1.4876  0.0846 -0.3608
   29MOL   H48113977   1.863   5.822   4.632 -0.3186 -0.7392 -0.5807
   29MOL   H48213978   2.062   5.917   4.551  0.2574  0.1186 -0.1752
   30MOL     O113979   2.091   5.933   0.005  0.3878 -0.0009 -0.7831
   30MOL     C213980   2.159   5.959   0.125  0.4733  0.6771  1.1711
   30MOL     C313981   2.081   5.929   0.247  0.3942 -0.6920 -0.8819
   30MOL     C413982   1.958   6.029   0.266  0.2133 -0.4614  0.5941
   30MOL     C513983   1.900   6.017   0.406 -1.0329 -0.0979  0.4450
   30MOL     O613984   1.773   6.089   0.410 -0.9889  0.4123  0.3100
   30MOL     C713985   1.771   6.221   0.395  0.1805 -0.0700  0.3061
   30MOL     O813986   1.864   6.300   0.391 -0.3636 -0.8001  0.0017
   30MOL     C913987   1.636   6.264   0.363 -0.2930 -0.3281  0.0128
   30MOL    C1013988   1.612   6.235   0.222  0.2363 -0.3983  1.0170
   30MOL    C1113989   1.477   6.163   0.192 -0.0259  0.3817 -0.2420
   30MOL    O1213990   1.383   6.136   0.270  0.1741  0.5563 -0.1127
   30MOL    H1313991   2.245   5.891   0.131 -0.2383 -0.3521 -0.2238
   30MOL    H1413992   2.198   6.061   0.121  0.8142  0.4978 -0.4596
   30MOL    H1513993   2.151   5.947   0.329 -1.3664  0.0155  0.4975
   30MOL    H1613994   2.053   5.824   0.243  1.3014 -1.1367  2.6074
   30MOL    H1713995   1.878   6.016   0.192  1.0426  1.2607 -0.6421
   30MOL    H1813996   2.003   6.126   0.249 -0.2747 -0.5208 -1.1529
   30MOL    H1913997   1.882   5.910   0.416  2.6309 -0.9331 -0.9950
   30MOL    H2013998   1.972   6.056   0.477 -0.3561  0.4061 -0.5059
   30MOL    H2113999   1.610   6.367   0.388  0.2521 -0.4700  1.1874
   30MOL    H2214000   1.568   6.209   0.428 -1.0397  0.8702  0.2702
   30MOL    H2314001   1.621   6.327   0.164  2.9362 -3.3622 -3.5824
   30MOL    H2414002   1.694   6.184   0.173 -1.1330 -1.6491 -0.0272
   30MOL    H2514003   2.084   5.840   7.863 -2.1568  0.3575 -1.7695
   30MOL    O2614004   1.477   6.144   0.058 -0.2268  0.5099 -0.0951
   30MOL    C2714005   1.364   6.107   7.858  0.5271 -0.4383 -0.2368
   30MOL    C2814006   1.340   6.218   7.751 -0.4861  0.2010 -0.3065
   30MOL    C2914007   1.318   6.352   7.810  0.8067 -0.2284 -0.5183
   30MOL    C3014008   1.181   6.360   0.017 -0.3821 -0.9940  0.6793
   30MOL    O3114009   1.114   6.486   0.004  0.0257 -0.3210  0.3371
   30MOL    C3214010   1.119   6.584   0.098 -0.1307  0.3299 -0.3133
   30MOL    O3314011   1.181   6.583   0.206  0.0135  0.0669 -0.9803
   30MOL    C3414012   1.040   6.704   0.060 -0.4012 -0.2036 -0.3851
   30MOL    C3514013   0.888   6.679   0.043 -0.0111 -0.1583  0.2833
   30MOL    C3614014   0.852   6.690   7.768  0.1270 -0.6135 -0.4188
   30MOL    O3714015   0.928   6.741   7.683  0.1960  0.9883 -0.4730
   30MOL    H3814016   1.369   6.005   7.819  0.2954 -0.0163 -1.3756
   30MOL    H3914017   1.274   6.092   0.043 -0.5540  1.8591 -1.2249
   30MOL    H4014018   1.263   6.202   7.676 -2.3624 -2.1119  2.0015
   30MOL    H4114019   1.428   6.231   7.688 -1.1508 -4.5971 -2.4838
   30MOL    H4214020   1.306   6.428   7.732  0.9883  0.4984  0.1515
   30MOL    H4314021   1.398   6.379   0.004  0.1779  0.6791 -0.1350
   30MOL    H4414022   1.126   6.281   7.840  1.8245 -0.9480 -1.8319
   30MOL    H4514023   1.199   6.343   0.124  1.2670  1.5256  0.8431
   30MOL    H4614024   1.090   6.742   7.846 -0.6813  0.5002 -0.2470
   30MOL    H4714025   1.070   6.769   0.142  0.4627  1.1154 -1.7182
   30MOL    H4814026   0.868   6.572   0.055  1.5277 -0.3805  0.8659
   30MOL    H4914027   0.824   6.743   0.104 -0.4271  1.0179 -1.3481
   30MOL    O5014028   0.735   6.641   7.747  0.3014  0.4205 -0.3118
   30MOL    C5114029   0.676   6.662   7.623 -0.5873  0.1085 -0.4455
   30MOL    C5214030   0.577   6.544   7.583 -0.1153  0.3690 -0.8336
   30MOL    C5314031   0.637   6.406   7.614  0.1611  0.1794  0.2337
   30MOL    C5414032   0.735   6.345   7.510 -0.7716  0.2420  0.1235
   30MOL    O5514033   0.864   6.413   7.510 -0.0135  0.4762  0.5741
   30MOL    C5614034   0.966   6.365   7.441 -0.0328 -0.6419 -0.0112
   30MOL    O5714035   0.955   6.277   7.353  0.0956 -0.6353 -0.3958
   30MOL    C5814036   1.101   6.433   7.473  0.0549 -0.2691  0.1650
   30MOL    C5914037   1.209   6.407   7.358 -0.1879 -0.3547 -0.3711
   30MOL    C6014038   1.308   6.294   7.390 -0.2612  0.1353 -0.2311
   30MOL    O6114039   1.412   6.316   7.446  0.4737  0.6575  0.2506
   30MOL    H6214040   0.625   6.757   7.633 -0.0566  0.4401 -0.8649
   30MOL    H6314041   0.745   6.668   7.539 -0.2745 -2.1713 -0.3736
   30MOL    H6414042   0.550   6.548   7.477  1.1091  1.2010 -1.1341
   30MOL    H6514043   0.477   6.552   7.626  0.0568 -0.2171 -0.3194
   30MOL    H6614044   0.554   6.335   7.616  1.9657 -1.9828  4.3720
   30MOL    H6714045   0.671   6.404   7.718 -1.3160  1.9350  0.7954
   30MOL    H6814046   0.748   6.239   7.531 -0.3685 -0.0176 -1.3550
   30MOL    H6914047   0.699   6.355   7.407  1.2021  0.7721 -0.5284
   30MOL    H7014048   1.136   6.393   7.568 -0.2269 -1.1808 -0.1114
   30MOL    H7114049   1.070   6.537   7.479 -1.8520 -0.7544 -0.9071
   30MOL    H7214050   1.165   6.386   7.260  0.0680 -0.0262 -0.5577
   30MOL    H7314051   1.260   6.503   7.347 -2.9823  1.2083 -0.2811
   30MOL    O7414052   1.254   6.172   7.370 -0.3683 -0.6659  0.1509
   30MOL    C7514053   1.333   6.055   7.386  0.2736 -0.1573  0.6734
   30MOL    C7614054   1.244   5.938   7.429  0.7628 -0.2424  0.1606
   30MOL    C7714055   1.317   5.803   7.448 -0.2125  0.0228  0.0812
   30MOL    C7814056   1.217   5.683   7.464  1.0146  0.1373 -0.1997
   30MOL    O7914057   1.296   5.561   7.459  0.2850 -0.2437 -0.3348
   30MOL    C8014058   1.296   5.495   7.335  0.6346 -0.0491  0.4598
   30MOL    O8114059   1.263   5.544   7.226  0.2454  0.1512 -0.5019
   30MOL    C8214060   1.350   5.348   7.345  0.3180  0.1960 -0.6176
   30MOL    C8314061   1.291   5.263   7.460 -0.4906 -0.3830  0.2852
   30MOL    C8414062   1.357   5.278   7.600  1.0197 -0.0976 -0.1164
   30MOL    O8514063   1.298   5.240   7.703  0.3740  0.3412  0.0243
   30MOL    H8614064   1.386   6.037   7.292 -1.5002 -0.4089 -0.2885
   30MOL    H8714065   1.411   6.077   7.459  1.3582 -1.2647 -0.1175
   30MOL    H8814066   1.164   5.924   7.357 -0.8163  0.8008  1.6679
   30MOL    H8914067   1.202   5.981   7.521 -1.1577  2.0034 -1.7073
   30MOL    H9014068   1.365   5.812   7.546  0.2836 -3.7668  0.2592
   30MOL    H9114069   1.400   5.785   7.381  1.7362 -1.6078  2.8328
   30MOL    H9214070   1.175   5.686   7.565 -0.6156 -1.2794 -0.8025
   30MOL    H9314071   1.138   5.687   7.389 -0.6499 -0.1249  1.4884
   30MOL    H9414072   1.456   5.363   7.367 -0.0485  2.3393 -0.2088
   30MOL    H9514073   1.342   5.292   7.252  2.1074  0.8774 -1.1913
   30MOL    H9614074   1.191   5.304   7.472  0.3586  1.5690  0.8786
   30MOL    H9714075   1.277   5.155   7.454  2.5657 -0.9090  1.6315
   30MOL    O9814076   1.471   5.346   7.607 -0.7079  0.0547  0.6377
   30MOL    C9914077   1.541   5.355   7.727  0.3236  0.2125  0.0962
   30MOL   C10014078   1.562   5.501   7.764  0.2032  0.2526  0.5691
   30MOL   C10114079   1.431   5.574   7.795 -0.7090  0.3803  0.7413
   30MOL   C10214080   1.442   5.719   7.859  0.8191  0.2974  0.5046
   30MOL   O10314081   1.461   5.718   0.128 -0.1445 -0.2696  0.1116
   30MOL   C10414082   1.569   5.788   0.187 -0.3292  0.9732  0.4819
   30MOL   O10514083   1.652   5.853   0.125 -0.7131 -0.1579  0.1000
   30MOL   C10614084   1.578   5.755   0.338  0.2443  0.1104  0.2591
   30MOL   C10714085   1.483   5.847   0.416 -0.4912 -0.3893  0.0646
   30MOL   C10814086   1.359   5.783   0.479  0.3626  0.0395 -0.1798
   30MOL   O10914087   1.320   5.812   0.590  0.0759  0.4865 -0.3282
   30MOL   H11014088   1.489   5.321   7.817 -0.9434 -1.1831 -1.1263
   30MOL   H11114089   1.631   5.294   7.724  0.6229  0.5747  1.3743
   30MOL   H11214090   1.605   5.543   7.673  0.4012 -0.8054  0.1603
   30MOL   H11314091   1.620   5.508   7.856  1.0259 -1.7351  0.2365
   30MOL   H11414092   1.360   5.517   7.854 -0.3224 -0.7522  0.1192
   30MOL   H11514093   1.378   5.589   7.702  2.1341 -2.0134 -1.3562
   30MOL   H11614094   1.519   5.780   7.812 -0.1916 -0.4366 -2.1803
   30MOL   H11714095   1.348   5.771   7.837 -1.2770 -3.3208  0.5911
   30MOL   H11814096   1.680   5.772   0.373  0.5324 -1.1067  0.0409
   30MOL   H11914097   1.553   5.650   0.354  2.0111 -0.3769 -0.1636
   30MOL   H12014098   1.539   5.910   0.485  0.6698 -1.5461  0.1928
   30MOL   H12114099   1.444   5.915   0.340  0.4631  1.6089  1.3162
   30MOL   O12214100   1.307   5.694   0.392 -0.2938 -0.2224  0.1835
   30MOL   C12314101   1.194   5.625   0.426  0.5245 -0.2973 -0.1127
   30MOL   C12414102   1.130   5.614   0.286  0.4598  0.0187 -0.7764
   30MOL   C12514103   1.073   5.743   0.230 -0.2275 -0.3630  0.5923
   30MOL   C12614104   1.018   5.717   0.084  0.1893 -0.1056 -0.1502
   30MOL   O12714105   0.970   5.837   0.025 -0.5112  0.2622 -0.3148
   30MOL   C12814106   1.035   5.904   7.800 -0.0107  0.0415  0.2650
   30MOL   O12914107   1.128   5.862   7.733  0.1881 -0.2574  0.2574
   30MOL   C13014108   0.990   6.048   7.790 -0.2207  0.2214  0.6605
   30MOL   C13114109   0.846   6.077   7.826  0.9406  0.5455  0.4364
   30MOL   C13214110   0.820   6.082   0.103  0.3851 -0.0020 -0.7393
   30MOL   O13314111   0.705   6.084   0.151 -0.2713 -0.4789  0.5886
   30MOL   H13414112   1.214   5.524   0.460  1.4192 -0.7391 -1.8947
   30MOL   H13514113   1.124   5.677   0.491  0.9839  0.5721 -0.3102
   30MOL   H13614114   1.054   5.536   0.297 -0.5071  0.6037 -3.0337
   30MOL   H13714115   1.207   5.582   0.216 -0.1161 -0.1398 -1.3440
   30MOL   H13814116   1.154   5.815   0.219  0.7217 -1.4932 -0.0317
   30MOL   H13914117   1.010   5.787   0.307 -1.0545 -0.6946  0.1146
   30MOL   H14014118   1.097   5.678   0.021  0.7219  1.4379 -0.4624
   30MOL   H14114119   0.945   5.636   0.091  1.3564 -1.2178 -0.6343
   30MOL   H14214120   1.022   6.089   7.694  2.6143 -0.5812  1.2173
   30MOL   H14314121   1.061   6.103   7.851  1.6315 -0.3010 -0.9392
   30MOL   H14414122   0.801   6.163   7.776 -2.5621 -1.2507  0.3432
   30MOL   H14514123   0.784   5.992   7.797  1.7226  0.0619  0.1660
   30MOL   O14614124   0.932   6.091   0.178  0.1619  0.6671 -0.3542
   30MOL   C14714125   0.919   6.091   0.321 -0.5742  0.2275 -0.4147
   30MOL   C14814126   1.065   6.110   0.373  0.1425  0.1111 -0.3506
   30MOL   C14914127   1.069   6.113   0.528  0.0645 -0.3112  0.1539
   30MOL   C15014128   1.206   6.153   0.574 -0.2877 -0.2256  0.5822
   30MOL   O15114129   1.228   6.296   0.550  0.6448  0.2446 -0.7237
   30MOL   C15214130   1.348   6.354   0.573  0.0172 -0.2173  1.5500
   30MOL   O15314131   1.440   6.288   0.619  0.4445  0.5251 -0.1144
   30MOL   C15414132   1.352   6.506   0.550  0.1002  0.5087  0.0078
   30MOL   C15514133   1.485   6.556   0.610 -0.5505 -0.3440  0.2819
   30MOL   C15614134   1.479   6.544   0.763  0.0068 -0.4424  0.4956
   30MOL   O15714135   1.373   6.556   0.822 -0.2569  0.0401 -0.1963
   30MOL   H15814136   0.846   6.163   0.359  1.5118  2.5701 -0.6832
   30MOL   H15914137   0.879   5.993   0.342  0.9161 -0.1884  0.5835
   30MOL   H16014138   1.090   6.211   0.340  0.1238 -0.0274 -0.7970
   30MOL   H16114139   1.146   6.047   0.335 -0.9826 -1.5423 -0.0576
   30MOL   H16214140   1.039   6.013   0.557  1.1633 -0.7375 -0.1513
   30MOL   H16314141   0.985   6.174   0.562  0.1553 -0.1738  0.1332
   30MOL   H16414142   1.221   6.141   0.681 -0.2539  1.3223  0.7706
   30MOL   H16514143   1.276   6.094   0.516 -0.9960  0.4617 -1.0151
   30MOL   H16614144   1.265   6.549   0.600 -0.5654  1.4750 -1.9217
   30MOL   H16714145   1.339   6.515   0.442 -1.5501 -2.3666 -0.1051
   30MOL   H16814146   1.575   6.511   0.567 -1.8446 -1.7470 -1.0204
   30MOL   H16914147   1.496   6.663   0.594  0.5442 -0.6886 -1.4122
   30MOL   O17014148   1.607   6.521   0.805 -0.2984 -0.1243 -0.3854
   30MOL   C17114149   1.632   6.463   0.933  0.2210  0.2005 -0.1079
   30MOL   C17214150   1.774   6.405   0.933 -0.5751  0.7658 -0.0743
   30MOL   C17314151   1.821   6.342   1.063 -0.3795 -0.0127 -0.4727
   30MOL   C17414152   1.730   6.238   1.125 -0.1920 -0.4706 -0.0859
   30MOL   O17514153   1.618   6.308   1.178 -0.1801 -0.1770  0.2387
   30MOL   C17614154   1.610   6.368   1.291 -0.6538 -0.3708  0.5632
   30MOL   O17714155   1.694   6.375   1.382 -0.2913 -0.1406  0.0702
   30MOL   C17814156   1.473   6.440   1.300 -0.7227 -0.2991  1.0071
   30MOL   C17914157   1.351   6.344   1.301  0.0343  0.3696  1.0521
   30MOL   C18014158   1.217   6.418   1.282  0.7619  0.0759  0.5000
   30MOL   O18114159   1.214   6.540   1.273 -0.5079 -0.1242 -0.2069
   30MOL   H18214160   1.614   6.531   1.017 -1.7399 -1.7313  1.0804
   30MOL   H18314161   1.563   6.379   0.935  2.0427 -1.2994  1.8645
   30MOL   H18414162   1.833   6.493   0.908 -1.5142  1.6980  0.9440
   30MOL   H18514163   1.787   6.326   0.858  1.2402  0.7348  0.2411
   30MOL   H18614164   1.844   6.408   1.146 -0.8796  0.5034 -0.7376
   30MOL   H18714165   1.907   6.279   1.043  1.4292  1.9219  1.0881
   30MOL   H18814166   1.694   6.163   1.055  1.1101 -1.7766  0.6210
   30MOL   H18914167   1.782   6.180   1.202  0.5312  0.3371  0.0447
   30MOL   H19014168   1.471   6.517   1.223  0.1508 -0.0660  1.2158
   30MOL   H19114169   1.477   6.499   1.392 -1.1337  1.4553 -0.0650
   30MOL   H19214170   1.354   6.268   1.222  0.1115  1.5464 -0.0916
   30MOL   H19314171   1.360   6.289   1.395  0.1207 -0.1107  0.7644
   30MOL   O19414172   1.113   6.341   1.298 -0.1568 -0.0701 -0.1270
   30MOL   C19514173   0.981   6.389   1.276  0.7667 -0.4527 -0.4687
   30MOL   C19614174   0.942   6.353   1.139 -0.0769  0.4974 -0.5048
   30MOL   C19714175   1.003   6.433   1.023 -0.2554 -0.5471  0.1400
   30MOL   C19814176   0.956   6.397   0.879  0.5313 -0.1600  0.3628
   30MOL   O19914177   0.824   6.449   0.853 -0.4513  0.3962  0.4396
   30MOL   C20014178   0.736   6.367   0.806 -0.6202  0.8976 -0.2944
   30MOL   O20114179   0.752   6.253   0.765 -0.0158  0.3890  0.2396
   30MOL   C20214180   0.588   6.415   0.822  0.3284  0.1768 -0.3788
   30MOL   C20314181   0.495   6.310   0.882  0.2311 -0.4307 -0.1412
   30MOL   C20414182   0.448   6.337   1.026  0.3894  0.2392 -0.1601
   30MOL   O20514183   0.330   6.362   1.043  0.2254  0.6669  0.1868
   30MOL   H20614184   0.914   6.340   1.347  0.0035  0.6064 -0.4624
   30MOL   H20714185   0.972   6.496   1.296  1.5260 -0.6078  0.8137
   30MOL   H20814186   0.833   6.362   1.130 -0.1450 -0.7817 -1.2034
   30MOL   H20914187   0.959   6.247   1.118  1.6881  0.9552 -1.4292
   30MOL   H21014188   1.112   6.421   1.022  0.1901  2.7319  1.6033
   30MOL   H21114189   1.001   6.537   1.055  0.1483  0.4357 -2.8588
   30MOL   H21214190   1.023   6.468   0.831 -1.5300  0.0112 -2.3747
   30MOL   H21314191   0.971   6.295   0.844  2.8648 -0.1717  1.3537
   30MOL   H21414192   0.559   6.436   0.720  0.5749  3.4692  0.1473
   30MOL   H21514193   0.585   6.511   0.874 -2.1418  0.2729 -0.6488
   30MOL   H21614194   0.409   6.302   0.816 -0.0321  2.3935 -0.2000
   30MOL   H21714195   0.532   6.209   0.896  1.0046 -0.0028  0.9656
   30MOL   O21814196   0.539   6.331   1.123  0.3340 -0.1664 -0.7124
   30MOL   C21914197   0.493   6.362   1.256 -0.4972 -0.9848  1.0640
   30MOL   C22014198   0.577   6.296   1.364  0.1237  0.3756  0.0201
   30MOL   C22114199   0.524   6.311   1.505  0.0627 -0.4414  0.4808
   30MOL   C22214200   0.622   6.254   1.603  0.0997 -0.5656  0.1347
   30MOL   O22314201   0.757   6.316   1.613  0.1669  1.0210 -0.3489
   30MOL   C22414202   0.771   6.436   1.668 -0.3400  0.5373  0.1128
   30MOL   O22514203   0.687   6.507   1.715 -0.1736  0.0739  0.1613
   30MOL   C22614204   0.923   6.471   1.670 -0.6423 -0.5180  1.0047
   30MOL   C22714205   0.959   6.604   1.744 -0.7322  0.2800  0.0572
   30MOL   C22814206   1.046   6.590   1.866 -0.7028  0.5883  0.5705
   30MOL   O22914207   1.087   6.480   1.902  0.1273  0.4180 -0.2559
   30MOL   H23014208   0.509   6.469   1.262 -1.1606 -0.7190 -1.3493
   30MOL   H23114209   0.388   6.352   1.280  0.0795 -0.3394  3.9843
   30MOL   H23214210   0.683   6.324   1.364  1.1792 -3.3053 -0.3999
   30MOL   H23314211   0.587   6.190   1.342  2.7672  0.4784  0.4814
   30MOL   H23414212   0.426   6.263   1.511 -0.3146  0.2923  0.3248
   30MOL   H23514213   0.503   6.416   1.527  0.6003 -0.5520  1.5411
   30MOL   H23614214   0.570   6.264   1.699 -1.2299  0.4832 -0.6831
   30MOL   H23714215   0.636   6.148   1.579 -0.2752 -0.3035 -1.2784
   30MOL   H23814216   0.961   6.482   1.569  0.7399 -0.8028  1.4776
   30MOL   H23914217   0.979   6.386   1.710 -1.8744 -1.7501  0.1831
   30MOL   H24014218   1.013   6.670   1.676 -0.2038  1.9204  1.9934
   30MOL   H24114219   0.883   6.678   1.772  0.4755  0.8308  2.0191
   30MOL   O24214220   1.077   6.702   1.937  0.7448  0.0937  0.2320
   30MOL   C24314221   1.127   6.687   2.067 -0.6527  0.2700  0.4958
   30MOL   C24414222   1.069   6.795   2.157  0.6074 -0.3276  0.2289
   30MOL   C24514223   1.154   6.918   2.146  0.1495 -1.0178  0.2491
   30MOL   C24614224   1.146   7.012   2.266  0.0171  0.4235 -0.0747
   30MOL   O24714225   1.011   7.041   2.277 -0.9985  0.0449 -0.7100
   30MOL   C24814226   0.958   7.092   2.388 -1.0813  0.1379  0.3402
   30MOL   O24914227   1.025   7.140   2.484 -0.2007  0.3975  0.0555
   30MOL   C25014228   0.810   7.082   2.398  0.3934 -0.0559  0.2713
   30MOL   C25114229   0.730   7.158   2.300  0.2938 -0.0287  0.2265
   30MOL   C25214230   0.639   7.258   2.367  0.8202 -0.8650  0.2716
   30MOL   O25314231   0.582   7.235   2.472  0.6172  0.4851 -0.0886
   30MOL   H25414232   1.101   6.588   2.106 -0.2169  0.2188  0.6601
   30MOL   H25514233   1.234   6.697   2.050 -0.8805 -1.4380 -2.2158
   30MOL   H25614234   1.060   6.747   2.254 -2.5361 -0.5551 -0.1245
   30MOL   H25714235   0.967   6.811   2.122  0.3949  1.0328  1.3637
   30MOL   H25814236   1.128   6.981   2.062 -0.6301 -2.2538 -0.4564
   30MOL   H25914237   1.258   6.884   2.134  0.4451 -0.2053  0.4902
   30MOL   H26014238   1.168   6.948   2.352 -1.4963  2.1799  1.6672
   30MOL   H26114239   1.212   7.099   2.270 -0.4834  0.7883  0.2398
   30MOL   H26214240   0.790   7.128   2.495  1.4148 -1.8197  1.3332
   30MOL   H26314241   0.774   6.980   2.408 -1.1398  0.6634  2.4258
   30MOL   H26414242   0.802   7.212   2.240  0.2821 -0.8383 -0.5278
   30MOL   H26514243   0.677   7.085   2.238  1.8728 -0.3596 -0.7472
   30MOL   O26614244   0.638   7.376   2.301 -0.0856  0.6165 -0.2131
   30MOL   C26714245   0.568   7.486   2.353 -0.4547 -0.0303  0.1181
   30MOL   C26814246   0.424   7.482   2.309  0.5960  0.9180  0.5816
   30MOL   C26914247   0.343   7.583   2.384 -0.7986  0.8890 -0.8536
   30MOL   C27014248   0.195   7.541   2.378  0.6121  0.1097  0.4647
   30MOL   O27114249   0.108   7.654   2.412  0.0555  0.1975  1.1179
   30MOL   C27214250   7.868   7.672   2.324 -0.3372  0.3404 -0.0508
   30MOL   O27314251   7.836   7.595   2.234 -0.3549 -0.1281 -0.1198
   30MOL   C27414252   7.814   7.817   2.333 -0.1555 -0.1112  0.1723
   30MOL   C27514253   7.794   7.859   2.484  0.5505 -0.6484  0.4655
   30MOL   C27614254   7.649   7.863   2.539 -0.2912 -0.1980  0.3677
   30MOL   O27714255   7.557   7.861   2.456  0.1741 -0.0464  0.2062
   30MOL   H27814256   0.571   7.490   2.462 -2.4438  1.0782  0.1592
   30MOL   H27914257   0.614   7.579   2.321 -2.5286  0.5077 -1.4040
   30MOL   H28014258   0.392   7.379   2.329 -0.9933  0.5864 -3.1697
   30MOL   H28114259   0.426   7.476   2.200  0.1344 -1.3366  0.6658
   30MOL   H28214260   0.367   7.686   2.356  0.1058  1.6320  2.3433
   30MOL   H28314261   0.370   7.579   2.490  0.0032 -3.6001 -1.1431
   30MOL   H28414262   0.177   7.495   2.282  0.2277  1.9205 -0.3550
   30MOL   H28514263   0.170   7.473   2.460  0.7370  0.6977  1.0039
   30MOL   H28614264   7.717   7.835   2.286 -0.1587 -0.4971  0.0278
   30MOL   H28714265   7.858   0.017   2.268  0.8863 -1.6885 -0.9533
   30MOL   H28814266   7.853   7.796   2.550  0.9461  0.6286  1.3372
   30MOL   H28914267   7.831   0.086   2.489  1.1611 -0.7186 -1.8727
   30MOL   O29014268   7.634   7.850   2.673  0.2606  0.7368  0.9031
   30MOL   C29114269   7.499   7.847   2.719  0.4405  0.0975 -0.4498
   30MOL   C29214270   7.441   0.117   2.713  1.1712 -0.3522  0.3493
   30MOL   C29314271   7.530   0.221   2.783  0.1651 -0.0720 -0.4213
   30MOL   C29414272   7.477   0.365   2.796 -0.5026 -0.5731  0.1789
   30MOL   O29514273   7.574   0.464   2.842  0.4977 -0.6312 -0.5949
   30MOL   C29614274   7.516   0.561   2.915  0.1020 -0.0426  0.1621
   30MOL   O29714275   7.400   0.570   2.952 -0.4982 -0.0295  0.5321
   30MOL   C29814276   7.619   0.671   2.953 -0.4654  0.1622 -0.7280
   30MOL   C29914277   7.690   0.617   3.080 -0.5662  0.3522 -0.7669
   30MOL   C30014278   7.612   0.637   3.201  0.4853  0.6140  0.1374
   30MOL   O30114279   7.622   0.741   3.263 -0.2149 -0.4392  0.3733
   30MOL   H30214280   7.450   7.769   2.662 -1.9431  0.6279  0.8117
   30MOL   H30314281   7.492   7.819   2.824 -2.2694  0.3396 -0.5401
   30MOL   H30414282   7.345   0.108   2.763 -0.0573  2.5369 -1.3361
   30MOL   H30514283   7.418   0.143   2.610 -3.4023  0.0621  1.3731
   30MOL   H30614284   7.628   0.219   2.736  0.0180  1.4610 -0.8192
   30MOL   H30714285   7.549   0.184   2.883 -0.9876 -0.0630 -0.1885
   30MOL   H30814286   7.439   0.396   2.698  0.6455 -0.8172 -0.3459
   30MOL   H30914287   7.399   0.354   2.872  1.4665 -0.1773  2.2892
   30MOL   H31014288   7.570   0.766   2.975 -3.6029 -1.4277 -0.4774
   30MOL   H31114289   7.694   0.692   2.877 -2.4216  1.5055 -2.3401
   30MOL   H31214290   7.698   0.508   3.073 -1.7198  0.2991 -1.2978
   30MOL   H31314291   7.785   0.667   3.098  0.7215 -2.2487 -0.0345
   30MOL   O31414292   7.541   0.531   3.238 -0.2150  0.3352 -0.5791
   30MOL   C31514293   7.475   0.527   3.366  0.2174 -0.1211 -0.0892
   30MOL   C31614294   7.561   0.491   3.484 -1.4945 -0.2299 -0.1902
   30MOL   C31714295   7.623   0.347   3.472 -0.9326  0.8950 -0.2507
   30MOL   C31814296   7.742   0.297   3.558  0.1508  0.2864 -0.1097
   30MOL   O31914297   7.747   0.346   3.689  0.0728 -0.1199  0.1279
   30MOL   C32014298   7.799   0.476   3.711 -0.2488  0.2402 -0.1887
   30MOL   O32114299   7.851   0.547   3.627  0.0939  0.1033  0.1148
   30MOL   C32214300   7.807   0.513   3.859 -0.1647 -0.2070 -0.0030
   30MOL   C32314301   7.669   0.532   3.921 -0.3502 -0.1086  0.0202
   30MOL   C32414302   7.673   0.489   4.064  0.3992 -0.0251 -0.3728
   30MOL   O32514303   7.702   0.570   4.154  0.4016 -0.4868  0.5214
   30MOL   H32614304   7.444   0.631   3.378  0.5863 -0.0150 -0.0293
   30MOL   H32714305   7.382   0.472   3.374  0.7088 -0.8091  0.8920
   30MOL   H32814306   7.520   0.509   3.583  1.3764 -1.3153  1.2531
   30MOL   H32914307   7.651   0.552   3.484  0.1306 -2.5812 -0.1469
   30MOL   H33014308   7.650   0.336   3.367  1.6132  0.5031  0.4218
   30MOL   H33114309   7.550   0.266   3.476 -0.5867  0.6167  0.4734
   30MOL   H33214310   7.742   0.189   3.564 -0.0644  0.3326  0.8134
   30MOL   H33314311   7.837   0.325   3.512  1.0591 -2.1195  0.2509
   30MOL   H33414312   7.843   0.616   3.855 -2.4859  0.6732  0.6954
   30MOL   H33514313   7.864   0.447   3.925 -0.6063  2.1114  2.8122
   30MOL   H33614314   7.641   0.638   3.923 -1.2436 -0.3500  1.7938
   30MOL   H33714315   7.581   0.484   3.878  0.2294 -0.4799 -0.7577
   30MOL   O33814316   7.661   0.353   4.082  0.1707 -0.8072 -0.5555
   30MOL   C33914317   7.675   0.309   4.217  0.5553 -0.7449 -0.6229
   30MOL   C34014318   7.583   0.185   4.237  0.7148  0.0597  0.4295
   30MOL   C34114319   7.436   0.225   4.262  0.0024 -0.2043  0.3207
   30MOL   C34214320   7.348   0.110   4.300 -0.1634 -0.0088  0.7340
   30MOL   O34314321   7.332   0.025   4.187  0.6641 -0.7515 -0.1312
   30MOL   C34414322   7.212   0.019   4.133 -0.3948  0.2961 -0.4915
   30MOL   O34514323   7.118   0.102   4.147 -0.5307 -0.0121  0.0618
   30MOL   C34614324   7.185   7.761   4.059  0.1430 -0.1132 -0.0519
   30MOL   C34714325   7.314   7.673   4.046 -0.1522 -0.0087  0.4029
   30MOL   C34814326   7.302   7.554   3.948  0.4554  0.5534  0.5035
   30MOL   O34914327   7.388   7.528   3.865  0.2912 -0.4129  0.5303
   30MOL   H35014328   7.781   0.295   4.239  0.1434 -1.2576  1.0687
   30MOL   H35114329   7.646   0.392   4.281  3.0517  0.2682 -0.7419
   30MOL   H35214330   7.623   0.121   4.316  2.7441 -1.3224 -1.6692
   30MOL   H35314331   7.588   0.119   4.151 -1.4785 -0.6359  0.8033
   30MOL   H35414332   7.395   0.270   4.171  0.8293 -0.8327 -0.3770
   30MOL   H35514333   7.432   0.306   4.334  0.1713 -0.3678  0.5133
   30MOL   H35614334   7.398   0.046   4.372 -1.5476 -2.2447 -0.2189
   30MOL   H35714335   7.251   0.132   4.345 -0.0675 -1.6889  1.8055
   30MOL   H35814336   7.131   7.795   3.971  0.2612  1.3289  0.4144
   30MOL   H35914337   7.111   7.707   4.119 -1.4827  0.9394 -1.0735
   30MOL   H36014338   7.402   7.728   4.011 -0.2258  0.0532  0.3131
   30MOL   H36114339   7.352   7.622   4.135  1.6709  1.0921  0.2801
   30MOL   O36214340   7.186   7.490   3.964 -0.1601  0.2086  0.2973
   30MOL   C36314341   7.143   7.386   3.885 -0.0083  0.3241 -1.2256
   30MOL   C36414342   7.009   7.411   3.821 -0.3440  0.2666  0.3907
   30MOL   C36514343   6.914   7.479   3.919  0.2074 -0.1657  0.0335
   30MOL   C36614344   6.772   7.496   3.868  0.5205 -0.6199  0.4375
   30MOL   O36714345   6.731   7.368   3.829 -0.0796  0.9044 -0.1685
   30MOL   C36814346   6.609   7.353   3.773 -0.1926  0.3403 -0.3729
   30MOL   O36914347   6.527   7.435   3.757  0.5166  0.3460  0.0568
   30MOL   C37014348   6.583   7.208   3.744 -0.4375  0.0821  0.6570
   30MOL   C37114349   6.497   7.193   3.614  0.8779 -0.2434  0.0723
   30MOL   C37214350   6.361   7.123   3.643 -0.0802  0.2234  0.8202
   30MOL   O37314351   6.348   7.011   3.600  0.0531  0.8393  0.5562
   30MOL   H37414352   7.200   7.359   3.796 -2.3025 -1.7656 -2.1071
   30MOL   H37514353   7.157   7.300   3.952 -2.3193  0.1661 -0.9142
   30MOL   H37614354   6.975   7.316   3.782 -0.0351  0.6519 -0.8405
   30MOL   H37714355   7.028   7.479   3.738  1.2404  0.8257  1.1877
   30MOL   H37814356   6.956   7.574   3.953  2.7991 -1.3707  0.2462
   30MOL   H37914357   6.912   7.415   4.007  0.9482 -2.8951 -1.9061
   30MOL   H38014358   6.701   7.537   3.940 -0.9030 -1.8414 -0.2399
   30MOL   H38114359   6.780   7.554   3.775 -0.2175 -1.7501 -0.3474
   30MOL   H38214360   6.531   7.159   3.826  1.9846 -2.2324  0.8673
   30MOL   H38314361   6.679   7.157   3.737 -0.0465  0.4008  3.3202
   30MOL   H38414362   6.476   7.289   3.567  2.7876  0.8183  1.2844
   30MOL   H38514363   6.552   7.137   3.538  0.9816 -0.6812  0.4656
   30MOL   O38614364   6.276   7.201   3.712  0.4448 -0.3428  0.4696
   30MOL   C38714365   6.140   7.159   3.737 -0.0701 -0.8257  0.3657
   30MOL   C38814366   6.075   7.224   3.615 -0.0274  0.3067 -0.4510
   30MOL   C38914367   6.064   7.376   3.634 -0.6931  0.1722 -0.5653
   30MOL   C39014368   5.955   7.449   3.561 -0.4685  0.3388  0.1548
   30MOL   O39114369   5.956   7.587   3.586  0.2481 -0.3662 -0.2596
   30MOL   C39214370   6.025   7.668   3.501  0.2589  0.1266  0.4574
   30MOL   O39314371   6.090   7.627   3.402  0.5566 -0.2521 -0.4039
   30MOL   C39414372   6.012   7.821   3.531  0.1953 -0.1627 -0.6554
   30MOL   C39514373   6.027   7.859   3.679  0.0079  0.4228 -1.1561
   30MOL   C39614374   5.896   0.001   3.755  0.3285 -0.3292 -0.9425
   30MOL   O39714375   5.787   7.865   3.704 -0.0662 -0.0730  0.2817
   30MOL   H39814376   6.135   7.051   3.727  1.8913 -1.0465  1.4070
   30MOL   H39914377   6.097   7.191   3.832 -1.4605 -1.7604  0.0597
   30MOL   H40014378   5.974   7.186   3.605  0.0598  0.1357 -0.6744
   30MOL   H40114379   6.130   7.194   3.526  1.7095 -0.8730  0.9776
   30MOL   H40214380   6.154   7.428   3.601  0.3864 -1.8977 -0.9874
   30MOL   H40314381   6.057   7.403   3.739  3.4373 -1.9413  0.3468
   30MOL   H40414382   5.948   7.432   3.454 -2.5809  0.2913  0.2736
   30MOL   H40514383   5.856   7.420   3.595  0.3667  0.8682  3.1794
   30MOL   H40614384   5.913   7.840   3.489  0.5848 -0.1879 -1.5867
   30MOL   H40714385   6.078   0.005   3.469 -0.3610  0.3174 -0.7986
   30MOL   H40814386   6.090   7.792   3.737 -0.3371 -0.0744 -1.3533
   30MOL   H40914387   6.083   0.078   3.686  1.0512 -0.2405 -0.4984
   30MOL   O41014388   5.923   0.035   3.883 -0.6052 -0.2030  0.1755
   30MOL   C41114389   5.824   0.034   3.982  0.7823 -0.6227 -0.4836
   30MOL   C41214390   5.726   0.157   3.986 -0.0273  0.8260 -0.3007
   30MOL   C41314391   5.675   0.181   4.131 -0.0993  0.2546 -0.4333
   30MOL   C41414392   5.588   0.298   4.161 -0.4033  0.3089 -0.4506
   30MOL   O41514393   5.466   0.271   4.090  0.7788 -0.4272  0.1560
   30MOL   C41614394   5.352   0.272   4.165 -0.1581  0.2270 -0.8910
   30MOL   O41714395   5.339   0.304   4.281  0.2115  0.2237  0.4271
   30MOL   C41814396   5.235   0.229   4.075  0.1071 -0.0295 -0.5226
   30MOL   C41914397   5.247   0.076   4.039  0.0850  0.4867  0.1444
   30MOL   C42014398   5.127   0.023   3.963  0.6415 -0.4277 -0.5779
   30MOL   O42114399   5.083   0.097   3.871 -0.0430  0.0755 -0.2991
   30MOL   H42214400   5.767   7.816   3.986 -0.2147 -0.0254 -0.6237
   30MOL   H42314401   5.870   0.041   4.081 -0.5169 -0.9277  0.1513
   30MOL   H42414402   5.642   0.125   3.925 -0.7032 -0.2719  1.1872
   30MOL   H42514403   5.773   0.251   3.957 -0.2052  1.0730  0.1890
   30MOL   H42614404   5.760   0.203   4.196 -0.1428  1.7913 -0.8739
   30MOL   H42714405   5.618   0.093   4.161  1.0197  0.4508  2.4476
   30MOL   H42814406   5.578   0.303   4.269  1.4306 -0.5095 -0.2234
   30MOL   H42914407   5.626   0.391   4.118 -1.6055  0.9960 -0.0497
   30MOL   H43014408   5.240   0.285   3.981  2.6966  1.6734  0.5724
   30MOL   H43114409   5.144   0.262   4.125  0.4995  1.6285 -0.8603
   30MOL   H43214410   5.342   0.062   3.988 -1.0680 -0.2278 -1.8718
   30MOL   H43314411   5.257   0.016   4.130  1.7930  0.1826 -0.2349
   30MOL   O43414412   5.090   7.779   4.006 -0.1428 -0.8666 -0.2110
   30MOL   C43514413   4.983   7.709   3.936 -0.2659 -0.6390 -0.2961
   30MOL   C43614414   4.952   7.572   4.004  0.0089 -0.3150  0.3196
   30MOL   C43714415   5.062   7.468   3.973 -0.3196 -0.1125 -1.0286
   30MOL   C43814416   5.031   7.329   4.030  0.5471  0.6736  0.1789
   30MOL   O43914417   4.937   7.278   3.942 -0.5441 -0.2370  0.0146
   30MOL   C44014418   4.860   7.170   3.980 -0.7150 -0.2921 -0.0344
   30MOL   O44114419   4.869   7.116   4.090 -0.2374  0.1513 -0.7277
   30MOL   C44214420   4.755   7.126   3.881 -0.1537  0.1035  0.6987
   30MOL   C44314421   4.697   7.239   3.797  0.1361 -0.2671  0.6226
   30MOL   C44414422   4.554   7.193   3.763 -0.1081 -0.2277 -0.1637
   30MOL   O44514423   4.528   7.149   3.656  0.2942  0.1819  0.4874
   30MOL   H44614424   4.892   7.769   3.934 -1.3257 -2.2259 -0.8239
   30MOL   H44714425   5.000   7.694   3.829 -2.8293 -1.6923 -0.5839
   30MOL   H44814426   4.853   7.548   3.965 -0.0584 -0.9838  0.8920
   30MOL   H44914427   4.932   7.585   4.111 -0.3526  0.7725  0.1224
   30MOL   H45014428   5.156   7.507   4.010 -1.6714  0.4516  1.9377
   30MOL   H45114429   5.093   7.463   3.868  3.8677  1.9924  0.0231
   30MOL   H45214430   5.125   7.275   4.040  0.2600  0.1616  0.1890
   30MOL   H45314431   4.975   7.340   4.123 -0.3712  1.3983 -0.4513
   30MOL   H45414432   4.675   7.076   3.935 -0.6885  1.5187  1.2342
   30MOL   H45514433   4.782   7.038   3.822  1.5850  0.7045  0.5571
   30MOL   H45614434   4.704   7.331   3.855  1.0578  0.0029  0.0846
   30MOL   H45714435   4.747   7.253   3.701 -0.5410  0.0025  0.3008
   30MOL   O45814436   4.470   7.218   3.863 -0.2702 -0.5031 -0.0169
   30MOL   C45914437   4.331   7.195   3.852 -0.5022  0.3241 -0.5828
   30MOL   C46014438   4.264   7.291   3.943  0.9379  0.2842  0.1641
   30MOL   C46114439   4.109   7.275   3.928 -0.1268  0.2427 -0.0750
   30MOL   C46214440   4.056   7.319   3.795  0.0254  0.0147  0.3290
   30MOL   O46314441   3.910   7.320   3.809  0.4975 -0.2592 -0.4381
   30MOL   C46414442   3.845   7.433   3.842 -0.0325  0.0827 -0.0648
   30MOL   O46514443   3.895   7.538   3.882  0.2963 -0.3446 -0.3152
   30MOL   C46614444   3.699   7.418   3.824  0.3255  0.4239  0.5939
   30MOL   C46714445   3.627   7.553   3.805 -0.0233 -0.3939  0.1700
   30MOL   C46814446   3.530   7.565   3.694 -0.0987 -0.4026  0.6453
   30MOL   O46914447   3.572   7.547   3.580  0.1914 -0.1356  0.6413
   30MOL   H47014448   4.302   7.217   3.750 -0.1610 -1.9861 -1.2212
   30MOL   H47114449   4.305   7.091   3.874  1.0335  0.2365  0.9608
   30MOL   H47214450   4.291   7.396   3.932 -2.6953  1.2312 -0.1260
   30MOL   H47314451   4.303   7.269   4.043  0.2743  0.7086  0.5185
   30MOL   H47414452   4.065   7.339   4.005  0.7320 -1.0857  1.5573
   30MOL   H47514453   4.080   7.173   3.955 -0.8130 -0.0796 -1.9625
   30MOL   H47614454   4.097   7.415   3.761 -1.5653  0.8451  0.7085
   30MOL   H47714455   4.092   7.245   3.724 -1.1116 -0.7447  0.5392
   30MOL   H47814456   3.664   7.381   3.920 -0.4337 -0.7976 -0.1362
   30MOL   H47914457   3.674   7.341   3.751 -1.1400 -0.0361  1.5494
   30MOL   H48014458   3.569   7.589   3.891  0.5511  1.0372 -0.0147
   30MOL   H48114459   3.700   7.632   3.786  1.0298 -2.1214 -3.2032
   30MOL   H48214460   3.426   7.591   3.716 -0.3868  0.1384 -1.2472
   31MOL     O114461   5.556   5.758   4.616  0.4367  0.2078 -0.1761
   31MOL     C214462   5.523   5.875   4.540 -0.1585  0.3354  0.1212
   31MOL     C314463   5.506   5.840   4.393 -0.0759  0.2625  0.5591
   31MOL     C414464   5.456   5.957   4.306  0.8708  0.9649 -0.0895
   31MOL     C514465   5.431   5.927   4.151 -0.5455  0.3411 -0.2521
   31MOL     O614466   5.400   5.791   4.126  0.1769  0.2301  0.1394
   31MOL     C714467   5.278   5.738   4.142  0.4970 -0.2768 -0.3384
   31MOL     O814468   5.178   5.801   4.186  0.3794 -0.1759 -0.5220
   31MOL     C914469   5.265   5.591   4.117 -0.3674  0.8071 -0.0400
   31MOL    C1014470   5.228   5.490   4.232  0.3131  0.1326  0.4030
   31MOL    C1114471   5.094   5.422   4.217  1.3117 -0.0660 -0.1911
   31MOL    O1214472   5.016   5.455   4.131  1.0800 -0.2229  0.3410
   31MOL    H1314473   5.440   5.922   4.594  1.1290  0.8394  1.7004
   31MOL    H1414474   5.604   5.947   4.549 -0.0843 -0.0014  2.6039
   31MOL    H1514475   5.434   5.759   4.388  0.3790 -0.1882  1.3999
   31MOL    H1614476   5.600   5.801   4.352 -0.0200  1.0477 -0.0781
   31MOL    H1714477   5.533   6.034   4.306 -0.0361  1.8837 -0.3446
   31MOL    H1814478   5.362   5.996   4.345  0.3763 -0.5249  0.2512
   31MOL    H1914479   5.373   6.008   4.106  0.1874  1.1355  0.1998
   31MOL    H2014480   5.520   5.935   4.088 -0.3468 -2.8990 -0.4417
   31MOL    H2114481   5.369   5.570   4.091 -0.0095  1.9252  0.4580
   31MOL    H2214482   5.209   5.566   4.027  2.0896  1.8894 -1.9217
   31MOL    H2314483   5.308   5.416   4.236 -0.6629 -0.9178  0.8817
   31MOL    H2414484   5.234   5.536   4.330 -0.8947  3.3461 -0.9732
   31MOL    H2514485   5.512   5.764   4.700  1.0944 -0.3348  0.2082
   31MOL    O2614486   5.062   5.347   4.323 -0.6072  0.7905 -0.0218
   31MOL    C2714487   4.937   5.278   4.326 -0.0295  0.3454  0.4800
   31MOL    C2814488   4.913   5.227   4.468 -0.2938  0.0617  0.4629
   31MOL    C2914489   4.900   5.332   4.578  0.2097 -0.2031  0.1371
   31MOL    C3014490   4.846   5.280   4.713 -0.4936  0.0608 -0.2106
   31MOL    O3114491   4.852   5.373   4.817  0.0021 -0.1970 -0.1989
   31MOL    C3214492   4.816   5.334   4.940  0.0987  0.9938  0.1330
   31MOL    O3314493   4.752   5.229   4.974  0.4978  0.1165  0.3224
   31MOL    C3414494   4.838   5.434   5.048 -0.4354 -0.4920 -0.4057
   31MOL    C3514495   4.715   5.461   5.134 -0.1051 -0.0816 -0.2059
   31MOL    C3614496   4.756   5.537   5.257 -0.3152  0.4185 -0.0456
   31MOL    O3714497   4.742   5.661   5.265  0.0608 -0.0460  0.5696
   31MOL    H3814498   4.855   5.343   4.294 -0.5167 -1.7215 -2.7541
   31MOL    H3914499   4.947   5.192   4.259  0.5332 -0.1942  1.2504
   31MOL    H4014500   4.994   5.156   4.484 -0.6306 -0.3162  0.4777
   31MOL    H4114501   4.822   5.169   4.456  0.0406 -0.5469  0.8376
   31MOL    H4214502   4.853   5.423   4.541  1.7818  0.2132 -0.8594
   31MOL    H4314503   5.002   5.365   4.595  0.7267 -1.1072 -1.1760
   31MOL    H4414504   4.741   5.248   4.715  0.2922 -2.6504  0.1259
   31MOL    H4514505   4.902   5.193   4.745 -1.3587  0.1724  1.6770
   31MOL    H4614506   4.870   5.527   5.000  0.4005 -0.3697  0.3635
   31MOL    H4714507   4.925   5.395   5.101 -0.3507  1.0998  0.6589
   31MOL    H4814508   4.639   5.512   5.075 -1.5868 -0.6710  1.1311
   31MOL    H4914509   4.664   5.371   5.169 -1.2211  0.4598 -0.4411
   31MOL    O5014510   4.816   5.468   5.356  0.1132  0.1584  0.3553
   31MOL    C5114511   4.866   5.534   5.476  0.2981 -0.3164  0.0045
   31MOL    C5214512   4.757   5.539   5.580  0.6059 -0.0160  0.5368
   31MOL    C5314513   4.719   5.398   5.624  0.5162 -0.6923  0.0135
   31MOL    C5414514   4.615   5.409   5.736 -0.4507  0.1777  1.0190
   31MOL    O5514515   4.659   5.485   5.841  0.3278 -0.5123  0.3050
   31MOL    C5614516   4.711   5.417   5.950  0.4077  0.5431  0.6174
   31MOL    O5714517   4.719   5.296   5.969  0.2376  0.2483  0.3588
   31MOL    C5814518   4.762   5.511   6.053 -0.1774 -1.1786 -0.0254
   31MOL    C5914519   4.659   5.621   6.091  0.3149 -0.4634  0.9883
   31MOL    C6014520   4.727   5.747   6.145 -0.7168  0.3850  0.2110
   31MOL    O6114521   4.850   5.750   6.174 -0.0411  0.1750  0.5479
   31MOL    H6214522   4.959   5.484   5.501  1.5648  1.2026 -1.5620
   31MOL    H6314523   4.900   5.635   5.451  1.6011 -0.7029  0.1648
   31MOL    H6414524   4.670   5.587   5.536  1.6285  0.5425 -0.8997
   31MOL    H6514525   4.790   5.595   5.667 -2.1390 -0.3186  1.8308
   31MOL    H6614526   4.805   5.343   5.662  1.0109 -1.4152 -2.0882
   31MOL    H6714527   4.687   5.331   5.543 -1.0324 -0.6138  0.5464
   31MOL    H6814528   4.518   5.436   5.694  0.2512 -0.7782 -1.2858
   31MOL    H6914529   4.598   5.303   5.759  2.3277 -0.6250 -0.4641
   31MOL    H7014530   4.859   5.551   6.023 -0.7923  1.6900  1.6548
   31MOL    H7114531   4.779   5.452   6.143  1.6806  0.1972  0.5520
   31MOL    H7214532   4.596   5.654   6.009  0.2403 -1.4697  0.6356
   31MOL    H7314533   4.587   5.596   6.169 -2.1197  0.8449 -0.8206
   31MOL    O7414534   4.643   5.850   6.153  0.3030  0.2529  0.4799
   31MOL    C7514535   4.683   5.979   6.189  0.1947 -0.3770 -0.0416
   31MOL    C7614536   4.562   6.065   6.208  0.2482  0.3691 -0.5119
   31MOL    C7714537   4.472   6.076   6.087  0.2554  0.1191  0.2582
   31MOL    C7814538   4.343   6.158   6.114 -0.3206 -0.1201 -0.6258
   31MOL    O7914539   4.282   6.160   5.984  0.0874  0.6018  0.2444
   31MOL    C8014540   4.181   6.238   5.964  0.4096  0.5062  0.1916
   31MOL    O8114541   4.132   6.309   6.054  0.0365  0.5325 -0.2070
   31MOL    C8214542   4.123   6.226   5.820 -0.5613 -0.3510 -0.3445
   31MOL    C8314543   4.086   6.368   5.774  0.5297  0.7598  0.4488
   31MOL    C8414544   3.937   6.379   5.750 -0.0567 -0.4200  0.5999
   31MOL    O8514545   3.853   6.319   5.819 -0.6654  0.0208  0.1166
   31MOL    H8614546   4.743   5.973   6.280 -0.4198  0.2749  0.4020
   31MOL    H8714547   4.753   6.025   6.119  0.6854 -2.3268 -0.8791
   31MOL    H8814548   4.597   6.163   6.240 -0.5737  0.7558 -0.7814
   31MOL    H8914549   4.513   6.018   6.293  2.4318  0.6085  0.9082
   31MOL    H9014550   4.447   5.974   6.058  0.9908  0.2940 -1.0502
   31MOL    H9114551   4.534   6.118   6.007  1.1032  0.5145  1.1096
   31MOL    H9214552   4.269   6.111   6.179 -1.3069  0.7301 -1.1070
   31MOL    H9314553   4.361   6.263   6.137  0.3986 -0.0468 -1.4668
   31MOL    H9414554   4.040   6.156   5.829  0.7546 -2.0059 -0.8186
   31MOL    H9514555   4.196   6.182   5.752 -2.1108 -2.4434 -0.7262
   31MOL    H9614556   4.117   6.445   5.844 -2.1941  1.8698  0.5010
   31MOL    H9714557   4.121   6.381   5.671 -1.9775  0.4044 -0.4931
   31MOL    O9814558   3.912   6.472   5.665 -0.0139 -0.0208  0.7561
   31MOL    C9914559   3.790   6.491   5.604 -0.0108 -0.3873  1.2981
   31MOL   C10014560   3.735   6.629   5.640  0.2232  0.0696  0.1875
   31MOL   C10114561   3.674   6.611   5.778  0.4095  0.3489  0.1386
   31MOL   C10214562   3.634   6.744   5.852  0.0505  0.2941  0.0028
   31MOL   O10314563   3.576   6.731   5.984 -0.2400  0.7048 -0.3618
   31MOL   C10414564   3.442   6.713   6.008  0.4401 -0.5913 -0.2825
   31MOL   O10514565   3.350   6.715   5.924 -0.6396 -0.0628  0.0925
   31MOL   C10614566   3.414   6.694   6.158 -0.2464  0.6794  0.2813
   31MOL   C10714567   3.272   6.656   6.205  0.2821 -0.2502  0.4007
   31MOL   C10814568   3.263   6.522   6.275  0.3921  1.3632  0.5246
   31MOL   O10914569   3.346   6.435   6.278 -0.7527  0.3870 -0.0299
   31MOL   H11014570   3.806   6.499   5.497 -1.4368 -0.5702  1.0557
   31MOL   H11114571   3.717   6.412   5.621 -0.9832  0.9013  3.2898
   31MOL   H11214572   3.668   6.668   5.564  3.5494  4.8360 -0.5353
   31MOL   H11314573   3.805   6.712   5.652  0.3181  0.4532 -2.7812
   31MOL   H11414574   3.754   6.568   5.838  1.7797  1.3762 -0.8991
   31MOL   H11514575   3.589   6.544   5.764  0.1767  0.6104  0.2811
   31MOL   H11614576   3.729   6.798   5.840  0.6422 -0.6127  0.5717
   31MOL   H11714577   3.566   6.801   5.789 -1.2050  1.2835  2.1928
   31MOL   H11814578   3.440   6.794   6.192 -0.3564  1.1128 -0.8867
   31MOL   H11914579   3.496   6.629   6.189  0.4370  1.2216 -0.3588
   31MOL   H12014580   3.231   6.740   6.262 -1.6901 -1.5623  0.9300
   31MOL   H12114581   3.204   6.659   6.120 -0.3650  1.9860  0.9473
   31MOL   O12214582   3.146   6.504   6.345 -0.0216 -0.0981  0.1613
   31MOL   C12314583   3.127   6.390   6.431 -0.4653  0.0319 -0.3959
   31MOL   C12414584   2.976   6.364   6.435  0.0088  0.2951 -0.3523
   31MOL   C12514585   2.940   6.268   6.549  0.4462  0.2489 -1.1730
   31MOL   C12614586   2.788   6.264   6.563 -0.8712 -0.0470  0.0943
   31MOL   O12714587   2.740   6.389   6.611 -0.7344 -0.1277 -0.2554
   31MOL   C12814588   2.617   6.422   6.589 -0.3127 -0.3896 -0.7599
   31MOL   O12914589   2.532   6.351   6.553  0.3091 -0.1538  0.3296
   31MOL   C13014590   2.581   6.573   6.620  0.0738  0.2603 -0.1247
   31MOL   C13114591   2.542   6.654   6.500 -0.3826  0.1362  0.5367
   31MOL   C13214592   2.437   6.764   6.533 -0.2625 -0.4501  0.4013
   31MOL   O13314593   2.361   6.755   6.631  0.5545  0.0655  0.3964
   31MOL   H13414594   3.184   6.304   6.396 -0.8845 -1.0691  1.5406
   31MOL   H13514595   3.171   6.411   6.529  0.9557 -0.3435 -0.9457
   31MOL   H13614596   2.941   6.323   6.340 -2.1612  0.5595  0.3007
   31MOL   H13714597   2.929   6.462   6.441 -2.1221 -0.6009 -1.9640
   31MOL   H13814598   2.986   6.303   6.641  0.9688  0.5877 -1.5623
   31MOL   H13914599   2.990   6.174   6.527  0.9966  0.2959 -0.1724
   31MOL   H14014600   2.741   6.246   6.466  0.3975 -1.0055 -0.3489
   31MOL   H14114601   2.774   6.188   6.639 -0.2284  1.0523  1.3293
   31MOL   H14214602   2.655   6.629   6.677 -1.9221  0.3992  2.4276
   31MOL   H14314603   2.498   6.554   6.688  0.4862  1.6190  0.7666
   31MOL   H14414604   2.625   6.713   6.460 -0.3542  1.0285  1.8815
   31MOL   H14514605   2.492   6.597   6.422  2.3344  0.2511 -1.3483
   31MOL   O14614606   2.442   6.871   6.446  0.0453 -0.4949  0.8844
   31MOL   C14714607   2.336   6.969   6.463  0.2434  0.1089  0.0746
   31MOL   C14814608   2.376   7.103   6.396 -0.1456 -0.3941 -0.3358
   31MOL   C14914609   2.269   7.217   6.408 -0.3169  0.2958 -0.1375
   31MOL   C15014610   2.240   7.258   6.552  0.1622  0.0047 -0.3144
   31MOL   O15114611   2.171   7.160   6.626 -0.1691  0.0062  0.1860
   31MOL   C15214612   2.144   7.169   6.760  0.2585  0.6120 -0.1993
   31MOL   O15314613   2.176   7.262   6.835  0.7284 -0.1190  0.1335
   31MOL   C15414614   2.050   7.061   6.812 -0.1616  0.2679 -0.4511
   31MOL   C15514615   2.066   6.928   6.742  0.8885  0.4704 -0.5015
   31MOL   C15614616   1.987   6.904   6.612  0.5769  0.3682  0.7355
   31MOL   O15714617   2.040   6.853   6.514  0.6039  0.0152 -0.0949
   31MOL   H15814618   2.246   6.928   6.417  0.6141  0.8641 -1.3512
   31MOL   H15914619   2.310   6.981   6.568 -0.2640 -1.3053  0.1249
   31MOL   H16014620   2.416   7.095   6.295 -0.1734  0.4266 -0.4193
   31MOL   H16114621   2.464   7.145   6.444 -0.0416 -0.0529 -0.8257
   31MOL   H16214622   2.178   7.192   6.354 -0.3211 -0.6677  0.3120
   31MOL   H16314623   2.312   7.299   6.350 -1.8547  0.8048 -0.5705
   31MOL   H16414624   2.332   7.262   6.610 -0.9642  1.6187  1.4080
   31MOL   H16514625   2.188   7.353   6.562 -1.4275 -0.7795 -0.8237
   31MOL   H16614626   1.948   7.099   6.811 -0.7611 -1.3212 -0.1557
   31MOL   H16714627   2.076   7.044   6.917  0.2659 -1.0685 -0.7636
   31MOL   H16814628   2.169   6.900   6.722  0.7645 -1.7324  1.7420
   31MOL   H16914629   2.035   6.853   6.815  0.0515 -0.7844 -2.1099
   31MOL   O17014630   1.850   6.932   6.613 -0.3418 -0.2812 -0.1949
   31MOL   C17114631   1.774   6.899   6.501  0.0226  0.1071  0.2102
   31MOL   C17214632   1.744   7.022   6.422 -0.3722  0.6693 -0.2541
   31MOL   C17314633   1.872   7.104   6.373 -0.3411 -0.6930 -0.5313
   31MOL   C17414634   1.840   7.206   6.260  0.0324 -0.0798 -0.1422
   31MOL   O17514635   1.957   7.256   6.196 -0.2453  0.6369 -0.2743
   31MOL   C17614636   1.987   7.226   6.070  0.5816 -0.9001  0.7859
   31MOL   O17714637   1.923   7.152   5.988  0.0248  0.4119  0.6023
   31MOL   C17814638   2.123   7.297   6.039 -0.0856 -0.3008  0.0194
   31MOL   C17914639   2.122   7.351   5.900  0.1439 -0.7907  0.2473
   31MOL   C18014640   2.102   7.508   5.902 -0.1400  0.2552  0.4663
   31MOL   O18114641   1.994   7.564   5.918  0.4521 -0.6966  0.6056
   31MOL   H18214642   1.810   6.820   6.435  0.8024 -0.9771  1.8966
   31MOL   H18314643   1.683   6.855   6.544 -0.5452  1.2772  0.2185
   31MOL   H18414644   1.676   7.079   6.484 -1.5274  0.4872 -1.3211
   31MOL   H18514645   1.693   6.985   6.332  0.6910 -0.2494 -0.4985
   31MOL   H18614646   1.928   7.026   6.320 -0.1296 -0.8167 -0.1297
   31MOL   H18714647   1.939   7.158   6.440 -1.1522 -2.3721  1.6926
   31MOL   H18814648   1.772   7.152   6.194 -1.3680 -0.3056  1.4539
   31MOL   H18914649   1.786   7.294   6.295  0.1001 -0.5660  1.2281
   31MOL   H19014650   2.201   7.222   6.049 -0.1756 -0.2676  1.0041
   31MOL   H19114651   2.147   7.384   6.101 -1.2962 -0.2660  0.4467
   31MOL   H19214652   2.218   7.324   5.856  0.4303  1.9267 -0.8962
   31MOL   H19314653   2.053   7.303   5.831  0.1730 -0.1247 -0.2513
   31MOL   O19414654   2.222   7.562   5.865 -0.3302 -0.1734 -0.0552
   31MOL   C19514655   2.233   7.699   5.843 -1.0377 -0.3021  0.2371
   31MOL   C19614656   2.223   7.725   5.691 -0.5791 -0.2229  0.4975
   31MOL   C19714657   2.310   7.851   5.657  0.9145  0.0902 -0.1439
   31MOL   C19814658   2.264   0.042   5.534 -0.6001  0.4942  0.1525
   31MOL   O19914659   2.355   0.126   5.468 -0.0946  0.8616 -0.0114
   31MOL   C20014660   2.463   0.089   5.394 -0.2270  0.1568  0.2034
   31MOL   O20114661   2.501   7.843   5.382  0.7150 -0.3757  0.3689
   31MOL   C20214662   2.533   0.203   5.332 -0.2231 -0.3251  0.3486
   31MOL   C20314663   2.464   0.258   5.210 -0.4687  0.2037 -0.4196
   31MOL   C20414664   2.383   0.380   5.247  0.1706 -0.2196  0.0188
   31MOL   O20514665   2.424   0.496   5.265  0.4634 -0.1883 -0.0642
   31MOL   H20614666   2.164   7.758   5.902  0.9739  2.1586  0.2046
   31MOL   H20714667   2.326   7.731   5.891 -0.6748  0.8338 -1.1893
   31MOL   H20814668   2.117   7.737   5.668 -0.0685  0.5965 -1.5855
   31MOL   H20914669   2.276   7.649   5.633  0.0657  0.8270 -0.3225
   31MOL   H21014670   2.407   7.805   5.638  1.0358  0.2738  0.0283
   31MOL   H21114671   2.321   0.046   5.740  0.1191 -1.1081  0.9783
   31MOL   H21214672   2.212   7.846   5.470 -0.7672  1.2108 -0.5141
   31MOL   H21314673   2.192   0.117   5.564 -1.8657 -0.3777 -0.6958
   31MOL   H21414674   2.635   0.166   5.324 -0.4914 -1.1218  0.5597
   31MOL   H21514675   2.537   0.277   5.413 -0.3790  0.5286 -0.4148
   31MOL   H21614676   2.544   0.284   5.140 -1.1390  2.1969 -0.4759
   31MOL   H21714677   2.405   0.183   5.156 -1.0138  0.7829 -0.6322
   31MOL   O21814678   2.259   0.344   5.266 -0.5191  0.0811  0.2035
   31MOL   C21914679   2.171   0.450   5.283  0.1016 -0.1753 -0.0657
   31MOL   C22014680   2.041   0.395   5.344  0.4904 -0.0940 -0.6660
   31MOL   C22114681   1.963   0.273   5.275 -0.0440 -0.2834 -0.2400
   31MOL   C22214682   1.827   0.237   5.336  0.0752 -0.5197 -0.7280
   31MOL   O22314683   1.744   0.359   5.344  0.1902 -0.4455  0.3153
   31MOL   C22414684   1.615   0.350   5.313 -0.0601 -0.7037 -0.2937
   31MOL   O22514685   1.553   0.244   5.299  0.6252 -0.5527 -0.1157
   31MOL   C22614686   1.552   0.481   5.325  0.8800  0.5704 -0.1359
   31MOL   C22714687   1.503   0.530   5.183  0.6250 -0.3133  0.3515
   31MOL   C22814688   1.574   0.657   5.134  0.6646 -0.0111  0.3022
   31MOL   O22914689   1.549   0.771   5.168 -0.0983 -0.5581 -0.4542
   31MOL   H23014690   2.217   0.527   5.345  0.0980 -1.6649  1.7969
   31MOL   H23114691   2.160   0.482   5.179 -0.2177 -1.6930 -0.5160
   31MOL   H23214692   1.977   0.483   5.345  2.4795  1.3739  0.7026
   31MOL   H23314693   2.040   0.362   5.449 -0.3162  2.0400  0.0191
   31MOL   H23414694   2.027   0.185   5.278  0.6496  0.1899 -1.0617
   31MOL   H23514695   1.941   0.300   5.172  0.0385  0.1413 -0.1466
   31MOL   H23614696   1.774   0.154   5.291 -1.4178  0.8691 -1.5764
   31MOL   H23714697   1.851   0.209   5.439  2.6840 -1.0908 -1.4517
   31MOL   H23814698   1.609   0.557   5.378  2.9805  0.0704 -1.6398
   31MOL   H23914699   1.470   0.448   5.389  1.4513 -0.8902 -0.1335
   31MOL   H24014700   1.504   0.454   5.105  1.7849 -0.2519  0.2869
   31MOL   H24114701   1.398   0.558   5.188  0.9357  1.0988 -0.3597
   31MOL   O24214702   1.668   0.637   5.048 -0.3403  0.8179  0.1446
   31MOL   C24314703   1.736   0.746   4.988 -0.5493  0.3186  0.1659
   31MOL   C24414704   1.890   0.754   5.004  0.0702 -0.0041 -0.0576
   31MOL   C24514705   1.919   0.789   5.151 -0.4640 -0.2219  0.1169
   31MOL   C24614706   2.069   0.770   5.179  0.6326 -1.0155  0.5380
   31MOL   O24714707   2.099   0.773   5.320  0.3451  0.1907 -0.1641
   31MOL   C24814708   2.102   0.887   5.385 -0.2359 -0.5390  0.3033
   31MOL   O24914709   2.099   0.997   5.331 -0.3118 -0.2158 -0.5824
   31MOL   C25014710   2.133   0.873   5.529  0.2873  0.3385 -0.2085
   31MOL   C25114711   2.252   0.783   5.554  0.2938  0.7558  0.2286
   31MOL   C25214712   2.217   0.641   5.607  0.2346  0.6567 -0.7590
   31MOL   O25314713   2.104   0.608   5.644  0.4562 -0.1468 -0.4792
   31MOL   H25414714   1.721   0.723   4.883 -1.2519  1.6215 -0.0258
   31MOL   H25514715   1.699   0.845   5.012 -0.1199  1.0892 -2.2501
   31MOL   H25614716   1.942   0.822   4.936 -0.1899 -0.1466 -0.3988
   31MOL   H25714717   1.938   0.658   4.987  0.2428  0.2473 -1.0020
   31MOL   H25814718   1.867   0.713   5.211 -1.2765  0.2357  0.0073
   31MOL   H25914719   1.876   0.882   5.188 -0.6454  0.0755 -0.8305
   31MOL   H26014720   2.095   0.678   5.127 -0.3200 -0.8734 -0.1914
   31MOL   H26114721   2.135   0.843   5.132  1.5394 -1.4361  1.1421
   31MOL   H26214722   2.050   0.859   5.599  0.7354 -0.1084  0.2454
   31MOL   H26314723   2.159   0.976   5.553 -0.6162  0.6408 -0.5192
   31MOL   H26414724   2.309   0.777   5.461  2.2982  2.3982  1.3170
   31MOL   H26514725   2.322   0.832   5.621 -0.9149  1.9041  0.6643
   31MOL   O26614726   2.322   0.557   5.599 -0.8215  0.0818  0.1248
   31MOL   C26714727   2.306   0.422   5.638  0.6975  0.9821 -0.1843
   31MOL   C26814728   2.384   0.393   5.765  0.2481 -0.6026 -0.5291
   31MOL   C26914729   2.540   0.383   5.731 -0.3517  0.8269  0.2087
   31MOL   C27014730   2.635   0.323   5.840 -0.5463 -0.4363 -0.6526
   31MOL   O27114731   2.627   0.185   5.832  0.6227  0.4591 -0.0081
   31MOL   C27214732   2.648   0.113   5.944 -0.3641 -0.8422 -0.4238
   31MOL   O27314733   2.689   0.165   6.051 -0.8967  0.4300  0.1232
   31MOL   C27414734   2.610   7.843   5.935 -0.1182 -0.8678  0.0693
   31MOL   C27514735   2.656   7.773   5.808 -0.0133  0.1677 -0.3374
   31MOL   C27614736   2.771   7.675   5.845  0.1312 -0.6666 -0.6319
   31MOL   O27714737   2.753   7.555   5.833 -0.1640  0.4471 -0.5166
   31MOL   H27814738   2.203   0.388   5.646  0.2363  2.0400 -1.3665
   31MOL   H27914739   2.337   0.368   5.549 -0.4516 -0.5128  0.2944
   31MOL   H28014740   2.353   0.295   5.801 -0.7413 -0.7549 -1.7974
   31MOL   H28114741   2.364   0.465   5.845  1.7076  2.0360 -2.4676
   31MOL   H28214742   2.574   0.484   5.707  0.3566  0.3131 -0.9718
   31MOL   H28314743   2.558   0.326   5.640 -1.7869  0.8307 -0.0957
   31MOL   H28414744   2.741   0.333   5.817 -0.4876  0.7986  0.0811
   31MOL   H28514745   2.606   0.378   5.930  1.2215  0.6098 -0.7122
   31MOL   H28614746   2.502   7.845   5.923 -0.3701 -1.5714  2.0137
   31MOL   H28714747   2.635   7.797   6.030 -0.4145  2.3851  1.8054
   31MOL   H28814748   2.576   7.708   5.772  0.2125 -0.6717  0.6426
   31MOL   H28914749   2.683   7.851   5.737 -0.1877  0.8215  0.3059
   31MOL   O29014750   2.876   7.734   5.894 -0.1510 -0.2603 -0.4869
   31MOL   C29114751   2.981   7.655   5.946 -0.3134 -0.0428 -0.5223
   31MOL   C29214752   3.082   7.725   6.041  0.5783  1.3235  0.2369
   31MOL   C29314753   3.164   7.634   6.136 -0.0748  0.4665  0.2609
   31MOL   C29414754   3.191   7.495   6.070  0.3562 -0.3211  0.2301
   31MOL   O29514755   3.276   7.422   6.155 -0.3544 -0.0085 -0.0285
   31MOL   C29614756   3.406   7.391   6.121  0.1462  0.4153 -0.8736
   31MOL   O29714757   3.462   7.394   6.010  0.5992 -0.2080 -0.3659
   31MOL   C29814758   3.478   7.326   6.241 -0.4570 -0.3540  0.0430
   31MOL   C29914759   3.602   7.406   6.287  0.1526 -0.2278 -0.1705
   31MOL   C30014760   3.557   7.499   6.400  0.3550 -0.0441  0.1358
   31MOL   O30114761   3.571   7.484   6.519 -0.3834 -0.7136 -0.3593
   31MOL   H30214762   2.942   7.568   6.000  1.1496 -0.4848 -0.1686
   31MOL   H30314763   3.037   7.618   5.860  0.2120  0.2558 -0.3093
   31MOL   H30414764   3.028   7.798   6.102  2.0904  2.8606 -0.1919
   31MOL   H30514765   3.139   7.795   5.979  1.7375 -1.0347 -1.4482
   31MOL   H30614766   3.124   7.631   6.238  1.3487  2.3370  0.9046
   31MOL   H30714767   3.258   7.681   6.166 -0.2934  1.2904 -0.3309
   31MOL   H30814768   3.096   7.445   6.049  0.0025  0.2401  0.4952
   31MOL   H30914769   3.233   7.511   5.971  0.6991  0.0204  0.4284
   31MOL   H31014770   3.505   7.226   6.208 -0.5793 -0.4283  0.1652
   31MOL   H31114771   3.411   7.293   6.321 -0.3769 -0.3469  0.1120
   31MOL   H31214772   3.679   7.341   6.328  0.9083 -1.0081 -2.7442
   31MOL   H31314773   3.650   7.460   6.206 -1.0196  0.1489 -0.6312
   31MOL   O31414774   3.486   7.607   6.344  0.1293 -0.4593  0.5748
   31MOL   C31514775   3.408   7.697   6.424 -0.8356 -0.7008  0.4086
   31MOL   C31614776   3.495   7.825   6.459  0.7680 -0.0665 -0.3452
   31MOL   C31714777   3.399   0.060   6.523 -0.3128 -0.1581  1.1234
   31MOL   C31814778   3.464   0.189   6.541 -0.2808  0.1112 -0.3319
   31MOL   O31914779   3.583   0.166   6.615 -0.5009 -0.1078 -0.7450
   31MOL   C32014780   3.673   0.269   6.617 -0.2106  0.2711  0.2984
   31MOL   O32114781   3.643   0.381   6.584  0.0926  0.3991 -0.2071
   31MOL   C32214782   3.822   0.235   6.659 -0.0586  0.0910 -0.2657
   31MOL   C32314783   3.879   0.094   6.613 -0.4837  0.4120  0.1991
   31MOL   C32414784   3.880   7.861   6.717  0.5184  0.3876  0.5200
   31MOL   O32514785   3.986   7.821   6.765  0.4989 -0.6682 -0.3255
   31MOL   H32614786   3.325   7.741   6.369 -0.9089  0.2811  1.2859
   31MOL   H32714787   3.362   7.648   6.510 -0.2830 -1.5982  0.1939
   31MOL   H32814788   3.519   7.867   6.361  0.0896 -0.7616 -0.8170
   31MOL   H32914789   3.580   7.796   6.520  0.8882  1.1116  0.0622
   31MOL   H33014790   3.371   0.024   6.622  1.1462 -0.0198  1.5922
   31MOL   H33114791   3.308   0.085   6.468 -0.3819 -0.1227  1.2574
   31MOL   H33214792   3.484   0.238   6.445 -2.0160  0.0007 -0.7533
   31MOL   H33314793   3.415   0.265   6.601 -2.5506 -1.3715 -0.2739
   31MOL   H33414794   3.840   0.255   6.765  0.2598  0.6388 -0.4258
   31MOL   H33514795   3.884   0.307   6.606  0.1049  0.2346  0.1186
   31MOL   H33614796   3.828   0.071   6.520  0.4546  2.3835 -0.8460
   31MOL   H33714797   3.984   0.105   6.585 -0.6668  0.4015 -0.4896
   31MOL   O33814798   3.757   7.816   6.753 -0.3112  0.0728 -0.0576
   31MOL   C33914799   3.749   7.718   6.852  0.3976 -0.2260  0.0183
   31MOL   C34014800   3.601   7.672   6.858  0.0221  0.2854  0.2672
   31MOL   C34114801   3.498   7.780   6.910  0.7548  0.8224 -0.5758
   31MOL   C34214802   3.362   7.721   6.951  0.0426  0.3254 -0.1129
   31MOL   O34314803   3.263   7.817   6.984  0.1291 -0.3030 -0.2817
   31MOL   C34414804   3.179   7.866   6.891 -0.2992  0.1882 -0.9623
   31MOL   O34514805   3.167   7.812   6.781  0.2635 -0.4193 -0.0758
   31MOL   C34614806   3.114   0.136   6.923 -0.1218  0.4231  0.1345
   31MOL   C34714807   3.001   0.175   6.826 -0.2198 -0.8605 -0.5462
   31MOL   C34814808   3.047   0.272   6.719 -0.3273 -0.5692 -0.4696
   31MOL   O34914809   3.058   0.243   6.600 -0.0743 -0.3231  0.1848
   31MOL   H35014810   3.806   7.627   6.837  0.3248 -0.5743  1.7651
   31MOL   H35114811   3.790   7.745   6.950 -0.6372  1.2832  0.0667
   31MOL   H35214812   3.587   7.582   6.917 -0.9234  0.6834  0.6549
   31MOL   H35314813   3.571   7.649   6.756 -0.1026 -3.3247  1.0784
   31MOL   H35414814   3.495   7.858   6.834 -2.0164 -0.5444 -1.9199
   31MOL   H35514815   3.537   7.821   7.003 -1.7333  0.1775  0.8033
   31MOL   H35614816   3.334   7.650   6.873  0.2750 -1.2660  1.2217
   31MOL   H35714817   3.380   7.661   7.041  1.8456  1.9880  0.6846
   31MOL   H35814818   3.191   0.210   6.942  0.9753 -0.2193 -1.7225
   31MOL   H35914819   3.066   0.140   7.021 -0.5919 -0.3749 -0.0562
   31MOL   H36014820   2.947   0.090   6.785  0.0555 -1.3984  0.1889
   31MOL   H36114821   2.932   0.236   6.885  0.2964 -0.6483 -0.1552
   31MOL   O36214822   3.060   0.397   6.765 -0.4923  0.0659  0.2279
   31MOL   C36314823   3.113   0.495   6.677 -0.2461  0.6606 -1.1456
   31MOL   C36414824   3.250   0.521   6.725  0.2196  0.1598  0.7484
   31MOL   C36514825   3.310   0.645   6.662  0.0115 -0.0212  0.8719
   31MOL   C36614826   3.461   0.644   6.674  0.6313  0.1914  0.7893
   31MOL   O36714827   3.531   0.764   6.645 -0.6947  0.2557  0.1233
   31MOL   C36814828   3.541   0.788   6.516 -0.0907 -0.1955 -0.2037
   31MOL   O36914829   3.493   0.726   6.420 -0.2060 -0.0513 -0.1117
   31MOL   C37014830   3.606   0.923   6.490 -0.9103 -0.0391  0.0253
   31MOL   C37114831   3.616   0.971   6.344 -0.4529  0.2094  0.7194
   31MOL   C37214832   3.578   1.119   6.331  0.4003  0.6063 -0.1006
   31MOL   O37314833   3.661   1.212   6.309  0.4383  0.6326 -0.4294
   31MOL   H37414834   3.107   0.469   6.571  1.7356  0.1490 -1.1566
   31MOL   H37514835   3.052   0.585   6.680 -2.4832 -0.8313 -0.3276
   31MOL   H37614836   3.308   0.435   6.693  0.7551  0.8552 -0.1833
   31MOL   H37714837   3.253   0.510   6.834  1.1100 -0.9845  0.6227
   31MOL   H37814838   3.269   0.726   6.723  2.2427 -0.2329  2.7268
   31MOL   H37914839   3.271   0.664   6.562  1.1177 -0.9567  0.2490
   31MOL   H38014840   3.488   0.609   6.774 -0.6610 -0.9181  0.7723
   31MOL   H38114841   3.495   0.567   6.605 -1.3166  1.4849 -1.6834
   31MOL   H38214842   3.703   0.896   6.532 -1.4561 -0.9633  0.7168
   31MOL   H38314843   3.560   1.000   6.552 -0.9154  0.3785 -0.4889
   31MOL   H38414844   3.718   0.969   6.307 -0.1921  0.7651  1.4055
   31MOL   H38514845   3.553   0.911   6.278  0.8560 -0.7130  0.2909
   31MOL   O38614846   3.447   1.136   6.348  0.8314  0.5584  0.2685
   31MOL   C38714847   3.373   1.255   6.333  0.3077  0.2185  0.5860
   31MOL   C38814848   3.235   1.211   6.299  0.2446  0.2013  0.9306
   31MOL   C38914849   3.149   1.334   6.275 -0.4511  0.2771  0.3228
   31MOL   C39014850   3.010   1.309   6.213 -0.3717  0.2834 -0.7325
   31MOL   O39114851   3.021   1.247   6.083  0.3013  0.4642 -0.4415
   31MOL   C39214852   3.057   1.321   5.980  0.0820  0.3939  0.3224
   31MOL   O39314853   3.074   1.446   5.987  0.1205  0.2981 -0.1769
   31MOL   C39414854   3.094   1.242   5.855 -0.1164  0.5442  0.2801
   31MOL   C39514855   3.190   1.124   5.881 -0.1277  0.4221 -0.0933
   31MOL   C39614856   3.337   1.144   5.844  0.3340  0.1900  0.0231
   31MOL   O39714857   3.381   1.084   5.749 -0.8426  0.4266 -0.2360
   31MOL   H39814858   3.366   1.320   6.420  0.3566  1.6198 -0.4317
   31MOL   H39914859   3.411   1.313   6.249  0.1462  1.1927  1.1759
   31MOL   H40014860   3.182   1.158   6.378 -0.2847  1.7292  1.6228
   31MOL   H40114861   3.238   1.154   6.207 -2.8046  0.6616  0.4828
   31MOL   H40214862   3.205   1.406   6.214  0.1774 -1.7084 -1.4855
   31MOL   H40314863   3.127   1.389   6.367 -1.3839  0.2029  0.1425
   31MOL   H40414864   2.959   1.246   6.287  1.0016  0.2401  0.1973
   31MOL   H40514865   2.949   1.399   6.215  2.7959  2.6065 -3.3577
   31MOL   H40614866   3.135   1.300   5.773 -0.9382  1.4011  0.4645
   31MOL   H40714867   2.998   1.202   5.824  0.8236 -2.1541  0.7449
   31MOL   H40814868   3.168   1.080   5.979 -1.9625  0.9965 -0.2459
   31MOL   H40914869   3.152   1.047   5.814  0.1629  0.4246 -0.2598
   31MOL   O41014870   3.408   1.228   5.925  0.4856  0.1684  0.4370
   31MOL   C41114871   3.542   1.268   5.886 -0.2499  0.1682  0.2811
   31MOL   C41214872   3.617   1.345   5.992 -0.3896 -0.5753  0.1385
   31MOL   C41314873   3.752   1.415   5.949  0.3862  0.3216  1.0464
   31MOL   C41414874   3.812   1.494   6.071  0.0840 -0.3261  0.3562
   31MOL   O41514875   3.925   1.565   6.030  0.8416  0.2837  0.3644
   31MOL   C41614876   4.016   1.609   6.114  0.7633  0.1747  0.1226
   31MOL   O41714877   4.011   1.594   6.235  0.1026 -0.1972  1.0044
   31MOL   C41814878   4.123   1.693   6.042  0.4254 -0.1462  0.3551
   31MOL   C41914879   4.088   1.829   5.986 -0.3538 -0.5912  0.2903
   31MOL   C42014880   4.181   1.877   5.873 -0.4290  0.0875 -0.0357
   31MOL   O42114881   4.140   1.931   5.768  0.3086 -0.0347 -0.6240
   31MOL   H42214882   3.581   1.167   5.871 -1.5095 -0.4114  0.8063
   31MOL   H42314883   3.529   1.319   5.791 -3.0809  1.0397  1.0804
   31MOL   H42414884   3.627   1.278   6.077  2.1573 -0.2964  0.1100
   31MOL   H42514885   3.552   1.422   6.033  1.3765  0.7921  0.4207
   31MOL   H42614886   3.734   1.491   5.874  1.1265  0.6913  1.2345
   31MOL   H42714887   3.838   1.354   5.920 -0.1866  1.1638 -2.6692
   31MOL   H42814888   3.735   1.561   6.110 -0.4898 -0.7625 -0.0103
   31MOL   H42914889   3.839   1.424   6.150 -1.2704  0.2731  1.3783
   31MOL   H43014890   4.171   1.632   5.966  0.1484  0.4275 -0.2826
   31MOL   H43114891   4.212   1.700   6.105 -0.3401  2.3800  1.2298
   31MOL   H43214892   3.992   1.815   5.937 -0.5136 -1.7978  0.9309
   31MOL   H43314893   4.073   1.909   6.058 -0.4058  1.1956 -1.6374
   31MOL   O43414894   4.315   1.846   5.900 -0.6807  0.0566 -0.0253
   31MOL   C43514895   4.426   1.899   5.825 -0.7297  0.8267 -0.0645
   31MOL   C43614896   4.531   1.946   5.929 -0.3312 -0.0919 -0.0933
   31MOL   C43714897   4.485   2.075   6.014  0.1381  0.8138  0.1204
   31MOL   C43814898   4.594   2.112   6.112 -0.0602  0.0535 -0.2342
   31MOL   O43914899   4.706   2.176   6.044  0.2389 -0.3933 -0.3151
   31MOL   C44014900   4.696   2.309   6.013  0.2410  0.4300  0.2411
   31MOL   O44114901   4.605   2.383   6.062  0.8623  0.3094 -0.3808
   31MOL   C44214902   4.816   2.357   5.942 -0.3485 -0.1709  0.0546
   31MOL   C44314903   4.906   2.447   6.026 -0.4698  0.1160  0.3098
   31MOL   C44414904   5.029   2.368   6.080 -0.0825  0.2209  0.2596
   31MOL   O44514905   5.138   2.365   6.019 -0.2061 -0.0350 -0.0872
   31MOL   H44614906   4.469   1.824   5.759  0.4717  0.1755  1.4561
   31MOL   H44714907   4.394   1.977   5.755 -0.7083  0.5012 -0.4438
   31MOL   H44814908   4.628   1.977   5.890 -0.6424  0.5875 -0.3251
   31MOL   H44914909   4.551   1.860   5.993 -1.6028  0.5076  1.1463
   31MOL   H45014910   4.389   2.057   6.064 -0.8090  0.5111 -1.7455
   31MOL   H45114911   4.460   2.152   5.940 -3.0606 -1.2224 -1.0607
   31MOL   H45214912   4.539   2.178   6.178 -0.6040  0.8900 -1.4960
   31MOL   H45314913   4.618   2.024   6.171 -4.3835 -1.6269 -0.7740
   31MOL   H45414914   4.797   2.421   5.856  1.8780  1.3899  0.6873
   31MOL   H45514915   4.866   2.287   5.875  1.0444 -0.4680  1.4039
   31MOL   H45614916   4.942   2.530   5.966  0.0516 -0.2520  0.1166
   31MOL   H45714917   4.853   2.478   6.117  1.9495 -0.8561  2.1118
   31MOL   O45814918   4.991   2.310   6.196 -0.4734  0.1282  0.0473
   31MOL   C45914919   5.078   2.222   6.256 -0.1706 -0.7227  0.0507
   31MOL   C46014920   5.014   2.157   6.377 -0.1507  0.4067 -0.4206
   31MOL   C46114921   4.887   2.074   6.347  0.1088  0.1594 -0.5046
   31MOL   C46214922   4.873   1.975   6.461  0.4532 -0.2173  0.4985
   31MOL   O46314923   4.767   1.886   6.426 -0.1886  0.2178  0.1328
   31MOL   C46414924   4.640   1.911   6.437  0.3079 -0.4285 -1.1624
   31MOL   O46514925   4.589   2.018   6.477 -0.7711 -0.0760 -0.2729
   31MOL   C46614926   4.552   1.789   6.392  0.5139 -1.0843 -0.2320
   31MOL   C46714927   4.420   1.791   6.461 -0.2132 -0.0368 -0.1632
   31MOL   C46814928   4.304   1.822   6.361 -0.7919 -0.5255 -0.3393
   31MOL   O46914929   4.323   1.884   6.260 -0.3905  0.1712  0.1460
   31MOL   H47014930   5.108   2.141   6.190 -0.6944 -1.4427  0.6784
   31MOL   H47114931   5.172   2.269   6.284 -2.4006  3.7914  0.5082
   31MOL   H47214932   4.995   2.223   6.461  1.2942  0.9040 -0.4766
   31MOL   H47314933   5.090   2.088   6.414 -0.3452 -0.3629 -1.4352
   31MOL   H47414934   4.912   2.017   6.258  2.0707 -1.6440  1.1437
   31MOL   H47514935   4.798   2.133   6.324 -0.3393  0.4299  1.8419
   31MOL   H47614936   4.959   1.915   6.490  1.4640  0.6613 -0.6164
   31MOL   H47714937   4.831   2.022   6.550  1.1416  1.3849  0.0003
   31MOL   H47814938   4.610   1.703   6.425 -0.0184 -1.8143 -1.1545
   31MOL   H47914939   4.544   1.798   6.284 -1.0725  0.5443 -0.0071
   31MOL   H48014940   4.389   1.694   6.500  0.3861  0.3094  1.2361
   31MOL   H48114941   4.410   1.860   6.545  1.0470 -2.3698  2.0087
   31MOL   H48214942   4.206   1.784   6.389 -0.3937 -3.2072 -2.3930
   32MOL     O114943   3.273   1.838   3.731  0.1817  0.2043  0.4855
   32MOL     C214944   3.311   1.940   3.822  0.2923 -0.8404  0.5662
   32MOL     C314945   3.180   1.977   3.885  0.3924  0.1662  0.4858
   32MOL     C414946   3.210   2.039   4.021  0.5145 -0.4524 -0.0142
   32MOL     C514947   3.087   2.116   4.076  0.4558 -0.0051  0.4862
   32MOL     O614948   3.130   2.180   4.190 -0.6435 -0.3659 -0.2242
   32MOL     C714949   3.047   2.271   4.243 -0.4485 -0.4719 -0.0716
   32MOL     O814950   2.937   2.297   4.203 -0.1526  0.1858  0.5900
   32MOL     C914951   3.110   2.340   4.362 -0.2403  0.4839  0.0345
   32MOL    C1014952   3.230   2.433   4.327  0.2596 -0.1386  0.0016
   32MOL    C1114953   3.360   2.362   4.346 -0.4238  0.6536  0.4012
   32MOL    O1214954   3.409   2.331   4.457 -0.0257 -0.3630 -0.1323
   32MOL    H1314955   3.384   1.913   3.899  1.0382  2.2388  1.0073
   32MOL    H1414956   3.346   2.025   3.763 -0.4460 -1.3625 -0.6342
   32MOL    H1514957   3.117   1.889   3.888  1.7304 -0.8838 -1.1480
   32MOL    H1614958   3.127   2.051   3.824 -0.0669  0.8133  1.6598
   32MOL    H1714959   3.292   2.111   4.019 -0.5365  0.7448 -0.9948
   32MOL    H1814960   3.248   1.958   4.083  2.4452  1.6695  1.6749
   32MOL    H1914961   3.049   2.197   4.014  1.1719  1.0455  1.3808
   32MOL    H2014962   3.008   2.043   4.095  1.3731 -2.0170 -3.0686
   32MOL    H2114963   3.133   2.272   4.444  1.6889  1.0961  0.0254
   32MOL    H2214964   3.036   2.405   4.408  1.7138  0.6773  3.0049
   32MOL    H2314965   3.220   2.465   4.223 -2.5050  1.7240  0.7710
   32MOL    H2414966   3.232   2.529   4.379  0.2083 -0.9659  1.5635
   32MOL    H2514967   3.292   1.757   3.775  0.6633  0.5351  0.8956
   32MOL    O2614968   3.438   2.364   4.238  0.0530  0.4321 -0.0531
   32MOL    C2714969   3.578   2.337   4.241  0.7106  0.1591 -0.7462
   32MOL    C2814970   3.621   2.189   4.216  0.2517 -0.7980 -0.0090
   32MOL    C2914971   3.768   2.154   4.261 -0.1084 -0.4520 -0.6353
   32MOL    C3014972   3.784   2.102   4.402 -0.1458  0.5111  0.6915
   32MOL    O3114973   3.758   2.211   4.485  0.5073  0.3676 -0.1440
   32MOL    C3214974   3.675   2.198   4.590  0.0111 -0.5833 -0.1247
   32MOL    O3314975   3.601   2.105   4.622  0.0511 -0.0833 -0.2803
   32MOL    C3414976   3.659   2.322   4.683 -0.2915 -0.6819  0.9073
   32MOL    C3514977   3.792   2.393   4.683  0.3597  0.7112 -0.6242
   32MOL    C3614978   3.819   2.465   4.816 -0.1974 -0.5357  0.6319
   32MOL    O3714979   3.917   2.434   4.894 -1.0828  0.3987 -0.3576
   32MOL    H3814980   3.626   2.386   4.157  1.9010 -4.5597 -2.9776
   32MOL    H3914981   3.633   2.366   4.330 -0.1773 -2.1089  0.5788
   32MOL    H4014982   3.605   2.190   4.109 -3.0960 -0.3168  0.4390
   32MOL    H4114983   3.548   2.123   4.263  1.2503 -1.3055  0.8571
   32MOL    H4214984   3.832   2.238   4.234  0.2562 -0.9628 -1.3602
   32MOL    H4314985   3.798   2.071   4.198  0.2062  1.0292 -2.5118
   32MOL    H4414986   3.710   2.024   4.414  1.9291 -1.9270 -1.5640
   32MOL    H4514987   3.882   2.067   4.435 -0.2688  0.2277  0.7552
   32MOL    H4614988   3.628   2.290   4.783 -0.8649 -0.7206  0.7162
   32MOL    H4714989   3.584   2.391   4.646  0.7574  0.8430  1.5424
   32MOL    H4814990   3.880   2.330   4.668 -0.0618 -0.3810  1.4138
   32MOL    H4914991   3.795   2.455   4.593 -0.4349  0.8967 -0.5203
   32MOL    O5014992   3.743   2.568   4.825  0.4621 -0.3454  0.9584
   32MOL    C5114993   3.763   2.662   4.929  0.5110 -0.0402  0.2225
   32MOL    C5214994   3.656   2.773   4.919 -0.5343  0.6127 -0.2334
   32MOL    C5314995   3.673   2.871   4.804  0.2296  0.1452 -0.5417
   32MOL    C5414996   3.676   2.811   4.667 -0.0884  0.5072 -0.2502
   32MOL    O5514997   3.561   2.732   4.644 -0.3594  0.3648  0.3766
   32MOL    C5614998   3.437   2.781   4.646 -0.3673  0.1683  0.0120
   32MOL    O5714999   3.409   2.899   4.634 -0.8203  0.0310 -0.0952
   32MOL    C5815000   3.333   2.666   4.635 -0.0817  0.0851  0.4341
   32MOL    C5915001   3.187   2.706   4.663  0.4735 -0.2444 -1.5186
   32MOL    C6015002   3.130   2.794   4.551 -0.1164 -0.3189 -0.7184
   32MOL    O6115003   3.193   2.815   4.451 -0.3966 -0.1426 -0.1505
   32MOL    H6215004   3.754   2.614   5.027  0.6059 -1.9573 -0.6993
   32MOL    H6315005   3.860   2.712   4.925  0.3535  0.2678  0.1973
   32MOL    H6415006   3.666   2.834   5.009  1.5446 -0.9580  0.6318
   32MOL    H6515007   3.559   2.723   4.920 -0.6478  0.7618 -2.1454
   32MOL    H6615008   3.767   2.924   4.815  1.2690 -1.5558 -1.1213
   32MOL    H6715009   3.598   2.950   4.807  1.4061  1.2885 -0.7811
   32MOL    H6815010   3.679   2.895   4.596 -0.9162  1.8987  1.3298
   32MOL    H6915011   3.769   2.755   4.655 -0.6844 -0.3956 -0.6885
   32MOL    H7015012   3.368   2.584   4.697 -0.1496  0.2153  0.6450
   32MOL    H7115013   3.336   2.623   4.535 -0.0561  0.6792  0.1736
   32MOL    H7215014   3.120   2.622   4.683 -1.2750  1.1312 -1.5039
   32MOL    H7315015   3.176   2.748   4.763 -0.6912 -0.9723 -1.3276
   32MOL    O7415016   3.009   2.837   4.580 -0.1713 -0.1983 -0.0174
   32MOL    C7515017   2.941   2.904   4.479  0.3444  0.3695  0.2796
   32MOL    C7615018   2.825   2.975   4.539  0.3279  0.2573 -0.3398
   32MOL    C7715019   2.740   3.057   4.441  0.6703 -0.1754 -0.5243
   32MOL    C7815020   2.604   3.000   4.394  0.2635  0.0439  0.2425
   32MOL    O7915021   2.510   2.970   4.502  0.3601 -0.3907 -0.4869
   32MOL    C8015022   2.404   2.889   4.487  0.1284 -0.6055 -0.8545
   32MOL    O8115023   2.368   2.835   4.382 -0.4390 -0.5828  0.0705
   32MOL    C8215024   2.338   2.855   4.622  0.7993 -0.2098 -0.1072
   32MOL    C8315025   2.355   2.970   4.725 -0.6916 -0.3320 -1.1666
   32MOL    C8415026   2.447   2.935   4.839  0.3519 -0.3707 -0.2089
   32MOL    O8515027   2.569   2.917   4.830 -0.1449  0.5835 -0.0820
   32MOL    H8615028   2.997   2.974   4.416  1.1032  1.2351  1.8913
   32MOL    H8715029   2.908   2.827   4.409  0.9778  1.2245 -0.9771
   32MOL    H8815030   2.868   3.039   4.615  1.7688 -1.0129 -0.0495
   32MOL    H8915031   2.758   2.894   4.571 -0.1098  0.6866 -0.1688
   32MOL    H9015032   2.808   3.089   4.361 -0.1683  0.6831 -0.9083
   32MOL    H9115033   2.723   3.154   4.488  0.0312  0.0779 -1.2589
   32MOL    H9215034   2.561   3.069   4.322 -0.1777 -0.1202  0.3480
   32MOL    H9315035   2.627   2.911   4.335  0.3152  0.0876  0.1976
   32MOL    H9415036   2.372   2.759   4.663 -0.6550  0.4856  2.8542
   32MOL    H9515037   2.232   2.831   4.613  0.5892  0.3687  0.8064
   32MOL    H9615038   2.375   3.067   4.679 -2.4592  0.8610  0.4855
   32MOL    H9715039   2.258   2.995   4.769 -0.7779 -2.0312 -0.3518
   32MOL    O9815040   2.375   2.929   4.954 -0.4235 -0.2772  0.0051
   32MOL    C9915041   2.444   2.928   5.079  0.3878 -0.3538 -0.3771
   32MOL   C10015042   2.374   2.829   5.171 -0.5868  0.1174 -0.2164
   32MOL   C10115043   2.375   2.684   5.125  0.3980  0.5266 -0.0170
   32MOL   C10215044   2.304   2.581   5.214  0.1761  0.3019 -0.1946
   32MOL   O10315045   2.386   2.566   5.328  0.2817  0.6970 -0.5585
   32MOL   C10415046   2.331   2.567   5.453 -0.4063 -0.0607  0.1484
   32MOL   O10515047   2.216   2.587   5.480 -0.4046  0.0008  0.4856
   32MOL   C10615048   2.432   2.550   5.564 -0.5844 -0.0945  0.1165
   32MOL   C10715049   2.407   2.429   5.651 -0.5403  0.3087  0.3136
   32MOL   C10815050   2.492   2.311   5.602 -0.2022  0.2684 -0.1030
   32MOL   O10915051   2.584   2.269   5.678 -0.3506 -0.9147  0.3597
   32MOL   H11015052   2.544   2.885   5.085  0.4321 -0.5211 -2.1189
   32MOL   H11115053   2.437   3.033   5.110 -0.6910  0.0615 -1.9824
   32MOL   H11215054   2.269   2.855   5.187 -0.2388  1.8289 -0.6190
   32MOL   H11315055   2.419   2.828   5.271  2.2708 -1.0162 -1.4534
   32MOL   H11415056   2.482   2.670   5.107  0.5532 -0.5072  1.5553
   32MOL   H11515057   2.327   2.679   5.028  2.2614  0.3095 -0.9506
   32MOL   H11615058   2.206   2.617   5.246 -0.9773 -3.6874  1.0767
   32MOL   H11715059   2.282   2.482   5.173  2.3202 -1.2423  2.2561
   32MOL   H11815060   2.427   2.639   5.627 -0.1544  1.4193 -1.9379
   32MOL   H11915061   2.533   2.548   5.523 -0.5751 -0.4807  0.1593
   32MOL   H12015062   2.427   2.446   5.757  0.0950 -0.8873  0.3890
   32MOL   H12115063   2.301   2.402   5.649 -1.0877  2.3917 -2.1388
   32MOL   O12215064   2.461   2.266   5.481 -0.1803  0.0083 -0.0376
   32MOL   C12315065   2.536   2.157   5.428 -0.6503  0.0664  0.5309
   32MOL   C12415066   2.623   2.212   5.307 -0.0396  0.9557 -0.0102
   32MOL   C12515067   2.540   2.240   5.182 -0.6782 -1.0615  0.0184
   32MOL   C12615068   2.632   2.262   5.059  0.6979 -0.1096 -0.5326
   32MOL   O12715069   2.690   2.149   5.013  0.5381  0.6749  0.1832
   32MOL   C12815070   2.757   2.147   4.897  0.4736 -0.1953 -0.1862
   32MOL   O12915071   2.790   2.248   4.837 -0.2455 -0.2527  0.4047
   32MOL   C13015072   2.785   2.006   4.843  0.5289 -0.2686  0.3007
   32MOL   C13115073   2.737   1.981   4.702  0.0510 -0.0303 -0.9912
   32MOL   C13215074   2.752   1.836   4.665  0.5047 -0.2054  0.2952
   32MOL   O13315075   2.829   1.758   4.727  0.2700  0.1312 -0.4388
   32MOL   H13415076   2.597   2.114   5.508  0.5946  1.1470  0.1770
   32MOL   H13515077   2.464   2.078   5.405  0.2949 -0.3177 -1.1152
   32MOL   H13615078   2.695   2.131   5.294 -0.1569  0.9050 -0.3468
   32MOL   H13715079   2.678   2.297   5.347 -1.2029  1.8895 -0.3622
   32MOL   H13815080   2.486   2.333   5.197 -2.1775 -1.6001 -1.8096
   32MOL   H13915081   2.457   2.171   5.164 -1.1072 -0.2091 -1.3935
   32MOL   H14015082   2.562   2.295   4.982  0.6954 -0.6660 -0.7762
   32MOL   H14115083   2.710   2.336   5.076  0.3460  0.2786 -0.6065
   32MOL   H14215084   2.760   1.927   4.914 -0.3159  0.8266  1.2411
   32MOL   H14315085   2.894   1.995   4.842  0.4553 -1.3778  1.6278
   32MOL   H14415086   2.636   2.022   4.693  0.4737  1.5757  1.1921
   32MOL   H14515087   2.789   2.040   4.626 -1.2733  2.2662 -0.1634
   32MOL   O14615088   2.679   1.803   4.565 -0.4978  0.0714  0.1681
   32MOL   C14715089   2.676   1.669   4.517  0.4006 -0.6243 -0.1191
   32MOL   C14815090   2.574   1.646   4.405 -0.3246 -0.8412 -0.0362
   32MOL   C14915091   2.638   1.704   4.280 -0.0572 -0.4213  0.0895
   32MOL   C15015092   2.612   1.635   4.142  0.0721 -0.0453 -0.7122
   32MOL   O15115093   2.656   1.719   4.034 -0.1951  0.7118  0.1240
   32MOL   C15215094   2.673   1.670   3.909  0.7499 -0.2384  0.0060
   32MOL   O15315095   2.694   1.557   3.861  0.0862 -0.1492  0.5244
   32MOL   C15415096   2.670   1.788   3.813  0.8435 -0.5193  0.7801
   32MOL   C15515097   2.807   1.847   3.790 -0.5040 -0.3257  0.3711
   32MOL   C15615098   2.885   1.806   3.668  0.3360  0.1566  0.7531
   32MOL   O15715099   2.867   1.866   3.563  0.6295 -0.3228  0.3870
   32MOL   H15815100   2.777   1.640   4.487  0.4377 -0.0400 -0.5671
   32MOL   H15915101   2.647   1.604   4.599 -4.1219 -0.0848 -1.1655
   32MOL   H16015102   2.482   1.700   4.430  0.0631 -0.2461  0.1414
   32MOL   H16115103   2.551   1.540   4.396  0.7544 -1.3081  2.1561
   32MOL   H16215104   2.747   1.697   4.290 -0.0536 -2.0447 -0.8660
   32MOL   H16315105   2.597   1.802   4.258 -0.6936 -0.7437 -0.1595
   32MOL   H16415106   2.672   1.544   4.144  2.0241  1.1940 -1.1387
   32MOL   H16515107   2.507   1.607   4.133  0.0345 -1.2310  2.6679
   32MOL   H16615108   2.605   1.864   3.857 -0.9570 -1.3633 -0.3735
   32MOL   H16715109   2.621   1.766   3.718 -1.7686 -1.2641  2.2558
   32MOL   H16815110   2.796   1.955   3.788  0.0774 -0.2837 -1.1121
   32MOL   H16915111   2.873   1.813   3.869 -0.4238 -0.3391  0.2989
   32MOL   O17015112   2.966   1.706   3.687 -0.0189 -0.3562  0.4867
   32MOL   C17115113   3.048   1.659   3.586  0.2756 -0.1138  0.7629
   32MOL   C17215114   3.116   1.533   3.637  0.4260  0.3410  0.0027
   32MOL   C17315115   3.017   1.415   3.647 -0.4981  0.2989 -0.4963
   32MOL   C17415116   3.095   1.289   3.691  0.2103 -0.3318  0.7460
   32MOL   O17515117   3.011   1.183   3.740  0.2533  0.1256  0.6632
   32MOL   C17615118   3.055   1.056   3.705 -0.4386 -0.6318 -0.1255
   32MOL   O17715119   3.146   1.031   3.624  0.3163 -0.0527  0.0458
   32MOL   C17815120   2.985   0.946   3.782 -0.1876 -0.3020 -0.4264
   32MOL   C17915121   3.071   0.816   3.805  1.0854 -0.4456  0.7761
   32MOL   C18015122   3.030   0.700   3.719  0.2319 -0.2477 -0.6241
   32MOL   O18115123   3.004   0.587   3.765 -0.6681  0.5852  0.2309
   32MOL   H18215124   2.998   1.641   3.491  0.6883  1.0946  0.3058
   32MOL   H18315125   3.118   1.742   3.576  0.3060 -0.3004 -0.7778
   32MOL   H18415126   3.154   1.556   3.736 -1.3913  0.0535  0.7850
   32MOL   H18515127   3.203   1.510   3.576  1.1691  0.1171  1.1446
   32MOL   H18615128   2.970   1.386   3.553  0.9308  0.0322 -1.1434
   32MOL   H18715129   2.937   1.429   3.719 -0.1964  2.9601 -0.6220
   32MOL   H18815130   3.152   1.252   3.606 -2.6488 -2.0978 -0.4968
   32MOL   H18915131   3.177   1.301   3.762  2.0702  0.1333 -1.4205
   32MOL   H19015132   2.888   0.932   3.734  0.3654 -2.0763 -1.0750
   32MOL   H19115133   2.963   0.992   3.879  0.2752  1.2233 -1.0338
   32MOL   H19215134   3.177   0.835   3.795  0.2349  3.6569 -1.5054
   32MOL   H19315135   3.062   0.779   3.907  0.3418 -1.7322  0.2694
   32MOL   O19415136   3.031   0.727   3.587 -0.0858 -0.0267  0.3888
   32MOL   C19515137   2.997   0.631   3.489  0.1617 -0.5697 -0.5972
   32MOL   C19615138   2.844   0.631   3.473  0.5163 -0.0114 -0.2897
   32MOL   C19715139   2.778   0.772   3.455 -0.2610 -0.2410  0.0430
   32MOL   C19815140   2.633   0.771   3.404  0.1610  0.3090  0.2333
   32MOL   O19915141   2.594   0.901   3.399 -0.8007 -0.2408  0.3829
   32MOL   C20015142   2.503   0.947   3.314 -0.3626  0.4148 -0.0943
   32MOL   O20115143   2.454   0.891   3.215 -0.1779 -0.3700 -0.1068
   32MOL   C20215144   2.463   1.092   3.342  0.3444  0.4201  0.0951
   32MOL   C20315145   2.396   1.169   3.225 -0.2349  0.6375  0.2113
   32MOL   C20415146   2.459   1.304   3.209  0.0962 -0.5966  0.0879
   32MOL   O20515147   2.527   1.330   3.112  0.0487 -0.4989  0.2915
   32MOL   H20615148   3.054   0.642   3.396 -0.2778 -2.9517 -1.1836
   32MOL   H20715149   3.037   0.534   3.519 -1.0585 -0.5156  1.2385
   32MOL   H20815150   2.813   0.586   3.567 -0.8526  1.8560  0.1721
   32MOL   H20915151   2.823   0.568   3.387  1.4192  0.6746 -1.0331
   32MOL   H21015152   2.830   0.846   3.395  0.2561  0.3226  1.1603
   32MOL   H21115153   2.776   0.812   3.557 -0.0461  0.3130 -0.1682
   32MOL   H21215154   2.617   0.725   3.306 -1.1022  0.5475  0.3210
   32MOL   H21315155   2.570   0.717   3.474 -1.1960  2.6403  0.8476
   32MOL   H21415156   2.564   1.133   3.345 -0.4259  2.3219  1.3213
   32MOL   H21515157   2.409   1.104   3.436  0.8158 -3.2762  0.9029
   32MOL   H21615158   2.404   1.118   3.128  4.1135  1.7692 -0.1190
   32MOL   H21715159   2.288   1.171   3.239 -0.0111 -0.4307  2.2784
   32MOL   O21815160   2.442   1.378   3.318 -0.0995  0.3038 -0.0078
   32MOL   C21915161   2.494   1.503   3.324 -0.6450  0.2560  0.0396
   32MOL   C22015162   2.601   1.517   3.440 -0.0287 -0.0036  0.5648
   32MOL   C22115163   2.539   1.474   3.576  0.2973  0.2700 -0.1802
   32MOL   C22215164   2.432   1.574   3.627 -0.1941 -0.0655 -0.3349
   32MOL   O22315165   2.394   1.526   3.755  0.0281  0.9035  0.2125
   32MOL   C22415166   2.293   1.581   3.821 -0.9296 -0.0599 -0.2183
   32MOL   O22515167   2.237   1.681   3.781  0.3543 -0.2632 -0.4249
   32MOL   C22615168   2.259   1.503   3.952 -0.5466 -0.1249  0.2297
   32MOL   C22715169   2.171   1.377   3.924 -0.1178  0.0180  0.1770
   32MOL   C22815170   2.015   1.410   3.930 -0.5258  0.4327 -0.8461
   32MOL   O22915171   1.948   1.379   4.035  0.0313  0.1491  0.8286
   32MOL   H23015172   2.538   1.536   3.230 -1.5833  1.6308  0.0605
   32MOL   H23115173   2.412   1.574   3.336 -1.2912 -0.3430 -0.7567
   32MOL   H23215174   2.641   1.618   3.433  0.0935 -0.1464 -0.9037
   32MOL   H23315175   2.682   1.448   3.414  0.1444  0.5456 -0.3689
   32MOL   H23415176   2.617   1.469   3.652  0.3187 -0.4893 -0.2503
   32MOL   H23515177   2.494   1.375   3.576 -3.5245  1.9548 -0.4804
   32MOL   H23615178   2.475   1.675   3.623 -0.7803  0.2441  0.9427
   32MOL   H23715179   2.344   1.582   3.563 -0.1097  3.7479 -0.1339
   32MOL   H23815180   2.220   1.562   4.034  0.6215  2.0269 -0.7102
   32MOL   H23915181   2.356   1.467   3.986  0.1783 -0.1946 -1.8076
   32MOL   H24015182   2.209   1.337   3.830 -1.4942  0.0035 -0.3842
   32MOL   H24115183   2.193   1.314   4.010  0.0944 -0.5803 -0.3145
   32MOL   O24215184   1.969   1.471   3.823  0.3686 -0.2011 -0.0009
   32MOL   C24315185   1.833   1.496   3.809 -0.0680  0.3632 -0.6754
   32MOL   C24415186   1.819   1.595   3.689  0.0417 -0.1098  0.0998
   32MOL   C24515187   1.672   1.637   3.669  0.4884  0.2308 -0.2519
   32MOL   C24615188   1.645   1.714   3.542 -0.5529  0.2760 -0.4503
   32MOL   O24715189   1.701   1.672   3.423  0.2893  0.1875 -0.1010
   32MOL   C24815190   1.635   1.708   3.300  0.3819  0.6249 -0.4414
   32MOL   O24915191   1.529   1.773   3.298 -0.7774  0.8473 -0.2968
   32MOL   C25015192   1.696   1.644   3.174 -0.2452  0.3037  0.2989
   32MOL   C25115193   1.836   1.690   3.142 -0.3956 -0.3442 -0.3542
   32MOL   C25215194   1.940   1.580   3.136 -0.3311 -0.5932  0.5334
   32MOL   O25315195   1.943   1.500   3.048 -0.3714 -0.5254 -0.3687
   32MOL   H25415196   1.773   1.406   3.794 -2.6168  1.8584  0.1957
   32MOL   H25515197   1.791   1.550   3.894  0.2518 -0.2845 -0.0945
   32MOL   H25615198   1.850   1.553   3.593 -2.7370  0.4668 -1.1046
   32MOL   H25715199   1.877   1.686   3.697  0.0955 -0.2522  1.3769
   32MOL   H25815200   1.645   1.700   3.754  0.1788  0.2294 -0.3479
   32MOL   H25915201   1.601   1.554   3.667  0.2037  0.4938 -1.5111
   32MOL   H26015202   1.537   1.703   3.544 -0.6050  0.7864 -0.3556
   32MOL   H26115203   1.657   1.822   3.543 -2.7113  0.5469 -1.7791
   32MOL   H26215204   1.638   1.671   3.086 -1.2890  1.0797  1.1908
   32MOL   H26315205   1.706   1.536   3.173 -0.1057  0.3189  0.1134
   32MOL   H26415206   1.839   1.751   3.052  0.6186 -1.1448 -0.8703
   32MOL   H26515207   1.870   1.762   3.217  0.1782  0.8961 -1.7773
   32MOL   O26615208   2.025   1.586   3.240 -0.4236  0.1032  0.9302
   32MOL   C26715209   2.125   1.488   3.249  0.7327 -0.1327 -0.2167
   32MOL   C26815210   2.111   1.403   3.390 -0.6153  0.3958  0.4278
   32MOL   C26915211   1.987   1.326   3.412  0.2058 -0.4882  0.2472
   32MOL   C27015212   1.986   1.271   3.555 -0.5657 -1.0855 -0.0386
   32MOL   O27115213   2.075   1.162   3.571 -0.1706 -0.0673 -0.2808
   32MOL   C27215214   2.060   1.095   3.685 -0.0416 -0.2455  0.2728
   32MOL   O27315215   2.006   1.133   3.789 -0.4866  0.3389 -0.1582
   32MOL   C27415216   2.128   0.959   3.679  0.6543 -0.0038  0.1444
   32MOL   C27515217   2.169   0.906   3.818  0.0955  0.4906 -0.6116
   32MOL   C27615218   2.314   0.953   3.862  0.7727  0.5749  0.3801
   32MOL   O27715219   2.350   0.968   3.981 -0.3200  0.3927 -0.4692
   32MOL   H27815220   2.125   1.422   3.162 -1.2444 -2.5815  1.5494
   32MOL   H27915221   2.224   1.533   3.255  0.8858 -0.1548 -2.2309
   32MOL   H28015222   2.132   1.473   3.470 -0.7938  0.0444  0.7813
   32MOL   H28115223   2.204   1.348   3.373 -0.9482  0.7501 -3.0883
   32MOL   H28215224   1.978   1.247   3.337  0.4122  0.5942 -0.9450
   32MOL   H28315225   1.901   1.392   3.398  1.0150  1.0309  2.1027
   32MOL   H28415226   2.035   1.340   3.623  1.6894 -2.3515 -0.3279
   32MOL   H28515227   1.885   1.248   3.588 -1.5097  1.2444 -1.1658
   32MOL   H28615228   2.216   0.959   3.615  1.8900 -2.9152  1.7465
   32MOL   H28715229   2.063   0.881   3.640  1.2959 -0.1371 -0.6605
   32MOL   H28815230   2.100   0.936   3.897  1.8821 -0.2093  1.2649
   32MOL   H28915231   2.168   0.797   3.815 -0.4615  0.5190 -1.8423
   32MOL   O29015232   2.397   0.965   3.756 -0.1321  0.6776 -0.5568
   32MOL   C29115233   2.525   1.016   3.778  0.1403  0.1467  0.3303
   32MOL   C29215234   2.532   1.165   3.813  0.5298 -0.1137 -0.1353
   32MOL   C29315235   2.673   1.220   3.827 -0.3901 -0.3332  0.6776
   32MOL   C29415236   2.694   1.273   3.967 -0.0831  0.7846  0.1720
   32MOL   O29515237   2.698   1.165   4.056 -0.0738 -0.1047 -0.0311
   32MOL   C29615238   2.673   1.194   4.182  0.2603 -0.1418 -0.3538
   32MOL   O29715239   2.653   1.303   4.231 -0.3800 -0.0994 -0.0861
   32MOL   C29815240   2.684   1.067   4.262  0.2249  0.3580 -0.7961
   32MOL   C29915241   2.606   0.953   4.194  0.1688 -0.5784  0.6318
   32MOL   C30015242   2.689   0.857   4.113 -0.6875 -0.3701 -0.3128
   32MOL   O30115243   2.810   0.868   4.105 -0.1325  0.1057 -0.4353
   32MOL   H30215244   2.576   0.951   3.850 -2.0027  0.3185  2.0634
   32MOL   H30315245   2.580   0.997   3.686  0.7861  2.4371  0.2268
   32MOL   H30415246   2.479   1.185   3.907  1.2617  0.8846  0.0745
   32MOL   H30515247   2.477   1.225   3.740 -0.2358 -0.6885 -0.0341
   32MOL   H30615248   2.696   1.300   3.757 -0.7208 -0.4259  0.4661
   32MOL   H30715249   2.740   1.136   3.810 -0.0245  0.1449 -0.2340
   32MOL   H30815250   2.789   1.328   3.965 -0.8299  2.0827  0.0997
   32MOL   H30915251   2.612   1.342   3.988  0.3316  0.8219  1.7512
   32MOL   H31015252   2.633   1.101   4.352  2.1407  0.2542  0.3703
   32MOL   H31115253   2.781   1.050   4.309 -0.2115 -0.8599 -0.3466
   32MOL   H31215254   2.562   0.886   4.268 -0.7052 -0.4165  0.2712
   32MOL   H31315255   2.519   0.993   4.142 -0.8672 -0.1294  2.6462
   32MOL   O31415256   2.618   0.758   4.055 -0.5185 -0.3815 -0.2972
   32MOL   C31515257   2.693   0.667   3.978 -0.6461  0.2512 -0.4036
   32MOL   C31615258   2.635   0.655   3.833 -0.2730  0.5422 -0.6694
   32MOL   C31715259   2.488   0.610   3.851  0.4255 -0.7342 -0.5871
   32MOL   C31815260   2.411   0.622   3.713  0.1906  0.3533  0.5443
   32MOL   O31915261   2.470   0.530   3.629 -0.0187  0.5815  0.1416
   32MOL   C32015262   2.398   0.426   3.585  0.2052 -0.1505 -0.3626
   32MOL   O32115263   2.287   0.389   3.615  0.0917 -0.2788  0.2018
   32MOL   C32215264   2.475   0.348   3.474 -0.0398  0.7179  1.1722
   32MOL   C32315265   2.552   0.230   3.528 -0.2102 -0.1283  0.3658
   32MOL   C32415266   2.699   0.258   3.554 -0.2629  0.4843 -0.9105
   32MOL   O32515267   2.780   0.290   3.467 -0.0163 -0.3695  0.2813
   32MOL   H32615268   2.799   0.692   3.974 -0.4119 -0.1814  2.2778
   32MOL   H32715269   2.683   0.575   4.036 -1.5332  1.8939  2.1508
   32MOL   H32815270   2.692   0.582   3.776 -1.5943 -0.0967 -1.1942
   32MOL   H32915271   2.644   0.752   3.783  1.1089  0.4945 -0.5257
   32MOL   H33015272   2.435   0.667   3.926 -0.3684 -2.2874  0.0412
   32MOL   H33115273   2.484   0.512   3.897  2.1506 -0.0599  1.0808
   32MOL   H33215274   2.304   0.610   3.728 -0.4122  3.1246 -1.3178
   32MOL   H33315275   2.413   0.721   3.668 -1.5947 -0.4940 -1.4906
   32MOL   H33415276   2.541   0.413   3.416 -0.7125 -0.6157 -1.1881
   32MOL   H33515277   2.401   0.311   3.403  0.3539  0.9334  0.6459
   32MOL   H33615278   2.505   0.196   3.620 -1.1443 -0.4163 -0.2122
   32MOL   H33715279   2.548   0.145   3.460  0.2735  0.7886 -0.8497
   32MOL   O33815280   2.721   0.250   3.686 -0.0870  0.1566 -0.3194
   32MOL   C33915281   2.849   0.285   3.735  0.8022  0.2762  0.1090
   32MOL   C34015282   2.859   0.270   3.889 -0.3892  0.2389 -0.1686
   32MOL   C34115283   2.803   0.128   3.939  0.0689  0.5510 -0.2984
   32MOL   C34215284   2.799   0.116   4.096 -0.3195 -0.0737  0.1668
   32MOL   O34315285   2.926   0.118   4.152  0.2689 -0.2911  0.2292
   32MOL   C34415286   2.990   7.869   4.173  0.7920  0.6136 -0.9671
   32MOL   O34515287   2.933   7.761   4.158  0.1901  0.3885 -0.3104
   32MOL   C34615288   3.132   0.001   4.230 -0.5711  0.2198  0.3438
   32MOL   C34715289   3.128   0.039   4.381  0.0230  0.2772 -0.1461
   32MOL   C34815290   3.223   0.151   4.428 -0.0422 -0.2670  0.3810
   32MOL   O34915291   3.186   0.260   4.464  0.4834  0.2834 -0.0637
   32MOL   H35015292   2.921   0.223   3.681  0.2624  0.0087 -0.3064
   32MOL   H35115293   2.863   0.387   3.700 -1.1775  1.6372  3.0411
   32MOL   H35215294   2.800   0.353   3.928 -0.6647  0.6557 -1.4184
   32MOL   H35315295   2.963   0.284   3.918 -0.6593  1.0894  0.3763
   32MOL   H35415296   2.868   0.051   3.899 -1.7156 -0.0282 -2.1594
   32MOL   H35515297   2.703   0.107   3.901  0.6807  3.9228 -4.0964
   32MOL   H35615298   2.742   0.197   4.142 -2.3809 -0.3712 -1.7335
   32MOL   H35715299   2.750   0.031   4.143  0.3509  0.0786  1.1462
   32MOL   H35815300   3.184   0.086   4.186 -0.0354 -0.7840 -1.0128
   32MOL   H35915301   3.185   7.782   4.214 -1.6834 -0.5180  0.8739
   32MOL   H36015302   3.026   0.065   4.411  0.2452 -0.0847  0.9695
   32MOL   H36115303   3.157   7.831   4.446 -0.4703  0.7353  0.6816
   32MOL   O36215304   3.353   0.105   4.413 -0.9454 -0.1789  0.4769
   32MOL   C36315305   3.464   0.171   4.473 -0.3863 -0.0749 -0.1709
   32MOL   C36415306   3.585   0.179   4.381 -0.0393  0.3464  0.5191
   32MOL   C36515307   3.647   0.041   4.353 -0.2403 -0.0196  0.4671
   32MOL   C36615308   3.716   0.029   4.219 -0.0649 -0.0378 -0.7347
   32MOL   O36715309   3.811   7.799   4.224 -0.0150  0.7446 -0.2808
   32MOL   C36815310   3.780   7.677   4.192 -0.1648 -0.0517  0.3400
   32MOL   O36915311   3.675   7.639   4.146 -0.2546  0.0301 -0.5299
   32MOL   C37015312   3.888   7.572   4.213  0.1328 -0.0949 -0.1823
   32MOL   C37115313   4.029   7.624   4.177  0.2679 -0.0784 -0.9457
   32MOL   C37215314   4.129   7.582   4.288  0.8179  0.3689  0.3398
   32MOL   O37315315   4.202   7.667   4.346  0.6425  0.3320  0.0894
   32MOL   H37415316   3.442   0.272   4.507  1.2151 -0.3325  1.7607
   32MOL   H37515317   3.493   0.116   4.563 -2.5574 -1.3431 -0.1910
   32MOL   H37615318   3.663   0.240   4.427  1.2521 -1.1471  0.3272
   32MOL   H37715319   3.551   0.238   4.296 -1.3711  0.5412  1.1619
   32MOL   H37815320   3.569   7.840   4.351 -0.5407  0.2890  0.5506
   32MOL   H37915321   3.719   0.022   4.432 -1.0916  2.4605  1.8961
   32MOL   H38015322   3.652   0.012   4.132 -0.4151  1.6554 -0.8086
   32MOL   H38115323   3.757   0.127   4.197  0.9163  0.0080  1.2138
   32MOL   H38215324   3.865   7.482   4.156  0.7233  0.4516 -1.2977
   32MOL   H38315325   3.882   7.552   4.320  1.3522  1.2778  0.1603
   32MOL   H38415326   4.065   7.571   4.088 -0.5332 -2.0699 -0.1067
   32MOL   H38515327   4.032   7.731   4.159  0.0336 -0.1479 -1.4134
   32MOL   O38615328   4.123   7.448   4.314  0.1569 -0.2571  0.6083
   32MOL   C38715329   4.195   7.401   4.425  0.3445  0.4698  1.2141
   32MOL   C38815330   4.187   7.249   4.428  0.4827  0.3625  0.1249
   32MOL   C38915331   4.311   7.175   4.381 -0.5402  0.1860  0.1426
   32MOL   C39015332   4.309   7.021   4.377 -0.4006 -0.2753  0.1392
   32MOL   O39115333   4.439   6.973   4.355  0.0479  0.2330  0.1347
   32MOL   C39215334   4.485   6.965   4.222  0.2106 -0.9880 -0.2094
   32MOL   O39315335   4.416   6.990   4.127 -0.1900 -0.1920 -0.0844
   32MOL   C39415336   4.628   6.921   4.198  0.7378 -0.4520 -0.1747
   32MOL   C39515337   4.654   6.796   4.283  0.0693  0.3601  0.3796
   32MOL   C39615338   4.784   6.734   4.227  0.0224  0.1123  0.3086
   32MOL   O39715339   4.791   6.669   4.129 -0.2530 -0.3632  0.3878
   32MOL   H39815340   4.297   7.436   4.409 -0.5335  2.5164 -0.0361
   32MOL   H39915341   4.157   7.447   4.516 -0.0601  0.4514  1.0537
   32MOL   H40015342   4.093   7.218   4.381  0.2992  0.0003  0.7272
   32MOL   H40115343   4.166   7.219   4.530 -1.7470 -1.2313 -0.7537
   32MOL   H40215344   4.399   7.219   4.428  0.1091 -0.6442 -0.2880
   32MOL   H40315345   4.319   7.210   4.277  2.5605 -0.2304  0.2112
   32MOL   H40415346   4.291   6.998   4.482  0.4172 -0.0758  0.3255
   32MOL   H40515347   4.232   6.971   4.318  0.1273  0.8384 -1.5428
   32MOL   H40615348   4.687   7.007   4.229  0.1092  0.6533 -1.9845
   32MOL   H40715349   4.651   6.909   4.092 -0.5004 -0.5243 -0.4399
   32MOL   H40815350   4.672   6.822   4.387  1.5384 -0.5570  0.3712
   32MOL   H40915351   4.569   6.728   4.277 -2.0889  3.0888 -1.2613
   32MOL   O41015352   4.887   6.766   4.308 -0.0698  0.1334  0.0172
   32MOL   C41115353   5.022   6.715   4.279  0.5850 -0.1241  0.5154
   32MOL   C41215354   5.131   6.816   4.316 -0.4746 -0.4564 -0.3120
   32MOL   C41315355   5.272   6.749   4.286  0.7341  0.3289  0.2634
   32MOL   C41415356   5.397   6.837   4.260  0.1004 -0.0670 -0.2584
   32MOL   O41515357   5.504   6.758   4.224  0.1131  0.0183  0.1812
   32MOL   C41615358   5.594   6.714   4.322 -0.1854  0.3152  0.0839
   32MOL   O41715359   5.584   6.740   4.439  0.2389 -0.4885 -0.2540
   32MOL   C41815360   5.709   6.626   4.269  0.0986  0.2946 -0.1982
   32MOL   C41915361   5.778   6.671   4.143 -0.1840 -0.4365 -0.8612
   32MOL   C42015362   5.846   6.808   4.165  0.1282 -0.2445  0.1868
   32MOL   O42115363   5.822   6.886   4.259 -0.3911 -0.3199 -0.3011
   32MOL   H42215364   5.035   6.624   4.339 -1.2391  0.5853  2.0558
   32MOL   H42315365   5.037   6.682   4.177 -1.2336 -2.2235  0.8710
   32MOL   H42415366   5.129   6.832   4.424 -0.8148  0.4330 -0.4438
   32MOL   H42515367   5.121   6.906   4.255  0.3618 -1.9962 -2.8087
   32MOL   H42615368   5.258   6.686   4.199  2.2587 -2.0698  1.7211
   32MOL   H42715369   5.289   6.679   4.367 -0.9962 -0.2873  0.1116
   32MOL   H42815370   5.374   6.899   4.174  0.2812 -0.4101 -0.5582
   32MOL   H42915371   5.422   6.904   4.342 -2.3743  2.4866 -1.5358
   32MOL   H43015372   5.669   6.525   4.261 -2.7533  1.3474  0.1785
   32MOL   H43115373   5.778   6.632   4.353  2.2774 -0.3001 -1.9126
   32MOL   H43215374   5.855   6.595   4.130  0.4269  0.1106 -0.5017
   32MOL   H43315375   5.709   6.674   4.059 -1.6067  0.1529  0.2996
   32MOL   O43415376   5.947   6.819   4.076 -0.0783  0.5551  0.8191
   32MOL   C43515377   6.053   6.909   4.093  0.3043 -0.1627 -0.5590
   32MOL   C43615378   6.157   6.871   3.989 -0.7136  0.6631 -0.2935
   32MOL   C43715379   6.274   6.968   3.982  0.0561 -0.7203  0.1510
   32MOL   C43815380   6.374   6.942   4.103 -0.3490 -0.3487  0.1672
   32MOL   O43915381   6.315   6.972   4.228  0.0866 -0.3146  0.1228
   32MOL   C44015382   6.371   6.946   4.347 -0.3741  0.3311  0.1591
   32MOL   O44115383   6.480   6.895   4.360 -0.7961 -0.3583  0.1841
   32MOL   C44215384   6.306   6.999   4.470 -0.1932  0.2640 -0.0322
   32MOL   C44315385   6.156   6.955   4.477  0.0764 -0.0232  0.1877
   32MOL   C44415386   6.050   7.055   4.433 -0.8941 -0.3638 -0.1012
   32MOL   O44515387   6.074   7.142   4.351 -0.3365 -0.1664  0.1628
   32MOL   H44615388   6.019   7.006   4.056  1.7990  0.4484 -0.3524
   32MOL   H44715389   6.095   6.913   4.193  0.0761  0.0494 -0.4718
   32MOL   H44815390   6.104   6.868   3.894  1.8908  1.8761 -1.8298
   32MOL   H44915391   6.195   6.770   3.999  0.2057  1.0046 -0.2764
   32MOL   H45015392   6.243   7.073   3.975 -0.3022 -0.7317  1.4624
   32MOL   H45115393   6.327   6.951   3.888  1.0783  0.5642  0.4740
   32MOL   H45215394   6.409   6.838   4.103  2.0220  0.4123 -0.5578
   32MOL   H45315395   6.454   7.016   4.101  2.1248 -2.9811 -2.5469
   32MOL   H45415396   6.304   7.107   4.484  1.7485  0.5421 -1.6986
   32MOL   H45515397   6.360   6.953   4.553 -0.1522  1.0857  0.4009
   32MOL   H45615398   6.142   6.859   4.427 -2.7777 -0.3339  1.5042
   32MOL   H45715399   6.133   6.935   4.582  1.4709 -0.2882  0.4565
   32MOL   O45815400   5.935   7.036   4.495  0.5218 -0.2849  0.2057
   32MOL   C45915401   5.825   7.133   4.480 -0.2600  0.3353  0.1795
   32MOL   C46015402   5.703   7.055   4.534  0.4387  0.3469 -0.0410
   32MOL   C46115403   5.581   7.135   4.547 -0.0966 -0.2044  0.5629
   32MOL   C46215404   5.462   7.060   4.597 -0.3600  0.0512  0.4108
   32MOL   O46315405   5.367   7.155   4.644 -0.0845 -0.6726  0.4333
   32MOL   C46415406   5.356   7.194   4.778  0.1103  0.2390  0.8772
   32MOL   O46515407   5.417   7.136   4.869  0.3309  0.1213  0.1938
   32MOL   C46615408   5.267   7.317   4.808  0.2704  0.1935  0.4281
   32MOL   C46715409   5.299   7.439   4.725  0.4706 -0.8293 -0.4660
   32MOL   C46815410   5.308   7.568   4.800  0.2865  0.0264 -0.5342
   32MOL   O46915411   5.215   7.646   4.791  1.0337 -0.0123 -0.1202
   32MOL   H47015412   5.845   7.219   4.545 -0.0693  0.4085  0.0219
   32MOL   H47115413   5.825   7.175   4.380 -2.6120  1.3442  0.5657
   32MOL   H47215414   5.742   7.011   4.626 -0.8908  2.0654  1.3714
   32MOL   H47315415   5.687   6.979   4.457  0.7788 -1.5051  1.6881
   32MOL   H47415416   5.555   7.181   4.451 -4.1950  1.2379  2.2318
   32MOL   H47515417   5.601   7.220   4.612 -3.3736 -0.9026  2.6459
   32MOL   H47615418   5.422   6.991   4.522 -1.4070 -0.0874  1.0774
   32MOL   H47715419   5.496   6.997   4.679 -0.0816 -0.4845 -0.1117
   32MOL   H47815420   5.270   7.324   4.917  2.3210 -1.1407  0.4958
   32MOL   H47915421   5.166   7.278   4.792  0.4855 -0.4109  0.5059
   32MOL   H48015422   5.399   7.425   4.685  0.7302 -1.8139  0.5041
   32MOL   H48115423   5.238   7.446   4.635 -2.5896  0.1433  1.5696
   32MOL   H48215424   5.389   7.579   4.872 -0.2227 -0.2278  0.0840
   33MOL     O115425   1.117   5.638   4.375  0.2152  0.1202 -0.6810
   33MOL     C215426   1.173   5.543   4.464 -0.1494 -0.7947 -0.1847
   33MOL     C315427   1.226   5.427   4.381 -0.7477 -0.2906 -0.3572
   33MOL     C415428   1.248   5.307   4.480  0.2953  0.0058  0.4145
   33MOL     C515429   1.343   5.198   4.428 -0.0711 -0.4026 -0.0149
   33MOL     O615430   1.315   5.079   4.498  0.0836 -0.3656 -0.1270
   33MOL     C715431   1.358   4.969   4.462 -0.1160  0.0192  0.1480
   33MOL     O815432   1.412   4.950   4.353 -0.3292  0.0434 -0.2047
   33MOL     C915433   1.322   4.846   4.551 -0.2596  0.3806 -0.4194
   33MOL    C1015434   1.166   4.850   4.583  0.2608 -0.5859  0.4974
   33MOL    C1115435   1.114   4.719   4.640  0.2403 -0.0024 -1.1347
   33MOL    O1215436   1.154   4.614   4.585 -0.3610 -0.2718  0.4109
   33MOL    H1315437   1.257   5.593   4.512  0.4791 -0.8812 -1.1727
   33MOL    H1415438   1.097   5.512   4.535 -0.1125 -1.6711 -0.5183
   33MOL    H1515439   1.315   5.461   4.329  0.0163  0.2095  1.2459
   33MOL    H1615440   1.164   5.402   4.296  0.1661 -1.0905 -0.7959
   33MOL    H1715441   1.148   5.272   4.503 -0.4081  1.2931 -0.6289
   33MOL    H1815442   1.291   5.344   4.573  0.0079  3.6580 -0.8165
   33MOL    H1915443   1.322   5.179   4.323  0.0643 -0.0389 -0.1106
   33MOL    H2015444   1.444   5.236   4.447 -0.2338  0.6655 -1.2468
   33MOL    H2115445   1.389   4.848   4.637  1.1484 -0.1913 -1.4839
   33MOL    H2215446   1.341   4.748   4.507  2.1945  0.5810  0.1418
   33MOL    H2315447   1.139   4.930   4.652 -2.6485 -0.6691 -0.4873
   33MOL    H2415448   1.112   4.879   4.493  1.8535  1.7451  0.2392
   33MOL    H2515449   1.108   5.715   4.429 -0.2709 -0.4475  0.0645
   33MOL    O2615450   1.017   4.736   4.726  0.1251 -0.8627  0.1473
   33MOL    C2715451   0.957   4.626   4.795 -0.0080  0.3103 -0.0208
   33MOL    C2815452   1.059   4.586   4.902 -0.1182  0.2980 -0.3533
   33MOL    C2915453   1.008   4.473   4.989  0.0861  0.3431 -0.2512
   33MOL    C3015454   1.102   4.433   5.103 -0.0333 -0.2667  0.5145
   33MOL    O3115455   1.066   4.316   5.170  0.6483 -0.3377 -0.0934
   33MOL    C3215456   1.011   4.319   5.285 -0.3753 -0.3091  0.2834
   33MOL    O3315457   1.006   4.415   5.359  0.1177 -0.1775  0.1954
   33MOL    C3415458   0.957   4.180   5.322 -0.1991  0.4041 -0.1456
   33MOL    C3515459   1.037   4.104   5.432 -0.0985  0.6671 -0.5667
   33MOL    C3615460   1.151   4.012   5.393 -0.3406 -0.4995  0.7838
   33MOL    O3715461   1.145   3.894   5.420  0.5897  0.1413 -0.2302
   33MOL    H3815462   0.868   4.666   4.844  1.1507  2.2455  0.5477
   33MOL    H3915463   0.928   4.555   4.717 -1.6214  0.3596  0.5178
   33MOL    H4015464   1.076   4.678   4.959 -2.4023  2.1117 -2.4882
   33MOL    H4115465   1.155   4.561   4.856  1.4177 -1.9656  3.8191
   33MOL    H4215466   0.992   4.384   4.928  2.2649  0.4391 -1.0041
   33MOL    H4315467   0.915   4.503   5.038 -1.3922 -5.3556  0.7314
   33MOL    H4415468   1.198   4.429   5.051 -0.2208  0.8623  0.0712
   33MOL    H4515469   1.116   4.519   5.169 -0.2030  1.5566 -1.7627
   33MOL    H4615470   0.964   4.112   5.238  0.3069  0.0167  0.2040
   33MOL    H4715471   0.851   4.194   5.340  0.1953  2.8699  0.4541
   33MOL    H4815472   1.061   4.174   5.512 -0.7159  1.0379 -0.6971
   33MOL    H4915473   0.959   4.040   5.473  0.9746  1.9389  3.6649
   33MOL    O5015474   1.248   4.074   5.322 -0.2511 -0.3693  0.8201
   33MOL    C5115475   1.346   4.002   5.242  0.2896  0.4655 -0.0847
   33MOL    C5215476   1.486   4.017   5.307  0.1260 -0.1073  0.1169
   33MOL    C5315477   1.541   4.165   5.310 -0.6521  0.5514 -0.1517
   33MOL    C5415478   1.691   4.186   5.327 -0.2718 -0.2630  0.0778
   33MOL    O5515479   1.746   4.120   5.440  0.3527  0.0102  0.0389
   33MOL    C5615480   1.854   4.169   5.497  0.1703  0.4346 -0.2687
   33MOL    O5715481   1.926   4.258   5.457  0.3039 -0.2440 -0.0680
   33MOL    C5815482   1.875   4.104   5.629  0.2415  0.0695 -0.0527
   33MOL    C5915483   1.784   4.155   5.735  0.1793  0.8039 -0.1073
   33MOL    C6015484   1.774   4.054   5.848  0.2331  0.4520 -0.3506
   33MOL    O6115485   1.677   3.976   5.864 -0.2352  0.6981 -0.2471
   33MOL    H6215486   1.330   3.895   5.253  1.0708  0.4143  0.6505
   33MOL    H6315487   1.332   4.025   5.137  3.2286 -0.9367 -0.8470
   33MOL    H6415488   1.565   3.965   5.252  1.6662 -0.1436  2.2962
   33MOL    H6515489   1.486   3.977   5.408 -1.2502  1.5144  0.7783
   33MOL    H6615490   1.494   4.226   5.388 -2.3420 -0.3055 -0.4764
   33MOL    H6715491   1.518   4.214   5.216 -2.0414  2.5539  1.1674
   33MOL    H6815492   1.740   4.144   5.240 -1.2023  1.1879 -1.1863
   33MOL    H6915493   1.712   4.293   5.326  0.8176 -0.4597  1.2783
   33MOL    H7015494   1.973   4.117   5.676 -0.6472 -2.7246  2.6798
   33MOL    H7115495   1.863   3.998   5.609 -0.2693  0.4117 -1.7105
   33MOL    H7215496   1.831   4.244   5.779  2.1543  0.4955 -1.5539
   33MOL    H7315497   1.691   4.198   5.696 -0.2210  2.2404  2.2878
   33MOL    O7415498   1.882   4.056   5.931  0.4143 -0.1959  0.3860
   33MOL    C7515499   1.888   3.967   6.038  0.6023 -0.2150  0.2550
   33MOL    C7615500   2.037   3.967   6.083 -0.3060 -0.7124 -0.0001
   33MOL    C7715501   2.083   4.091   6.174 -0.3982  0.3375  0.0528
   33MOL    C7815502   2.234   4.104   6.189 -0.4865  0.1057 -0.0822
   33MOL    O7915503   2.286   3.980   6.232 -0.4504  0.5638  0.6393
   33MOL    C8015504   2.289   3.952   6.362  0.6009 -0.4729  0.0139
   33MOL    O8115505   2.251   4.027   6.455 -0.0176 -0.4807 -0.0325
   33MOL    C8215506   2.339   3.811   6.399  0.3924 -0.1333 -0.0797
   33MOL    C8315507   2.416   3.800   6.535 -0.0747 -0.2893 -0.1675
   33MOL    C8415508   2.327   3.772   6.657 -0.5560 -0.2687  0.5803
   33MOL    O8515509   2.206   3.753   6.643 -0.7760 -0.5525  0.5056
   33MOL    H8615510   1.821   3.988   6.121 -0.4990 -0.1717 -0.6314
   33MOL    H8715511   1.868   3.865   6.005 -1.9324 -0.1747  1.5716
   33MOL    H8815512   2.103   3.959   5.997  0.7140  1.0988  0.5876
   33MOL    H8915513   2.060   3.878   6.141  0.4095 -2.0979 -2.3295
   33MOL    H9015514   2.032   4.087   6.270  0.1951  0.1652  0.3620
   33MOL    H9115515   2.049   4.183   6.127 -0.2011 -0.3705 -1.5177
   33MOL    H9215516   2.283   4.130   6.095 -0.8593 -2.2365 -0.9510
   33MOL    H9315517   2.249   4.186   6.259 -2.0935  0.3538 -0.0133
   33MOL    H9415518   2.391   3.762   6.317  1.1012 -0.6543  0.6588
   33MOL    H9515519   2.249   3.751   6.414  1.2640 -1.2859  0.6198
   33MOL    H9615520   2.487   3.718   6.524 -0.2062 -0.3373 -0.6783
   33MOL    H9715521   2.457   3.896   6.564 -0.2844 -0.8747  2.2473
   33MOL    O9815522   2.393   3.771   6.767  0.0545 -0.1355  0.4589
   33MOL    C9915523   2.328   3.764   6.898 -0.0625 -0.4401  0.2384
   33MOL   C10015524   2.403   3.667   6.998 -0.0834 -0.3306  0.6011
   33MOL   C10115525   2.525   3.737   7.060 -0.1154 -0.1945 -0.8017
   33MOL   C10215526   2.653   3.761   6.973 -0.3760 -0.7641  0.4614
   33MOL   O10315527   2.751   3.836   7.043 -0.1528 -0.4389 -0.1700
   33MOL   C10415528   2.847   3.894   6.987  0.0056  0.0991 -0.0870
   33MOL   O10515529   2.876   3.888   6.863 -0.0121 -0.6297 -0.2935
   33MOL   C10615530   2.938   3.975   7.081  0.5741  0.0102 -0.8124
   33MOL   C10715531   2.930   4.120   7.044  0.6569 -0.0670  0.6877
   33MOL   C10815532   2.821   4.191   7.119 -0.4149  0.0865 -0.2157
   33MOL   O10915533   2.836   4.236   7.232 -0.0013 -0.1228  0.8345
   33MOL   H11015534   2.329   3.863   6.942 -0.2902 -0.0668 -0.5898
   33MOL   H11115535   2.225   3.735   6.878 -0.2766  0.6894 -0.3216
   33MOL   H11215536   2.431   3.578   6.942 -1.8410 -2.6474  3.2991
   33MOL   H11315537   2.327   3.638   7.071 -3.0124  0.8780 -1.8360
   33MOL   H11415538   2.546   3.677   7.149 -1.0587 -1.4518 -1.4237
   33MOL   H11515539   2.495   3.839   7.084  0.0576 -0.4608  0.6074
   33MOL   H11615540   2.693   3.665   6.938 -0.3463  0.9175 -4.4723
   33MOL   H11715541   2.634   3.818   6.883  1.5791 -0.6533  0.0907
   33MOL   H11815542   3.038   3.931   7.078 -0.5716 -2.7100  0.0121
   33MOL   H11915543   2.896   3.958   7.180 -1.6217 -1.8466 -2.0150
   33MOL   H12015544   3.032   4.156   7.054  0.8632 -0.7031  0.8551
   33MOL   H12115545   2.917   4.136   6.937  1.2090 -1.6974  0.3735
   33MOL   O12215546   2.705   4.203   7.047  0.2567 -0.2519 -0.1254
   33MOL   C12315547   2.588   4.255   7.104 -0.0516  0.4882  0.2565
   33MOL   C12415548   2.515   4.145   7.177 -0.3733 -0.7835 -0.0943
   33MOL   C12515549   2.383   4.194   7.245 -0.1835  0.1225  0.1337
   33MOL   C12615550   2.279   4.086   7.279 -0.6611  0.3981  0.0974
   33MOL   O12715551   2.332   3.998   7.373 -0.3814  0.1692 -0.5345
   33MOL   C12815552   2.330   3.869   7.351  0.0342  0.2300  0.3038
   33MOL   O12915553   2.281   3.813   7.254 -0.5924 -0.1169 -0.5270
   33MOL   C13015554   2.392   3.797   7.466 -0.1760 -0.4054 -0.2168
   33MOL   C13115555   2.399   3.644   7.448 -0.0112  0.2289 -0.4177
   33MOL   C13215556   2.504   3.582   7.534  0.0906 -0.0665 -1.0888
   33MOL   O13315557   2.578   3.488   7.502 -0.3497  0.4952 -0.3757
   33MOL   H13415558   2.615   4.333   7.176  1.2952  0.5806 -0.3371
   33MOL   H13515559   2.534   4.304   7.022  1.4680  0.6631 -0.6639
   33MOL   H13615560   2.580   4.100   7.252  0.5059  1.2743  0.4181
   33MOL   H13715561   2.502   4.069   7.100  2.4307 -1.1300 -0.2775
   33MOL   H13815562   2.339   4.268   7.178 -0.2206  1.4501  1.5880
   33MOL   H13915563   2.410   4.253   7.333 -0.2480 -2.4649  1.9281
   33MOL   H14015564   2.193   4.131   7.328 -1.0802  0.1206 -0.3729
   33MOL   H14115565   2.240   4.029   7.194 -1.9532  0.2924  0.7510
   33MOL   H14215566   2.334   3.829   7.552  0.5521  0.8637 -0.1780
   33MOL   H14315567   2.488   3.843   7.489 -0.4047 -0.1197  0.1801
   33MOL   H14415568   2.299   3.603   7.464 -0.7184  1.5094 -1.3712
   33MOL   H14515569   2.409   3.616   7.343  0.8322 -1.7985  0.1783
   33MOL   O14615570   2.504   3.625   7.660 -0.1039 -0.0170  0.0511
   33MOL   C14715571   2.606   3.590   7.751 -0.8795  0.5028 -0.5121
   33MOL   C14815572   2.601   3.681   0.001 -1.2282  0.3685 -0.2485
   33MOL   C14915573   2.626   3.827   7.836  0.4983  0.3962  0.2059
   33MOL   C15015574   2.633   3.911   0.085  0.0630 -0.5733 -0.3612
   33MOL   O15115575   2.683   4.042   0.067  0.3102  0.0182 -0.2566
   33MOL   C15215576   2.601   4.147   0.067 -0.0861  0.4490 -0.0748
   33MOL   O15315577   2.483   4.141   0.095  0.5246  0.7009 -0.3891
   33MOL   C15415578   2.677   4.278   0.071 -0.2904 -0.0680  0.2104
   33MOL   C15515579   2.773   4.305   7.819  0.0738  0.3621 -0.5369
   33MOL   C15615580   2.916   4.343   7.864 -0.3690 -0.0377  0.5291
   33MOL   O15715581   2.959   4.457   7.851 -0.1103 -0.3287  0.5202
   33MOL   H15815582   2.596   3.489   7.790 -0.2934  0.9361  0.7912
   33MOL   H15915583   2.707   3.606   7.712  0.0324  2.1109  2.3742
   33MOL   H16015584   2.667   3.646   0.080 -2.5190 -1.5680  0.0070
   33MOL   H16115585   2.503   3.673   0.047 -1.7768 -2.0094 -1.7548
   33MOL   H16215586   2.548   3.852   7.764  0.0526  1.3266  1.0019
   33MOL   H16315587   2.717   3.843   7.778 -0.0421  0.0209 -0.7485
   33MOL   H16415588   2.533   3.913   0.129  0.0828 -0.3354 -0.3288
   33MOL   H16515589   2.702   3.863   0.153 -1.3145 -0.5045  1.1182
   33MOL   H16615590   2.735   4.271   0.163 -0.0456  0.4797  0.1024
   33MOL   H16715591   2.605   4.358   0.086 -1.7987 -1.5105  0.8517
   33MOL   H16815592   2.785   4.217   7.756 -2.2241  0.3636 -0.9946
   33MOL   H16915593   2.727   4.384   7.761 -2.4450 -0.6281  0.0693
   33MOL   O17015594   2.983   4.235   0.030  0.2483 -0.7270 -0.0254
   33MOL   C17115595   3.098   4.258   0.111 -0.5791  0.0018 -0.9414
   33MOL   C17215596   3.096   4.142   0.212 -0.3194  0.2879  0.0450
   33MOL   C17315597   3.084   3.996   0.153  0.7501 -0.1434  0.1179
   33MOL   C17415598   3.105   3.890   0.266 -0.0521  0.4187 -0.4714
   33MOL   O17515599   3.097   3.750   0.231 -0.1812 -0.4966 -0.5427
   33MOL   C17615600   2.978   3.683   0.218  0.2751 -0.4646 -0.7782
   33MOL   O17715601   2.867   3.733   0.240 -0.5507 -0.0971  0.0323
   33MOL   C17815602   3.002   3.532   0.197 -0.3019  0.3957 -0.0622
   33MOL   C17915603   2.882   3.444   0.186  0.1235 -0.6191  0.3144
   33MOL   C18015604   2.895   3.357   0.059 -0.3326  0.3322 -0.1887
   33MOL   O18115605   2.806   3.350   7.853  0.2126 -0.0731  0.5242
   33MOL   H18215606   3.169   4.236   0.031 -0.6412 -0.7490 -0.7988
   33MOL   H18315607   3.105   4.356   0.157 -0.7166 -0.3757 -0.1108
   33MOL   H18415608   3.011   4.156   0.280 -0.4275  3.2782 -0.6559
   33MOL   H18515609   3.186   4.142   0.273  0.5620 -4.5220 -1.0341
   33MOL   H18615610   3.153   3.981   0.070  2.5944  0.8025  1.4699
   33MOL   H18715611   2.982   3.978   0.119  0.8205 -1.3923  0.5078
   33MOL   H18815612   3.199   3.906   0.320 -0.2567 -2.1587  0.7489
   33MOL   H18915613   3.032   3.913   0.344 -1.2118  0.4370 -1.5530
   33MOL   H19015614   3.042   3.505   0.295  0.6508 -1.6976 -0.9966
   33MOL   H19115615   3.071   3.522   0.113 -1.5027 -0.4347 -0.9638
   33MOL   H19215616   2.877   3.377   0.273 -1.7860  1.3239  1.7340
   33MOL   H19315617   2.784   3.489   0.174  0.0306 -1.5703 -2.9095
   33MOL   O19415618   3.011   3.288   0.053 -0.2526 -0.2412  1.0117
   33MOL   C19515619   3.033   3.199   7.821  0.3891  0.4079  0.0394
   33MOL   C19615620   2.944   3.076   7.844  0.3532 -0.4475  0.0370
   33MOL   C19715621   2.966   3.004   0.100  0.0032  0.4828 -0.3397
   33MOL   C19815622   2.879   2.876   0.121 -0.1016  0.2659  0.1567
   33MOL   O19915623   2.735   2.897   0.126  0.0695 -0.2825 -0.8831
   33MOL   C20015624   2.676   2.936   0.232 -0.2561  0.0777 -0.2982
   33MOL   O20115625   2.730   2.977   0.335 -0.0106 -0.2213 -0.2736
   33MOL   C20215626   2.528   2.917   0.228 -0.2189  0.0313 -0.5908
   33MOL   C20315627   2.466   3.033   0.154  0.1411 -1.1250  0.6587
   33MOL   C20415628   2.460   3.006   7.874  0.0822 -0.5812 -0.6327
   33MOL   O20515629   2.472   2.899   7.821  0.4729  0.2586 -0.2810
   33MOL   H20615630   3.011   3.254   7.730  2.5051 -0.4700 -1.0430
   33MOL   H20715631   3.140   3.177   7.815  0.4770  1.3906 -2.6965
   33MOL   H20815632   2.956   3.014   7.754 -1.1618 -0.3227 -0.2597
   33MOL   H20915633   2.840   3.108   7.836  0.2341 -0.9975 -0.7677
   33MOL   H21015634   2.955   3.062   0.192  0.6504 -2.9996  2.0187
   33MOL   H21115635   3.071   2.975   0.098  0.0629  0.6334  0.2785
   33MOL   H21215636   2.889   2.795   0.050  0.1795  0.3140  0.1423
   33MOL   H21315637   2.902   2.817   0.209 -2.1812  0.1209  0.6335
   33MOL   H21415638   2.493   2.932   0.330 -0.1662  3.3608 -1.0124
   33MOL   H21515639   2.510   2.814   0.196 -0.4782 -0.0875 -0.0676
   33MOL   H21615640   2.367   3.061   0.191  1.3607  1.4582  2.1435
   33MOL   H21715641   2.520   3.125   0.181  0.2205 -0.7611 -0.6794
   33MOL   O21815642   2.453   3.124   7.800 -0.3981  0.2883  0.6092
   33MOL   C21915643   2.491   3.125   7.663 -0.8419  0.0513 -0.1784
   33MOL   C22015644   2.646   3.133   7.642  0.1491 -0.3164  0.3864
   33MOL   C22115645   2.686   3.120   7.493  0.3321  0.1195  0.0132
   33MOL   C22215646   2.836   3.086   7.489 -0.4645  0.0373 -0.4900
   33MOL   O22315647   2.868   3.084   7.350 -0.3569  0.2487  0.7636
   33MOL   C22415648   2.958   3.166   7.301 -0.7861 -0.2629  0.4711
   33MOL   O22515649   3.024   3.242   7.376  0.4268 -0.1235  0.2633
   33MOL   C22615650   2.973   3.182   7.154 -0.0635  0.2362  1.1016
   33MOL   C22715651   2.959   3.040   7.078 -0.4855  0.3399  0.1913
   33MOL   C22815652   3.061   3.020   6.968 -0.3236  0.0444  0.0632
   33MOL   O22915653   3.182   3.024   6.987 -0.1267 -0.5597  0.4542
   33MOL   H23015654   2.457   3.031   7.621  0.2292 -1.0543  1.3633
   33MOL   H23115655   2.459   3.217   7.615 -0.2973  0.1255 -0.4136
   33MOL   H23215656   2.693   3.050   7.694  0.0401 -0.6290 -0.0129
   33MOL   H23315657   2.698   3.219   7.683  4.5428 -3.3804  1.6345
   33MOL   H23415658   2.662   3.212   7.440  0.5983  0.4487  0.4617
   33MOL   H23515659   2.636   3.032   7.451  1.2193 -1.2159  1.6946
   33MOL   H23615660   2.893   3.149   7.557  0.1151 -1.7078  0.6624
   33MOL   H23715661   2.839   2.983   7.523 -0.4442  0.7742  1.8604
   33MOL   H23815662   3.067   3.236   7.140 -0.7702  1.3333  0.4208
   33MOL   H23915663   2.898   3.251   7.114 -2.3499 -0.4815  3.9991
   33MOL   H24015664   2.971   2.957   7.147 -1.2945  1.1872  1.3660
   33MOL   H24115665   2.860   3.026   7.035 -0.0531 -0.6718 -0.5032
   33MOL   O24215666   3.004   2.995   6.847  0.0904 -0.1976  0.0593
   33MOL   C24315667   3.077   2.972   6.728 -0.3002 -0.6639  0.0959
   33MOL   C24415668   3.039   2.841   6.662  0.2866  0.5797  0.0674
   33MOL   C24515669   2.889   2.840   6.617  0.0056 -0.4116 -0.5555
   33MOL   C24615670   2.859   2.729   6.517  0.2802  0.5333 -0.1306
   33MOL   O24715671   2.727   2.744   6.487 -0.0176 -0.0276 -0.1935
   33MOL   C24815672   2.671   2.693   6.373  0.1617 -0.1044  0.5710
   33MOL   O24915673   2.741   2.625   6.296 -0.0627  0.1781  0.1718
   33MOL   C25015674   2.533   2.738   6.340  0.2865 -0.0639  0.2131
   33MOL   C25115675   2.435   2.758   6.453 -0.3057  0.8678 -0.2034
   33MOL   C25215676   2.409   2.903   6.494  0.4045 -0.3837  0.0550
   33MOL   O25315677   2.325   2.972   6.443 -0.0291  0.1900  0.1173
   33MOL   H25415678   3.056   3.052   6.658  0.0575  0.0241  0.7680
   33MOL   H25515679   3.184   2.973   6.747 -0.3101 -1.6752  0.2380
   33MOL   H25615680   3.054   2.759   6.733  0.0992 -0.6107 -1.2565
   33MOL   H25715681   3.107   2.815   6.581  0.2702 -1.4174  0.6679
   33MOL   H25815682   2.868   2.942   6.587  0.4228 -0.3729 -0.7214
   33MOL   H25915683   2.822   2.822   6.702  1.3594 -3.3068 -0.0469
   33MOL   H26015684   2.917   2.735   6.425  0.3069  0.1542 -0.1408
   33MOL   H26115685   2.880   2.631   6.559 -0.5149  0.4728  0.1407
   33MOL   H26215686   2.491   2.656   6.281 -2.0134  1.4701 -0.3512
   33MOL   H26315687   2.534   2.826   6.275 -1.0642 -0.9142 -0.9859
   33MOL   H26415688   2.336   2.722   6.425 -0.3727 -0.2345  1.3887
   33MOL   H26515689   2.478   2.697   6.532  1.7482  0.5126 -1.5750
   33MOL   O26615690   2.487   2.937   6.596 -0.6409  0.2030 -0.0949
   33MOL   C26715691   2.484   3.072   6.636  0.4889  0.6329  0.2856
   33MOL   C26815692   2.624   3.130   6.606  0.1163  0.6720 -0.2228
   33MOL   C26915693   2.653   3.162   6.454  0.3342 -0.0891 -0.0177
   33MOL   C27015694   2.798   3.212   6.427 -0.2423 -0.0245  0.5496
   33MOL   O27115695   2.813   3.342   6.483  0.4235  0.0672  0.5207
   33MOL   C27215696   2.848   3.453   6.400  0.2471  0.7449 -0.5220
   33MOL   O27315697   2.858   3.443   6.276  0.0366  0.0473 -0.4738
   33MOL   C27415698   2.870   3.581   6.471  0.7943  0.7079  0.6805
   33MOL   C27515699   2.745   3.622   6.550 -0.2568  0.1771  0.5292
   33MOL   C27615700   2.723   3.534   6.669 -0.0640  0.0213  0.5530
   33MOL   O27715701   2.609   3.512   6.714 -0.3783 -0.4389  0.6844
   33MOL   H27815702   2.408   3.139   6.596  0.9856  1.2487  0.3471
   33MOL   H27915703   2.464   3.079   6.742  0.0649 -1.3580  0.3533
   33MOL   H28015704   2.700   3.061   6.643  0.4167 -0.3918 -2.7050
   33MOL   H28115705   2.650   3.221   6.660 -2.5541  1.4233 -0.1280
   33MOL   H28215706   2.591   3.242   6.413 -0.8011  0.0107  1.8625
   33MOL   H28315707   2.643   3.064   6.407  1.7652 -0.4974  0.4945
   33MOL   H28415708   2.874   3.154   6.480  0.4753 -1.2110 -1.7184
   33MOL   H28515709   2.822   3.211   6.320 -0.3110 -0.4170  0.5377
   33MOL   H28615710   2.911   3.654   6.401  0.2670 -1.0083 -1.4655
   33MOL   H28715711   2.955   3.573   6.539  1.1722 -1.6762 -0.0185
   33MOL   H28815712   2.747   3.722   6.593 -1.0862  0.1566  0.6125
   33MOL   H28915713   2.654   3.611   6.491  1.2626 -2.6060 -1.4530
   33MOL   O29015714   2.841   3.508   6.737 -0.0862  0.3875 -0.0308
   33MOL   C29115715   2.827   3.419   6.848 -1.1986  0.0013 -0.3420
   33MOL   C29215716   2.941   3.325   6.833 -0.4433  0.0196 -0.1428
   33MOL   C29315717   3.085   3.367   6.867 -0.0703  0.1354  0.6957
   33MOL   C29415718   3.132   3.482   6.792  0.5463 -0.3417  0.2543
   33MOL   O29515719   3.126   3.449   6.655  0.3872  0.0184 -0.3270
   33MOL   C29615720   3.237   3.471   6.578 -0.2724 -0.4670  0.1448
   33MOL   O29715721   3.342   3.516   6.622  0.1204 -0.1438  0.1520
   33MOL   C29815722   3.220   3.434   6.429  0.4220  0.3183 -0.1412
   33MOL   C29915723   3.156   3.289   6.407  1.8242 -0.9601  0.0586
   33MOL   C30015724   3.255   3.178   6.426  0.3997  0.9339 -0.3176
   33MOL   O30115725   3.251   3.101   6.520 -0.0089  0.0719 -0.3453
   33MOL   H30215726   2.846   3.478   6.938 -1.4195  1.4127 -1.1917
   33MOL   H30315727   2.728   3.375   6.860 -0.8977 -0.9924 -1.4393
   33MOL   H30415728   2.938   3.276   6.736 -0.4571 -1.2692  0.4913
   33MOL   H30515729   2.917   3.248   6.906  0.9086 -1.0534 -0.8053
   33MOL   H30615730   3.155   3.283   6.859  1.6813  1.5137  1.2776
   33MOL   H30715731   3.093   3.384   6.974  1.1672 -0.0030  0.6263
   33MOL   H30815732   3.080   3.575   6.813 -1.5569 -1.4165 -0.1227
   33MOL   H30915733   3.237   3.496   6.820  0.6842  1.3441 -1.0445
   33MOL   H31015734   3.318   3.440   6.381  1.5461 -0.7300  1.9187
   33MOL   H31115735   3.154   3.502   6.376 -0.0733 -0.7514 -0.9376
   33MOL   H31215736   3.075   3.283   6.480  2.0594  1.6219  0.5739
   33MOL   H31315737   3.117   3.270   6.307  0.1933  2.3512  0.0170
   33MOL   O31415738   3.351   3.180   6.323  0.1999 -0.3962 -0.3915
   33MOL   C31515739   3.466   3.099   6.338 -0.7090 -0.3736  0.0294
   33MOL   C31615740   3.440   2.952   6.283  0.1444  0.1691  0.8238
   33MOL   C31715741   3.565   2.867   6.301  0.2819  0.3349 -0.4040
   33MOL   C31815742   3.578   2.802   6.441  0.0831  0.5946 -0.7491
   33MOL   O31915743   3.689   2.724   6.462  0.3154  0.0929 -0.5554
   33MOL   C32015744   3.805   2.789   6.479  0.3687  0.2627 -0.2726
   33MOL   O32115745   3.815   2.915   6.500 -0.0288  0.2617 -0.5459
   33MOL   C32215746   3.931   2.700   6.478  0.3059 -0.2502 -0.2587
   33MOL   C32315747   4.036   2.750   6.380 -0.2895  0.0735 -0.3306
   33MOL   C32415748   4.027   2.687   6.246  0.3152 -0.1376  0.6481
   33MOL   O32515749   4.119   2.684   6.168 -0.0551 -0.3287  0.1504
   33MOL   H32615750   3.556   3.138   6.290 -1.0288  1.5105  0.9476
   33MOL   H32715751   3.507   3.089   6.438 -2.0122  2.8045  0.9391
   33MOL   H32815752   3.404   2.963   6.181  0.4251 -1.8058  0.4911
   33MOL   H32915753   3.363   2.897   6.337  1.0942 -2.5993 -0.5274
   33MOL   H33015754   3.661   2.912   6.276  0.7373  0.0518  0.8014
   33MOL   H33115755   3.558   2.775   6.243  1.7977  0.0037 -0.0796
   33MOL   H33215756   3.564   2.876   6.520  1.9955  1.4568 -1.1916
   33MOL   H33315757   3.496   2.731   6.451 -0.2630  1.2464  1.3813
   33MOL   H33415758   3.908   2.594   6.469 -0.3767 -0.3486  2.4145
   33MOL   H33515759   3.966   2.705   6.581  1.4518 -0.8538 -0.6001
   33MOL   H33615760   4.048   2.858   6.365  0.9516  0.1391  1.0638
   33MOL   H33715761   4.136   2.712   6.401  0.2762  1.1869 -0.9432
   33MOL   O33815762   3.904   2.622   6.221 -0.7301  0.0667 -1.1650
   33MOL   C33915763   3.883   2.551   6.097 -0.5845  0.0990 -0.2228
   33MOL   C34015764   3.739   2.495   6.086  0.0028 -0.8702  0.2661
   33MOL   C34115765   3.700   2.410   6.203  0.4429 -0.7241  0.3598
   33MOL   C34215766   3.574   2.331   6.169 -0.5561  0.6737  0.5435
   33MOL   O34315767   3.454   2.417   6.196 -0.5019  0.5582  0.7615
   33MOL   C34415768   3.358   2.361   6.279 -0.7419  0.3340  0.1227
   33MOL   O34515769   3.353   2.245   6.315 -0.1786 -0.3474 -0.0246
   33MOL   C34615770   3.242   2.458   6.314 -0.1336  0.2012  0.0050
   33MOL   C34715771   3.271   2.525   6.451  0.3176 -0.3660 -0.7664
   33MOL   C34815772   3.206   2.451   6.565  0.1886  0.3348  1.2306
   33MOL   O34915773   3.127   2.507   6.636  0.3374 -0.5084  0.3132
   33MOL   H35015774   3.903   2.621   6.016  0.1243 -0.7155 -0.7628
   33MOL   H35115775   3.961   2.476   6.088 -0.7238  0.2120 -2.8297
   33MOL   H35215776   3.736   2.432   5.997  1.2019  0.1992 -0.5597
   33MOL   H35315777   3.671   2.579   6.067  1.6116  0.7238  1.3324
   33MOL   H35415778   3.691   2.465   6.297 -1.5465  0.0602 -0.2712
   33MOL   H35515779   3.774   2.333   6.223 -0.2889 -1.5366 -0.0307
   33MOL   H35615780   3.573   2.282   6.072 -1.0757  2.3412 -0.3150
   33MOL   H35715781   3.587   2.254   6.245  0.8071  0.7335  0.3887
   33MOL   H35815782   3.144   2.411   6.321 -0.5394  0.9628 -0.5326
   33MOL   H35915783   3.238   2.538   6.240  3.3622  1.5314  1.1456
   33MOL   H36015784   3.378   2.519   6.469  0.5780  1.0265 -1.7386
   33MOL   H36115785   3.230   2.626   6.459  1.1638 -0.0032 -0.9487
   33MOL   O36215786   3.240   2.325   6.581  0.0797 -0.0246  0.1882
   33MOL   C36315787   3.179   2.237   6.678 -0.0787 -0.3061 -0.5042
   33MOL   C36415788   3.099   2.123   6.602 -0.6271 -0.1099  0.5866
   33MOL   C36515789   3.051   2.011   6.689 -0.0998  0.2559 -0.1052
   33MOL   C36615790   3.037   1.869   6.621  0.1041  0.1339 -0.6471
   33MOL   O36715791   3.167   1.822   6.578  0.5356  0.2303 -0.2578
   33MOL   C36815792   3.176   1.715   6.499 -0.1777 -0.9539  0.1034
   33MOL   O36915793   3.082   1.645   6.457 -0.3629 -0.1664  0.4543
   33MOL   C37015794   3.316   1.679   6.454 -0.5984  0.6922 -0.7662
   33MOL   C37115795   3.324   1.656   6.301 -0.1491  0.0982 -0.4224
   33MOL   C37215796   3.444   1.730   6.233 -0.0541  0.1887 -0.3040
   33MOL   O37315797   3.520   1.671   6.154  0.0655 -0.1542 -0.3840
   33MOL   H37415798   3.258   2.189   6.735  2.6529  2.7910 -1.5355
   33MOL   H37515799   3.111   2.291   6.744 -0.8303 -2.6746  0.7051
   33MOL   H37615800   3.159   2.070   6.528 -0.8607 -0.5240  0.6888
   33MOL   H37715801   3.007   2.154   6.552 -0.8075 -0.7732  0.4997
   33MOL   H37815802   2.951   2.034   6.727 -0.2558 -0.5823 -0.0032
   33MOL   H37915803   3.123   2.004   6.770  0.9152 -0.6442 -1.0777
   33MOL   H38015804   3.002   1.796   6.694 -1.5743  1.4412 -0.1120
   33MOL   H38115805   2.957   1.870   6.548 -0.4117  0.8304 -0.0763
   33MOL   H38215806   3.342   1.581   6.495 -0.5460  0.4931 -1.2725
   33MOL   H38315807   3.385   1.749   6.501 -1.2440 -0.3219  1.8006
   33MOL   H38415808   3.333   1.549   6.279  2.0385  0.0791  0.4740
   33MOL   H38515809   3.233   1.681   6.247  0.4649  1.3179 -0.9240
   33MOL   O38615810   3.468   1.861   6.262  1.1902 -0.2016  0.9160
   33MOL   C38715811   3.587   1.926   6.213 -0.3242  0.0407 -0.4059
   33MOL   C38815812   3.707   1.887   6.306  0.2354  0.2042  0.0323
   33MOL   C38915813   3.836   1.952   6.250 -0.3019 -1.0229  0.2208
   33MOL   C39015814   3.949   1.924   6.349  0.1702 -0.2529  0.7229
   33MOL   O39115815   3.923   2.002   6.467 -0.1272 -0.5419  0.2198
   33MOL   C39215816   4.017   2.069   6.532 -0.9754 -0.6157 -0.3314
   33MOL   O39315817   4.139   2.066   6.509  0.1159  0.5963  0.2927
   33MOL   C39415818   3.962   2.143   6.652 -0.4768  0.5377  0.5493
   33MOL   C39515819   3.869   2.259   6.595  1.0978  0.8854 -0.2795
   33MOL   C39615820   3.728   2.263   6.653 -0.2495  0.3657  0.4623
   33MOL   O39715821   3.685   2.361   6.708 -0.2193 -0.0718 -0.4617
   33MOL   H39815822   3.611   1.902   6.110 -0.5659 -0.0727 -0.4364
   33MOL   H39915823   3.568   2.033   6.222  0.6737  0.2173 -0.3391
   33MOL   H40015824   3.736   1.782   6.307  0.5410  0.2840 -0.3080
   33MOL   H40115825   3.695   1.907   6.412  2.7799  0.7657  0.2444
   33MOL   H40215826   3.817   2.059   6.257  0.0918 -0.8289 -1.5666
   33MOL   H40315827   3.856   1.917   6.149 -1.1728  1.3303 -0.7981
   33MOL   H40415828   3.959   1.818   6.373 -0.6717  0.1327  2.9153
   33MOL   H40515829   4.044   1.945   6.300 -0.8940  0.0823 -1.2252
   33MOL   H40615830   4.032   2.184   6.724 -1.1621 -0.6423  1.9066
   33MOL   H40715831   3.909   2.071   6.715  2.7155 -0.5295  2.1070
   33MOL   H40815832   3.926   2.350   6.612  1.2664  0.7425 -0.0780
   33MOL   H40915833   3.861   2.261   6.486 -1.7217 -0.8693 -0.1512
   33MOL   O41015834   3.656   2.159   6.608  0.7414 -0.4026 -0.6250
   33MOL   C41115835   3.521   2.154   6.639 -0.1242  0.0452 -0.2796
   33MOL   C41215836   3.470   2.007   6.617  0.2955  0.2054  0.0020
   33MOL   C41315837   3.479   1.903   6.737 -0.4324  0.3700 -0.5618
   33MOL   C41415838   3.621   1.894   6.801 -0.0475 -0.3755  0.2096
   33MOL   O41515839   3.641   1.773   6.871  0.4545  0.2266 -0.3709
   33MOL   C41615840   3.609   1.764   7.004 -0.3493  0.3537 -0.1185
   33MOL   O41715841   3.581   1.862   7.073  0.0496  0.5341 -0.2284
   33MOL   C41815842   3.626   1.623   7.059  0.3335  0.5214 -0.3590
   33MOL   C41915843   3.769   1.580   7.027 -0.0281  0.6103 -0.0433
   33MOL   C42015844   3.795   1.437   7.073  0.2088 -0.2921 -0.2988
   33MOL   O42115845   3.739   1.390   7.170 -0.2635  0.3234 -0.0713
   33MOL   H42215846   3.497   2.176   6.743 -0.9655 -1.4845 -0.1350
   33MOL   H42315847   3.478   2.227   6.570 -0.6007 -0.4920 -0.5530
   33MOL   H42415848   3.536   1.964   6.541  1.4330  1.4127  0.2836
   33MOL   H42515849   3.373   2.020   6.570  0.0045 -0.2575  0.4724
   33MOL   H42615850   3.436   1.808   6.704 -0.3190 -0.5063  1.6941
   33MOL   H42715851   3.408   1.930   6.814 -0.1954 -0.2708 -0.1050
   33MOL   H42815852   3.702   1.882   6.729 -0.7807 -3.0760 -0.1854
   33MOL   H42915853   3.643   1.980   6.865  1.8319 -0.5426 -0.1846
   33MOL   H43015854   3.545   1.557   7.030  1.1827 -1.9751  2.6241
   33MOL   H43115855   3.630   1.625   7.168  2.0763 -0.9885 -0.3761
   33MOL   H43215856   3.780   1.583   6.919  0.3095  3.3554  0.0445
   33MOL   H43315857   3.844   1.643   7.077  0.4769  0.2453 -0.3359
   33MOL   O43415858   3.884   1.373   6.996  0.3875  0.1548 -0.2022
   33MOL   C43515859   3.919   1.239   7.026  0.9332  0.1173 -0.1404
   33MOL   C43615860   3.981   1.168   6.901 -0.0718 -0.2970  0.4404
   33MOL   C43715861   4.115   1.216   6.866  0.1326 -0.0281  0.4518
   33MOL   C43815862   4.194   1.155   6.748 -0.2887 -0.0339  0.1602
   33MOL   O43915863   4.110   1.179   6.630  0.1947 -0.0170 -0.0503
   33MOL   C44015864   4.061   1.073   6.568  0.8827 -0.1121 -0.2166
   33MOL   O44115865   4.079   0.961   6.593  0.4305  0.2769  0.4226
   33MOL   C44215866   3.959   1.108   6.457  0.1855  0.1504 -0.6801
   33MOL   C44315867   4.012   1.222   6.366 -0.6104 -0.9700 -0.1395
   33MOL   C44415868   4.035   1.185   6.222 -0.0518  0.6081  0.5256
   33MOL   O44515869   4.118   1.241   6.151 -0.6011 -0.5548  0.1039
   33MOL   H44615870   3.993   1.241   7.106  0.7431  2.0819  0.0096
   33MOL   H44715871   3.840   1.182   7.076  0.0155  1.2601 -0.2606
   33MOL   H44815872   3.920   1.193   6.814 -0.0507  0.3539  0.6095
   33MOL   H44915873   3.978   1.060   6.916 -0.7696 -0.4627 -0.8461
   33MOL   H45015874   4.182   1.211   6.951 -0.9059 -0.1849  1.2729
   33MOL   H45115875   4.110   1.322   6.843  3.1358 -0.3433 -2.0524
   33MOL   H45215876   4.286   1.207   6.723 -0.1740  0.0926  0.8252
   33MOL   H45315877   4.212   1.050   6.771 -1.6625 -0.6827 -1.6131
   33MOL   H45415878   3.862   1.131   6.500  0.9162  1.5266  0.2765
   33MOL   H45515879   3.942   1.018   6.399  0.5915  0.2168 -0.9040
   33MOL   H45615880   3.938   1.301   6.354 -0.4932 -1.0431 -1.4053
   33MOL   H45715881   4.101   1.278   6.397 -0.8321 -0.3105 -0.6883
   33MOL   O45815882   3.951   1.093   6.171  0.2218  0.2405 -0.0313
   33MOL   C45915883   3.951   1.083   6.029  0.0219  0.1274 -0.4103
   33MOL   C46015884   3.811   1.020   5.975 -0.2813 -0.4805  0.4811
   33MOL   C46115885   3.803   1.018   5.822  0.5515  0.0118  0.0102
   33MOL   C46215886   3.891   0.915   5.749 -0.0766  0.4253 -0.1895
   33MOL   O46315887   4.027   0.955   5.730  0.4720  0.2295  0.7254
   33MOL   C46415888   4.120   0.866   5.748 -0.2478  0.0421  0.0024
   33MOL   O46515889   4.117   0.741   5.766  0.2336 -0.0219  0.8297
   33MOL   C46615890   4.264   0.925   5.751 -0.0532  0.5047 -0.3796
   33MOL   C46715891   4.381   0.837   5.698  0.7447 -0.3290  0.0773
   33MOL   C46815892   4.475   0.786   5.812 -0.4770  0.2277 -0.1663
   33MOL   O46915893   4.522   0.863   5.895 -0.2504  0.5343  0.4308
   33MOL   H47015894   3.964   1.182   5.986  1.9316 -0.3218 -0.9242
   33MOL   H47115895   4.033   1.021   5.994  1.1445  0.7943  0.9991
   33MOL   H47215896   3.727   1.075   6.019 -2.4169 -2.6575 -0.7532
   33MOL   H47315897   3.811   0.914   6.003 -2.8864 -0.2869  1.3833
   33MOL   H47415898   3.819   1.124   5.802 -0.6487  0.0749 -0.6331
   33MOL   H47515899   3.704   0.995   5.784 -0.0192  0.5235  1.1640
   33MOL   H47615900   3.879   0.836   5.824  0.2613  1.5208  1.0333
   33MOL   H47715901   3.849   0.892   5.651 -0.7986  2.9128 -0.4863
   33MOL   H47815902   4.281   0.936   5.858  1.3943  0.3563 -0.5810
   33MOL   H47915903   4.268   1.023   5.702  0.8520  0.4680 -0.3976
   33MOL   H48015904   4.325   0.753   5.656 -0.4417  0.7015 -0.4168
   33MOL   H48115905   4.427   0.881   5.610  0.8485  0.2052  0.3976
   33MOL   H48215906   4.498   0.680   5.813 -0.1340  0.3087  0.2616
   34MOL     O115907   3.680   6.895   1.044 -0.0696 -0.6145  0.5419
   34MOL     C215908   3.704   6.774   1.097 -0.2780  0.4024  0.0499
   34MOL     C315909   3.570   6.694   1.087  0.0143  0.3679  0.3074
   34MOL     C415910   3.502   6.689   0.945  0.3730 -0.1979 -0.0715
   34MOL     C515911   3.389   6.586   0.939  0.2388  0.1323 -0.2549
   34MOL     O615912   3.277   6.630   1.016 -0.0938 -0.1714  0.4577
   34MOL     C715913   3.189   6.716   0.955 -0.1654 -0.3218  0.1650
   34MOL     O815914   3.203   6.770   0.844  0.1766  0.1649  0.0411
   34MOL     C915915   3.072   6.748   1.039 -0.2810 -0.2537  0.2732
   34MOL    C1015916   3.103   6.767   1.188  0.1528  0.1373 -0.4693
   34MOL    C1115917   2.976   6.778   1.273 -0.1256 -0.5162 -0.0638
   34MOL    O1215918   2.957   6.685   1.350 -0.5097  0.6717  0.0900
   34MOL    H1315919   3.772   6.728   1.025 -0.7287  1.5873 -1.1779
   34MOL    H1415920   3.758   6.778   1.191 -1.5387  0.9290  0.7553
   34MOL    H1515921   3.506   6.740   1.162  0.5725  0.4368  0.7503
   34MOL    H1615922   3.588   6.591   1.118 -1.6649 -0.2161 -0.6073
   34MOL    H1715923   3.579   6.656   0.875  1.8042 -2.2424  2.3678
   34MOL    H1815924   3.470   6.788   0.913  0.6746  0.9420  2.9942
   34MOL    H1915925   3.352   6.580   0.836 -0.2949 -2.7882  0.0708
   34MOL    H2015926   3.421   6.488   0.972 -0.1986  0.6064  1.6495
   34MOL    H2115927   3.004   6.663   1.032 -0.6583  0.0036  0.7874
   34MOL    H2215928   3.022   6.839   1.005  0.7308 -0.1866 -1.0769
   34MOL    H2315929   3.148   6.673   1.219  1.2053  1.2262  1.3680
   34MOL    H2415930   3.171   6.850   1.207  1.7013 -1.1783 -0.1330
   34MOL    H2515931   3.702   6.892   0.953 -1.5056  0.8213  0.1219
   34MOL    O2615932   2.909   6.885   1.249  0.1880 -0.2191  0.0565
   34MOL    C2715933   2.823   6.931   1.351  0.3736 -0.9446  0.1585
   34MOL    C2815934   2.823   7.087   1.345  0.7562 -0.7004 -0.0084
   34MOL    C2915935   2.960   7.157   1.363  0.0948 -0.3450 -0.8274
   34MOL    C3015936   2.938   7.311   1.379  0.5236 -0.3407  0.1120
   34MOL    O3115937   2.922   7.349   1.245  0.0200  0.1006  0.5120
   34MOL    C3215938   3.004   7.436   1.197 -0.3546 -0.2788  0.1684
   34MOL    O3315939   3.100   7.491   1.257  0.6995  0.4328 -0.4274
   34MOL    C3415940   2.982   7.476   1.047 -0.0205 -0.2880  0.0308
   34MOL    C3515941   3.094   7.560   0.981 -0.1254 -0.7170 -0.0815
   34MOL    C3615942   3.052   7.687   0.910 -0.1995 -0.3912 -0.3442
   34MOL    O3715943   2.996   7.676   0.800 -0.3897  0.3408 -0.5571
   34MOL    H3815944   2.719   6.899   1.349  0.0213  0.2292 -2.9158
   34MOL    H3915945   2.856   6.895   1.448  2.0200 -0.4461 -0.2088
   34MOL    H4015946   2.758   7.137   1.417  0.1780  1.1165 -1.7529
   34MOL    H4115947   2.780   7.108   1.247  0.5705  3.0044  0.8003
   34MOL    H4215948   3.037   7.127   1.293 -1.0127 -1.6504 -1.5230
   34MOL    H4315949   2.983   7.116   1.462 -1.7973 -0.0584 -0.2306
   34MOL    H4415950   2.843   7.331   1.429  0.7184 -0.1417  0.4028
   34MOL    H4515951   3.025   7.353   1.430  1.1167 -2.8856  1.3348
   34MOL    H4615952   2.884   7.522   1.037  0.3640  0.5218 -0.1007
   34MOL    H4715953   2.978   7.383   0.990 -1.8785 -1.1597  1.5549
   34MOL    H4815954   3.178   7.574   1.050 -0.5095 -3.5320  1.0442
   34MOL    H4915955   3.135   7.504   0.897  0.5976  2.0612 -1.6475
   34MOL    O5015956   3.089   7.795   0.972 -0.2935 -0.4500  0.2876
   34MOL    C5115957   3.091   0.045   0.899  0.4682 -0.2985 -0.2607
   34MOL    C5215958   3.147   0.159   0.988 -0.2612  0.3491  0.5679
   34MOL    C5315959   3.301   0.158   0.988  0.5650  0.3174  0.0234
   34MOL    C5415960   3.375   0.200   0.859  0.0163 -0.5161  0.1990
   34MOL    O5515961   3.346   0.335   0.830 -0.7984  0.0410  0.6428
   34MOL    C5615962   3.409   0.395   0.731  0.0350 -0.7223 -0.4108
   34MOL    O5715963   3.503   0.346   0.672 -0.2636  0.1572 -0.3447
   34MOL    C5815964   3.354   0.536   0.694  0.2210 -0.4192 -0.0978
   34MOL    C5915965   3.460   0.621   0.611  0.5002 -0.0136 -0.0405
   34MOL    C6015966   3.388   0.711   0.503 -0.5768 -0.4205  1.0914
   34MOL    O6115967   3.267   0.752   0.515  0.0268 -0.1983 -0.4880
   34MOL    H6215968   3.139   0.029   0.803  2.6928  1.7285  0.4437
   34MOL    H6315969   2.990   0.077   0.875  0.8328  0.5924 -0.6191
   34MOL    H6415970   3.105   0.170   1.087  0.8957  1.1128  0.9903
   34MOL    H6515971   3.121   0.256   0.946  1.7079  0.0850 -1.3799
   34MOL    H6615972   3.338   0.063   1.027 -0.5389 -0.9074 -1.8397
   34MOL    H6715973   3.339   0.222   1.068 -1.6761  1.9744 -0.1904
   34MOL    H6815974   3.480   0.174   0.865  0.3896  0.7215 -0.8822
   34MOL    H6915975   3.332   0.144   0.776 -1.0230 -0.4679  0.6915
   34MOL    H7015976   3.333   0.592   0.786 -0.7861  0.6906 -0.9862
   34MOL    H7115977   3.255   0.522   0.651  0.0259  0.0322  0.1903
   34MOL    H7215978   3.513   0.690   0.677  0.6281  0.7102 -0.8882
   34MOL    H7315979   3.527   0.560   0.551 -0.2819  0.9276 -1.9035
   34MOL    O7415980   3.468   0.736   0.403 -0.1042 -0.2945 -0.4402
   34MOL    C7515981   3.426   0.795   0.286 -0.2825 -0.0514  0.2960
   34MOL    C7615982   3.383   0.682   0.191  0.6238  0.2614  0.4779
   34MOL    C7715983   3.309   0.738   0.071 -0.4736  0.4161 -0.9271
   34MOL    C7815984   3.263   0.639   7.841 -0.7268 -0.1752  0.1809
   34MOL    O7915985   3.183   0.711   7.743  0.2183  0.1690 -0.2538
   34MOL    C8015986   3.075   0.648   7.685 -0.8965 -0.5010 -0.3519
   34MOL    O8115987   3.041   0.531   7.702  0.7201 -0.2827 -0.2412
   34MOL    C8215988   2.992   0.737   7.595  0.4924 -0.1540 -0.1808
   34MOL    C8315989   3.075   0.770   7.471 -0.4733 -0.1375 -0.0710
   34MOL    C8415990   3.092   0.915   7.445  0.1717 -0.6061 -0.3141
   34MOL    O8515991   3.184   0.980   7.498 -0.0381  0.4367 -0.1620
   34MOL    H8615992   3.343   0.864   0.301 -1.5498 -1.1087 -1.6483
   34MOL    H8715993   3.509   0.857   0.250 -0.1059 -0.1767  0.4837
   34MOL    H8815994   3.325   0.610   0.250 -0.1164 -2.2171 -3.0516
   34MOL    H8915995   3.472   0.635   0.150 -0.6758 -1.5790 -0.3292
   34MOL    H9015996   3.377   0.814   0.031 -0.4265  0.1503 -1.3514
   34MOL    H9115997   3.217   0.788   0.100 -1.4754 -0.1888 -2.9885
   34MOL    H9215998   3.336   0.575   7.791 -0.3200  1.5338 -1.4520
   34MOL    H9315999   3.192   0.580   0.025  0.8637 -1.3224  0.9952
   34MOL    H9416000   2.968   0.819   7.663 -2.7899  0.0925 -1.5594
   34MOL    H9516001   2.905   0.673   7.583 -0.0706  0.3382  1.1440
   34MOL    H9616002   3.175   0.732   7.488 -0.3325 -0.6399 -1.9676
   34MOL    H9716003   3.032   0.709   7.392 -1.9447 -0.2866  0.8228
   34MOL    O9816004   2.989   0.963   7.380  0.4283 -0.2533  0.6961
   34MOL    C9916005   2.968   1.106   7.352 -0.3169  0.1746  0.6838
   34MOL   C10016006   3.036   1.135   7.220  0.5190  0.3623 -0.1848
   34MOL   C10116007   3.024   1.278   7.163  0.3122  0.2879 -0.5410
   34MOL   C10216008   3.071   1.288   7.015  0.9744  0.0963 -0.1717
   34MOL   O10316009   3.052   1.420   6.968  0.6941  0.2995 -0.1947
   34MOL   C10416010   3.153   1.507   6.995  0.0492  0.6209  0.3238
   34MOL   O10516011   3.257   1.484   7.056  0.6610 -0.2516  0.0560
   34MOL   C10616012   3.122   1.639   6.935  0.4097  0.7551  0.5973
   34MOL   C10716013   3.210   1.751   6.982 -0.3003 -0.1179 -0.3191
   34MOL   C10816014   3.127   1.865   7.048  0.7593  0.0240  0.0041
   34MOL   O10916015   3.020   1.849   7.110 -0.5532  0.0492  0.3967
   34MOL   H11016016   2.862   1.119   7.332 -0.8198 -0.1947  3.0178
   34MOL   H11116017   2.992   1.184   7.424  0.6841  1.5076 -1.0231
   34MOL   H11216018   2.992   1.066   7.148 -0.0845 -0.1141  0.6271
   34MOL   H11316019   3.141   1.108   7.235  0.9032  2.4612  1.0887
   34MOL   H11416020   3.085   1.341   7.228 -0.6090 -0.3696  0.9895
   34MOL   H11516021   2.926   1.323   7.176  0.6013  0.0733  2.8391
   34MOL   H11616022   3.175   1.262   7.000  1.0419  0.7065 -0.7451
   34MOL   H11716023   2.997   1.227   6.962 -0.0680 -1.0773  2.5125
   34MOL   H11816024   3.016   1.659   6.950  0.2452  1.0182 -0.8414
   34MOL   H11916025   3.148   1.626   6.830 -1.6268 -1.3616  0.3140
   34MOL   H12016026   3.289   1.713   7.048 -0.3955  0.9692  0.4366
   34MOL   H12116027   3.260   1.795   6.896  0.0957  0.0369 -0.0122
   34MOL   O12216028   3.195   1.983   7.031 -0.0291 -0.3202 -0.8911
   34MOL   C12316029   3.157   2.094   7.104  0.4369  0.1675 -0.0302
   34MOL   C12416030   3.256   2.202   7.074  0.4677 -0.1715  0.3363
   34MOL   C12516031   3.399   2.174   7.120  0.4085 -0.0602  0.5650
   34MOL   C12616032   3.498   2.179   7.008 -0.3652  0.4781 -0.3017
   34MOL   O12716033   3.632   2.159   7.050  0.1490 -0.2965  0.2271
   34MOL   C12816034   3.698   2.258   7.122  0.2996 -0.7608 -0.3626
   34MOL   O12916035   3.644   2.364   7.167 -0.4231 -0.5012 -0.7415
   34MOL   C13016036   3.849   2.224   7.131 -0.4257 -0.5590 -0.5710
   34MOL   C13116037   3.914   2.210   6.993  1.0353 -0.4962  0.0477
   34MOL   C13216038   4.016   2.095   6.995 -0.2774  0.8845  0.0136
   34MOL   O13316039   4.127   2.127   7.040 -0.1492  0.4018 -0.1671
   34MOL   H13416040   3.062   2.126   7.061 -0.0586 -0.0379  0.8967
   34MOL   H13516041   3.140   2.086   7.211 -1.6829  2.4229 -0.1315
   34MOL   H13616042   3.240   2.297   7.125  0.6715 -0.7898  1.5824
   34MOL   H13716043   3.249   2.213   6.966 -1.7877 -2.2524  0.2080
   34MOL   H13816044   3.422   2.080   7.170 -0.2160  0.2546  1.4610
   34MOL   H13916045   3.424   2.252   7.192  2.9165 -0.5852  0.3197
   34MOL   H14016046   3.482   2.103   6.932 -0.6897 -0.2197  0.4540
   34MOL   H14116047   3.496   2.276   6.959  2.5160 -1.0300 -3.6380
   34MOL   H14216048   3.856   2.132   7.189 -2.7236 -1.0918 -1.1017
   34MOL   H14316049   3.907   2.294   7.191 -0.0035 -2.4973  1.3482
   34MOL   H14416050   3.837   2.192   6.918 -1.8791 -1.4478  3.1438
   34MOL   H14516051   3.965   2.302   6.962  0.2882  0.1063  0.5887
   34MOL   O14616052   3.968   1.979   6.941 -0.2361 -0.0031 -0.5379
   34MOL   C14716053   4.060   1.871   6.930 -0.0437 -0.2640 -0.2515
   34MOL   C14816054   4.019   1.783   6.805 -0.0660 -0.3963  0.5965
   34MOL   C14916055   4.126   1.683   6.764 -0.3187  0.1671 -0.1720
   34MOL   C15016056   4.086   1.590   6.638 -0.0564 -0.7077 -0.1495
   34MOL   O15116057   3.977   1.502   6.661 -0.0949 -0.2017  0.6110
   34MOL   C15216058   3.851   1.544   6.630 -0.2508  0.1946  0.6303
   34MOL   O15316059   3.817   1.658   6.588 -0.1328 -0.0935  0.0461
   34MOL   C15416060   3.752   1.428   6.640 -0.1310  0.2847  0.0899
   34MOL   C15516061   3.611   1.460   6.590 -0.3489 -0.0641  1.0770
   34MOL   C15616062   3.508   1.440   6.698  0.7380 -0.5648  0.0306
   34MOL   O15716063   3.445   1.534   6.742  0.1096  0.3172 -0.2741
   34MOL   H15816064   4.163   1.905   6.916 -0.2631  0.4172 -0.2444
   34MOL   H15916065   4.059   1.804   7.016 -0.7580 -0.1373 -0.1572
   34MOL   H16016066   4.003   1.849   6.719  1.1631  0.6902  1.1964
   34MOL   H16116067   3.927   1.738   6.843 -0.3081 -0.8123 -0.4522
   34MOL   H16216068   4.157   1.623   6.849 -1.4912  1.0566  0.8989
   34MOL   H16316069   4.220   1.734   6.740  1.1882 -1.2039  2.6515
   34MOL   H16416070   4.063   1.651   6.551  1.1617 -0.5041 -0.3342
   34MOL   H16516071   4.175   1.534   6.609  0.1905 -0.7560  0.6802
   34MOL   H16616072   3.751   1.399   6.745 -0.8719  0.7713  0.2180
   34MOL   H16716073   3.787   1.340   6.584 -0.4017  0.1126  0.1922
   34MOL   H16816074   3.600   1.566   6.569  0.5645  0.2518  2.1837
   34MOL   H16916075   3.586   1.390   6.510 -0.8096 -1.7303  2.6520
   34MOL   O17016076   3.495   1.315   6.730 -0.1290  0.3863  0.2130
   34MOL   C17116077   3.396   1.272   6.822 -0.4215 -0.5481 -0.3919
   34MOL   C17216078   3.462   1.230   6.954 -0.1993 -0.2124 -0.5381
   34MOL   C17316079   3.587   1.141   6.942 -0.2539 -0.1583 -0.4502
   34MOL   C17416080   3.554   1.010   6.867  0.9350  0.3921  0.2309
   34MOL   O17516081   3.461   0.925   6.932  0.1307 -0.4913 -0.0582
   34MOL   C17616082   3.487   0.837   7.028 -0.1497 -0.1406  0.4960
   34MOL   O17716083   3.597   0.824   7.087 -0.1377  0.2000  0.3141
   34MOL   C17816084   3.378   0.742   7.059 -0.8193  0.5833  1.0567
   34MOL   C17916085   3.259   0.816   7.121  0.9527 -0.4987 -0.6439
   34MOL   C18016086   3.129   0.733   7.112  0.5095 -0.2456  0.2416
   34MOL   O18116087   3.129   0.609   7.125  1.0492 -0.2195 -0.0733
   34MOL   H18216088   3.320   1.349   6.837  0.3928  0.1280  0.3376
   34MOL   H18316089   3.353   1.185   6.772 -1.1865  0.6126 -1.7894
   34MOL   H18416090   3.389   1.165   7.000 -0.1826 -0.0024 -0.2093
   34MOL   H18516091   3.487   1.305   7.029 -1.7881  0.3076 -0.5237
   34MOL   H18616092   3.627   1.101   7.035 -2.3311  1.4131  1.1749
   34MOL   H18716093   3.666   1.197   6.892 -1.3093  2.0044  0.2501
   34MOL   H18816094   3.521   1.030   6.765 -0.7400 -1.7364  0.3257
   34MOL   H18916095   3.639   0.944   6.851  0.5217  0.0300 -0.5049
   34MOL   H19016096   3.398   0.648   7.111 -1.9221 -0.8507 -1.0158
   34MOL   H19116097   3.344   0.707   6.961  1.0253 -1.6941  1.1738
   34MOL   H19216098   3.282   0.847   7.223 -0.1353  1.5732 -0.9925
   34MOL   H19316099   3.250   0.908   7.064  1.9654 -0.5819 -0.9477
   34MOL   O19416100   3.019   0.807   7.095 -0.2025  0.7983 -0.5682
   34MOL   C19516101   2.892   0.737   7.094 -0.6799 -0.5259 -1.0012
   34MOL   C19616102   2.819   0.744   6.964  0.4878 -1.1629  0.2687
   34MOL   C19716103   2.816   0.892   6.908  0.4797 -0.7050  0.2000
   34MOL   C19816104   2.724   0.908   6.788  0.5866  0.0818 -0.2972
   34MOL   O19916105   2.592   0.883   6.832  0.5332  0.2474 -0.1258
   34MOL   C20016106   2.489   0.890   6.745 -0.3918 -0.3742  0.4018
   34MOL   O20116107   2.506   0.941   6.632  0.1172  0.4156 -0.6701
   34MOL   C20216108   2.358   0.846   6.803  0.1256  0.0763 -0.3941
   34MOL   C20316109   2.283   0.963   6.878  0.1249  0.4486  0.0472
   34MOL   C20416110   2.147   0.978   6.814  0.4174  0.3488 -0.3738
   34MOL   O20516111   2.114   1.076   6.753 -0.0924 -0.3323  0.0079
   34MOL   H20616112   2.905   0.632   7.122  0.1652 -0.0196  0.5971
   34MOL   H20716113   2.834   0.771   7.180 -1.4328  0.4673 -1.8893
   34MOL   H20816114   2.720   0.699   6.966 -0.2602  0.2665 -2.0180
   34MOL   H20916115   2.881   0.672   6.910  1.1329 -1.7409  1.7725
   34MOL   H21016116   2.918   0.910   6.876  0.9625  0.0921  2.1400
   34MOL   H21116117   2.780   0.966   6.979  0.1571 -0.4071 -0.2653
   34MOL   H21216118   2.738   1.004   6.739 -0.9542  0.5795  0.2080
   34MOL   H21316119   2.740   0.836   6.707  0.4752 -0.9635  0.5984
   34MOL   H21416120   2.366   0.757   6.865 -0.2414  0.3189  0.0102
   34MOL   H21516121   2.291   0.825   6.720 -1.6021 -0.0343  1.0035
   34MOL   H21616122   2.273   0.928   6.981 -0.1912  0.7898  0.1315
   34MOL   H21716123   2.339   1.056   6.872  3.6002 -1.4558  1.0263
   34MOL   O21816124   2.068   0.875   6.845 -0.0621  0.2727 -0.4415
   34MOL   C21916125   1.929   0.877   6.815 -0.0225 -0.5769  0.3984
   34MOL   C22016126   1.864   0.739   6.847 -1.3943  0.1984  0.0964
   34MOL   C22116127   1.902   0.626   6.750  0.6666  0.0799 -0.4258
   34MOL   C22216128   1.866   0.480   6.797  0.3240 -0.0320 -0.0715
   34MOL   O22316129   1.960   0.391   6.735  0.2555 -0.0362  0.2569
   34MOL   C22416130   1.942   0.356   6.614 -0.0119  0.8920 -0.6753
   34MOL   O22516131   1.857   0.401   6.540 -0.0916  0.1921  0.2291
   34MOL   C22616132   2.026   0.240   6.564 -0.5260  0.0757  0.4325
   34MOL   C22716133   1.966   0.098   6.600  0.4381 -0.9605  0.5830
   34MOL   C22816134   2.061   7.858   6.562 -0.0702  0.0663 -0.1047
   34MOL   O22916135   2.185   0.003   6.547  0.0078  0.0927  0.6016
   34MOL   H23016136   1.881   0.953   6.876  1.1932  1.7258 -1.4143
   34MOL   H23116137   1.904   0.907   6.713 -1.3520 -1.4817  0.4522
   34MOL   H23216138   1.757   0.738   6.863 -1.2698 -1.7669  0.9309
   34MOL   H23316139   1.905   0.716   6.945 -2.7028  2.4100  1.1969
   34MOL   H23416140   2.008   0.639   6.729  0.3604  2.2151 -0.8010
   34MOL   H23516141   1.845   0.655   6.662  2.4305  0.5837 -1.4159
   34MOL   H23616142   1.888   0.466   6.902 -1.0046 -2.0450 -0.0362
   34MOL   H23716143   1.760   0.461   6.779  0.1351 -0.1504  1.1498
   34MOL   H23816144   2.126   0.253   6.604  0.1363  0.4569 -1.3126
   34MOL   H23916145   2.036   0.251   6.456 -1.6585  2.3878  0.5314
   34MOL   H24016146   1.929   0.091   6.702 -0.2068 -0.6999  0.3689
   34MOL   H24116147   1.883   0.081   6.532 -1.0765  0.4427  2.0628
   34MOL   O24216148   2.000   7.738   6.535  0.6699 -0.6873  0.5435
   34MOL   C24316149   2.079   7.619   6.528 -0.3869  0.1619  0.1391
   34MOL   C24416150   2.010   7.529   6.421  0.0345 -0.9407 -0.4635
   34MOL   C24516151   2.026   7.599   6.288 -0.6054 -0.1498 -0.3526
   34MOL   C24616152   2.164   7.655   6.246 -0.1752  0.5725 -0.4241
   34MOL   O24716153   2.261   7.550   6.237  0.1430 -0.3965 -0.1507
   34MOL   C24816154   2.379   7.581   6.177 -0.2944 -0.3264  0.1959
   34MOL   O24916155   2.417   7.687   6.120  0.1569 -0.2850  0.7053
   34MOL   C25016156   2.478   7.469   6.212 -0.2210  0.5598 -0.0323
   34MOL   C25116157   2.608   7.471   6.135 -0.1553  0.6590  0.6564
   34MOL   C25216158   2.729   7.434   6.220 -0.6884 -0.5115 -0.0488
   34MOL   O25316159   2.813   7.519   6.238 -0.2491  0.5725  0.1718
   34MOL   H25416160   2.183   7.643   6.507 -1.3644  1.0387 -4.1036
   34MOL   H25516161   2.072   7.568   6.624 -0.5029 -0.4566 -0.1961
   34MOL   H25616162   1.903   7.519   6.440  0.2047 -1.9939 -0.0195
   34MOL   H25716163   2.040   7.424   6.415 -1.8647 -1.4813 -0.7913
   34MOL   H25816164   1.954   7.681   6.286 -0.0380  0.3333 -3.0581
   34MOL   H25916165   1.990   7.533   6.209  0.4771 -0.5668 -0.5011
   34MOL   H26016166   2.153   7.687   6.143  0.2072  1.5223 -0.1729
   34MOL   H26116167   2.192   7.741   6.307 -0.2589  0.1603  0.2076
   34MOL   H26216168   2.443   7.368   6.191 -0.0674  0.8832 -1.9030
   34MOL   H26316169   2.502   7.469   6.319  0.7270 -0.7865 -0.2285
   34MOL   H26416170   2.601   7.404   6.049 -1.9525  2.0229 -0.3085
   34MOL   H26516171   2.616   7.571   6.093 -0.3313  1.4568  2.4551
   34MOL   O26616172   2.742   7.304   6.259 -0.4798  0.0374 -0.0226
   34MOL   C26716173   2.848   7.259   6.344 -0.0733 -0.1235  0.3070
   34MOL   C26816174   2.975   7.227   6.265  0.5521  0.2680 -0.6385
   34MOL   C26916175   3.094   7.200   6.359 -0.1789 -0.4274  0.2164
   34MOL   C27016176   3.130   7.302   6.467  0.3571  0.3633 -0.3732
   34MOL   O27116177   3.262   7.285   6.506 -0.4286  0.9874  0.3253
   34MOL   C27216178   3.294   7.204   6.608 -0.2080 -0.5095  0.1362
   34MOL   O27316179   3.229   7.108   6.648  0.5354 -0.3345 -0.2067
   34MOL   C27416180   3.435   7.236   6.662  0.5894  0.0844  0.2302
   34MOL   C27516181   3.434   7.352   6.765  0.8309 -0.0448 -0.3171
   34MOL   C27616182   3.384   7.288   6.895 -0.4062 -0.5257  0.1729
   34MOL   O27716183   3.388   7.165   6.908 -0.2441  0.6271  0.0112
   34MOL   H27816184   2.863   7.334   6.422 -0.5646 -1.1138  1.3645
   34MOL   H27916185   2.816   7.168   6.394 -1.6507 -0.7771 -1.7886
   34MOL   H28016186   3.000   7.314   6.204  0.6789 -0.6284 -1.9027
   34MOL   H28116187   2.974   7.147   6.190 -1.0924 -0.7943  0.4650
   34MOL   H28216188   3.178   7.196   6.289  0.1675  2.8122  0.3952
   34MOL   H28316189   3.089   7.098   6.398  0.6001 -0.3940  0.4224
   34MOL   H28416190   3.117   7.392   6.408 -1.8887 -0.6812 -1.5667
   34MOL   H28516191   3.064   7.306   6.553 -0.0292  0.0190 -0.6496
   34MOL   H28616192   3.487   7.279   6.576 -1.0787  1.7494  0.0187
   34MOL   H28716193   3.479   7.146   6.705  1.5660 -0.0987 -1.1082
   34MOL   H28816194   3.530   7.394   6.795  0.3419  0.4261  0.6133
   34MOL   H28916195   3.360   7.425   6.733 -1.0290 -1.5925  0.3594
   34MOL   O29016196   3.347   7.378   6.988 -0.5676  0.6749  0.4399
   34MOL   C29116197   3.325   7.325   7.116  0.4796  0.4645  0.4536
   34MOL   C29216198   3.448   7.313   7.208 -0.1580 -0.4415 -0.2775
   34MOL   C29316199   3.539   7.440   7.202 -0.6479  0.0603 -0.2779
   34MOL   C29416200   3.478   7.559   7.283  0.6725 -0.1019 -0.5013
   34MOL   O29516201   3.572   7.659   7.307 -0.5863 -0.0179  0.8446
   34MOL   C29616202   3.550   7.789   7.282 -0.1656  0.4215 -0.5959
   34MOL   O29716203   3.449   7.840   7.230 -0.3801  0.3337 -1.2154
   34MOL   C29816204   3.670   0.002   7.328  0.1383 -0.1646  0.5140
   34MOL   C29916205   3.679   0.009   7.481 -0.0157  0.3109 -0.6595
   34MOL   C30016206   3.774   7.782   7.545 -0.0743  0.0235  0.4526
   34MOL   O30116207   3.896   7.778   7.528 -0.0568 -0.3602  0.2159
   34MOL   H30216208   3.250   7.391   7.159  0.3705  3.2100 -3.7134
   34MOL   H30316209   3.274   7.229   7.111  0.4808  0.5012 -0.2610
   34MOL   H30416210   3.505   7.223   7.184 -1.6085 -1.5705  0.4605
   34MOL   H30516211   3.407   7.279   7.303  1.2791  0.0978  0.5532
   34MOL   H30616212   3.567   7.453   7.097  2.8139  1.6941  0.7591
   34MOL   H30716213   3.639   7.426   7.244 -0.6710 -0.9916 -0.5658
   34MOL   H30816214   3.384   7.594   7.242  0.8188  1.0038  0.0880
   34MOL   H30916215   3.444   7.528   7.381  0.8429  2.2788  0.3457
   34MOL   H31016216   3.662   0.102   7.286  1.1158  0.2478  1.2875
   34MOL   H31116217   3.763   7.839   7.287 -0.2422 -1.5904  0.9401
   34MOL   H31216218   3.709   0.107   7.518  0.7173  0.7140 -2.2937
   34MOL   H31316219   3.577   7.868   7.518 -0.1175 -2.3923 -1.9498
   34MOL   O31416220   3.712   7.690   7.612  0.1855 -0.0438  0.0321
   34MOL   C31516221   3.783   7.594   7.681  0.3745 -0.0627 -0.3554
   34MOL   C31616222   3.738   7.452   7.647 -0.2331  0.1853  0.6119
   34MOL   C31716223   3.588   7.433   7.662 -0.0345 -0.0377 -0.1445
   34MOL   C31816224   3.558   7.284   7.683  0.2277  0.6335 -0.4495
   34MOL   O31916225   3.525   7.247   7.814  0.7828 -0.1828  0.1154
   34MOL   C32016226   3.623   7.216   0.030  0.5988  0.5253  0.5610
   34MOL   O32116227   3.736   7.186   0.006 -0.3967  0.7336  0.5535
   34MOL   C32216228   3.575   7.222   0.173  0.5384  0.1537  0.5369
   34MOL   C32316229   3.451   7.136   0.178  0.8516  0.4341 -0.2190
   34MOL   C32416230   3.446   7.043   0.299  0.3758  0.1226 -0.2142
   34MOL   O32516231   3.383   6.931   0.296 -0.5405  0.5545  0.0545
   34MOL   H32616232   3.891   7.605   7.667  0.5825  0.6523  1.7457
   34MOL   H32716233   3.753   7.616   7.783  1.9065  0.3608  0.0110
   34MOL   H32816234   3.802   7.380   7.699  0.9670  0.6217 -0.2293
   34MOL   H32916235   3.758   7.433   7.541 -1.0483  3.1673 -0.1285
   34MOL   H33016236   3.531   7.465   7.576 -0.7985 -0.4521  0.2062
   34MOL   H33116237   3.546   7.487   7.747  0.2970 -1.1851  0.7619
   34MOL   H33216238   3.472   7.248   7.627  0.6288 -0.1286 -0.5715
   34MOL   H33316239   3.631   7.220   7.633  1.1460  0.7628  0.7147
   34MOL   H33416240   3.565   7.329   0.193 -0.4305 -0.2969  2.6387
   34MOL   H33516241   3.655   7.183   0.236  0.8417  1.9227  1.2696
   34MOL   H33616242   3.370   7.208   0.176  1.4240  1.0602 -2.9089
   34MOL   H33716243   3.438   7.075   0.089 -1.5394  0.6550 -0.0466
   34MOL   O33816244   3.510   7.101   0.410  0.0647  0.1728 -0.8880
   34MOL   C33916245   3.531   7.020   0.522  0.1184  0.5181 -0.3274
   34MOL   C34016246   3.411   7.015   0.615 -0.1239 -0.9638  0.4405
   34MOL   C34116247   3.421   7.120   0.725  0.2787  0.0871  0.0905
   34MOL   C34216248   3.334   7.090   0.842 -0.7877 -0.2171 -0.0732
   34MOL   O34316249   3.196   7.092   0.801 -0.4208  0.4732 -0.2281
   34MOL   C34416250   3.102   7.125   0.900 -0.7584  0.0384  0.0790
   34MOL   O34516251   3.129   7.149   1.020 -0.1692  0.2381  0.0295
   34MOL   C34616252   2.957   7.131   0.845  0.4060 -0.6175  0.3651
   34MOL   C34716253   2.843   7.122   0.951 -0.1316  0.2332 -0.0243
   34MOL   C34816254   2.764   6.987   0.940  0.2339 -1.2735  0.0459
   34MOL   O34916255   2.778   6.904   0.848 -0.1857  0.3707 -0.6099
   34MOL   H35016256   3.557   6.919   0.492 -1.4795  0.4362 -1.5066
   34MOL   H35116257   3.617   7.047   0.583  0.5965 -1.5530 -0.0687
   34MOL   H35216258   3.426   6.918   0.664  2.2085 -1.0553 -0.4161
   34MOL   H35316259   3.319   7.008   0.557  0.6524  1.4380 -1.1522
   34MOL   H35416260   3.390   7.216   0.685  1.1668 -0.1766 -1.2765
   34MOL   H35516261   3.525   7.124   0.758 -0.5219 -1.0790  2.9749
   34MOL   H35616262   3.351   6.989   0.880 -1.8340 -0.4127 -0.0967
   34MOL   H35716263   3.358   7.164   0.918  1.1863 -1.2174  0.3181
   34MOL   H35816264   2.949   7.052   0.771 -0.2407  1.0254 -1.3696
   34MOL   H35916265   2.949   7.228   0.795  0.0222  0.8637  3.1584
   34MOL   H36016266   2.895   7.118   1.046  1.5048 -1.1377 -0.9445
   34MOL   H36116267   2.779   7.210   0.954  1.6227  1.4936  1.3689
   34MOL   O36216268   2.688   6.974   1.040  0.6612  0.3223  0.1005
   34MOL   C36316269   2.618   6.857   1.052 -0.3043  0.0848  0.0429
   34MOL   C36416270   2.502   6.879   1.145  0.2573  0.0513  0.0253
   34MOL   C36516271   2.399   6.978   1.088 -0.0394 -0.1116  0.2373
   34MOL   C36616272   2.255   6.954   1.133  0.0856  0.1172  0.7259
   34MOL   O36716273   2.234   6.937   1.268  0.2116  0.5124  0.4887
   34MOL   C36816274   2.234   7.040   1.347  0.1023  0.1932 -0.5374
   34MOL   O36916275   2.222   7.160   1.318  0.4469  0.2351  0.8430
   34MOL   C37016276   2.238   7.000   1.499 -0.2321 -0.3472  0.9359
   34MOL   C37116277   2.382   6.986   1.549  0.4704 -0.1649 -0.3965
   34MOL   C37216278   2.429   7.099   1.642 -0.4119  0.1316 -0.1723
   34MOL   O37316279   2.514   7.175   1.602  0.4747 -0.1120  0.0869
   34MOL   H37416280   2.576   6.833   0.954  0.0772  0.5666 -0.2432
   34MOL   H37516281   2.677   6.775   1.093 -1.1615  0.2355  1.6081
   34MOL   H37616282   2.532   6.909   1.245  0.9382  0.9585 -0.4505
   34MOL   H37716283   2.472   6.776   1.168  2.7416 -0.5288  0.7800
   34MOL   H37816284   2.409   6.969   0.980  0.9879  1.1711  0.2160
   34MOL   H37916285   2.415   7.084   1.106 -2.1732 -0.1218  2.6281
   34MOL   H38016286   2.185   7.027   1.092 -1.9447 -1.1457  1.8613
   34MOL   H38116287   2.223   6.862   1.084  1.3098  0.0246  0.0789
   34MOL   H38216288   2.188   6.905   1.515 -0.2234 -0.9775 -2.3607
   34MOL   H38316289   2.187   7.085   1.545  0.5118  0.0782  0.9758
   34MOL   H38416290   2.394   6.904   1.620 -0.4814 -0.5344 -0.6533
   34MOL   H38516291   2.443   6.969   1.460  0.9089 -0.5471 -0.0240
   34MOL   O38616292   2.356   7.118   1.753  0.0194  0.2457 -0.0001
   34MOL   C38716293   2.388   7.220   1.844  0.1038 -1.4724 -0.0054
   34MOL   C38816294   2.361   7.177   1.996 -0.1254 -0.5117  0.2462
   34MOL   C38916295   2.362   7.309   2.080 -0.2661  0.8421  0.1087
   34MOL   C39016296   2.311   7.288   2.224 -0.2606 -0.5121  0.3070
   34MOL   O39116297   2.209   7.198   2.240 -0.0813 -0.8212 -0.1934
   34MOL   C39216298   2.235   7.073   2.268 -0.0201  0.3532 -0.5923
   34MOL   O39316299   2.345   7.015   2.287 -0.3346 -0.5860  0.5633
   34MOL   C39416300   2.109   6.995   2.279 -0.2712 -0.8838  0.2895
   34MOL   C39516301   2.078   6.947   2.132 -0.3372 -0.3015 -0.2427
   34MOL   C39616302   1.968   7.034   2.064  0.0374 -0.0155 -0.6743
   34MOL   O39716303   1.878   7.083   2.135  0.0295 -0.0481 -0.2640
   34MOL   H39816304   2.484   7.264   1.818 -0.2282 -1.5400 -1.4084
   34MOL   H39916305   2.319   7.302   1.820 -2.0476 -2.7614  1.5521
   34MOL   H40016306   2.446   7.110   2.011  1.4395  0.8474 -2.3219
   34MOL   H40116307   2.270   7.119   2.005 -0.0566 -0.6854 -0.1920
   34MOL   H40216308   2.291   7.374   2.029 -1.9070  0.1248  1.4190
   34MOL   H40316309   2.454   7.366   2.075 -2.3268  4.5816  2.3977
   34MOL   H40416310   2.397   7.273   2.289 -1.1683 -0.0174  1.6494
   34MOL   H40516311   2.270   7.381   2.263  1.6713  0.9494 -1.0529
   34MOL   H40616312   2.035   7.061   2.325  0.4184  2.3671 -3.0471
   34MOL   H40716313   2.133   6.908   2.342  0.5369 -0.3095  0.7865
   34MOL   H40816314   2.171   6.946   2.076 -0.2356  1.7238 -0.1617
   34MOL   H40916315   2.032   6.848   2.140  0.1020 -0.5333 -0.6038
   34MOL   O41016316   1.985   7.045   1.932  0.5132 -0.2310  0.8643
   34MOL   C41116317   1.903   7.116   1.850  0.5779 -0.6038 -0.6232
   34MOL   C41216318   1.977   7.138   1.720  0.1270  0.0418  0.2123
   34MOL   C41316319   1.904   7.209   1.607  0.1188 -0.5132 -0.0316
   34MOL   C41416320   1.952   7.355   1.579 -0.2852 -0.6271 -0.0048
   34MOL   O41516321   1.950   7.448   1.694 -0.7713  0.2584 -0.6373
   34MOL   C41616322   1.846   7.536   1.718  0.3942 -0.0303  0.1638
   34MOL   O41716323   1.749   7.564   1.647  0.3947  0.0886 -0.2667
   34MOL   C41816324   1.857   7.607   1.856 -0.1846  0.6971 -0.5436
   34MOL   C41916325   1.813   7.523   1.973 -0.1167 -0.1499  1.1858
   34MOL   C42016326   1.696   7.571   2.060 -0.1819  0.1162  0.7386
   34MOL   O42116327   1.616   7.492   2.109 -0.1089  0.2718 -0.0315
   34MOL   H42216328   1.811   7.058   1.836  0.3997 -0.4264 -0.2051
   34MOL   H42316329   1.875   7.212   1.892 -1.9633 -1.1071 -1.0957
   34MOL   H42416330   2.024   7.047   1.683  2.3442  1.3248 -0.2407
   34MOL   H42516331   2.069   7.192   1.744 -1.4190  2.7973  0.2213
   34MOL   H42616332   1.797   7.209   1.628  0.2433 -0.0202  0.6229
   34MOL   H42716333   1.915   7.162   1.509  0.1152 -1.7529  0.5522
   34MOL   H42816334   2.058   7.359   1.552  0.4633  2.7240  2.9766
   34MOL   H42916335   1.889   7.381   1.495 -0.1766  1.8740  0.6315
   34MOL   H43016336   1.800   7.700   1.846 -3.1443 -0.7454  2.2332
   34MOL   H43116337   1.961   7.637   1.865 -0.1465  0.1229  1.1791
   34MOL   H43216338   1.791   7.424   1.932  0.4519  0.0478  0.3979
   34MOL   H43316339   1.901   7.504   2.033  0.2345 -1.5195  0.2628
   34MOL   O43416340   1.711   7.708   2.087  0.5723 -0.0311 -0.2763
   34MOL   C43516341   1.636   7.770   2.197 -0.2286 -0.4861  0.2732
   34MOL   C43616342   1.604   0.044   2.170 -0.3662  0.3075 -0.1613
   34MOL   C43716343   1.491   0.092   2.258 -0.2332 -0.4935 -0.0968
   34MOL   C43816344   1.466   0.239   2.241 -0.1130 -0.7669  0.5201
   34MOL   O43916345   1.342   0.284   2.291 -0.5823  0.8030 -0.8711
   34MOL   C44016346   1.332   0.345   2.407  0.0327 -0.0169 -0.3374
   34MOL   O44116347   1.422   0.401   2.473 -0.3533  0.3510  0.3986
   34MOL   C44216348   1.185   0.355   2.454 -0.1019 -0.4388 -0.3450
   34MOL   C44316349   1.106   0.463   2.382  0.0441 -0.7443 -0.2905
   34MOL   C44416350   0.968   0.422   2.347 -0.5633 -0.1638  0.0804
   34MOL   O44516351   0.919   0.321   2.396  0.4241  0.7517  0.7533
   34MOL   H44616352   1.537   7.730   2.216 -0.9423  1.1075 -0.0286
   34MOL   H44716353   1.695   7.754   2.287 -0.4038  0.3147  0.5315
   34MOL   H44816354   1.585   0.067   2.065 -2.3937  0.6165  0.2339
   34MOL   H44916355   1.698   0.097   2.177 -1.1201  1.8436 -1.3271
   34MOL   H45016356   1.515   0.080   2.364 -3.0542  0.3220  0.6690
   34MOL   H45116357   1.397   0.039   2.247  0.5921 -1.9321 -0.4402
   34MOL   H45216358   1.544   0.305   2.280 -2.2857  1.8634  0.5552
   34MOL   H45316359   1.458   0.266   2.136 -0.6040 -1.2144  0.4423
   34MOL   H45416360   1.163   0.363   2.560  0.4865 -0.0358 -0.2500
   34MOL   H45516361   1.150   0.256   2.427  0.4025 -0.6611 -0.1796
   34MOL   H45616362   1.088   0.550   2.445 -1.4000  0.1795 -1.9211
   34MOL   H45716363   1.161   0.500   2.295 -2.2129 -0.3769 -1.6069
   34MOL   O45816364   0.917   0.499   2.254 -0.4244  0.3549  0.8595
   34MOL   C45916365   0.795   0.468   2.202 -0.6070  0.5420  0.5136
   34MOL   C46016366   0.794   0.520   2.054 -1.1474 -0.9302 -0.1079
   34MOL   C46116367   0.666   0.511   1.982  0.0529 -0.5298  0.2717
   34MOL   C46216368   0.652   0.604   1.860 -0.3004 -0.4048 -0.2269
   34MOL   O46316369   0.649   0.739   1.906  0.0226  0.7333 -0.1274
   34MOL   C46416370   0.524   0.789   1.930 -0.0239  0.0483 -0.2502
   34MOL   O46516371   0.410   0.732   1.916  0.2745 -0.2917 -0.1995
   34MOL   C46616372   0.523   0.934   1.964  0.3766  0.1100  0.2527
   34MOL   C46716373   0.602   0.963   2.088 -0.7908  0.0144  0.3169
   34MOL   C46816374   0.514   0.986   2.209  0.4409  0.2648  0.1141
   34MOL   O46916375   0.394   1.005   2.195  0.0801  0.1747  0.2481
   34MOL   H47016376   0.776   0.361   2.203  0.9313  0.2401 -1.0046
   34MOL   H47116377   0.722   0.511   2.270 -1.5677  1.8848 -1.3103
   34MOL   H47216378   0.873   0.467   2.000  0.9890  2.1810 -0.1852
   34MOL   H47316379   0.815   0.627   2.058 -1.9906 -0.7994  1.1331
   34MOL   H47416380   0.585   0.541   2.050 -1.6447 -3.2171 -0.4730
   34MOL   H47516381   0.639   0.410   1.953 -2.3063  0.5144 -1.3629
   34MOL   H47616382   0.740   0.603   1.795 -0.9747 -0.9444 -1.1532
   34MOL   H47716383   0.560   0.597   1.801 -0.3849 -2.2600  0.1180
   34MOL   H47816384   0.418   0.958   1.978  0.0497 -2.3984  2.4645
   34MOL   H47916385   0.569   0.984   1.879 -0.1964  0.7348  0.3085
   34MOL   H48016386   0.650   0.867   2.107  1.4494  0.8822 -0.8593
   34MOL   H48116387   0.679   1.038   2.076 -0.8843  0.1728  0.6779
   34MOL   H48216388   0.571   0.998   2.301  0.6982 -0.0415 -0.0033
   35MOL     O116389   7.103   1.402   2.106  0.3508 -0.2572  0.7969
   35MOL     C216390   7.208   1.322   2.161 -0.0149 -0.9043  0.3118
   35MOL     C316391   7.172   1.181   2.202  0.2010  0.4992 -0.0638
   35MOL     C416392   7.159   1.091   2.075 -0.3940  0.0730  0.4431
   35MOL     C516393   7.166   0.939   2.102 -0.5205 -0.7584  0.2696
   35MOL     O616394   7.044   0.890   2.156  0.4139  0.3630  0.0939
   35MOL     C716395   7.033   0.870   2.290  0.2914  0.4517 -0.1318
   35MOL     O816396   7.111   0.897   2.375 -0.3727  0.2932 -0.4611
   35MOL     C916397   6.896   0.816   2.334 -0.3034 -1.2324 -0.2063
   35MOL    C1016398   6.868   0.682   2.264 -0.0243  0.2770 -0.5446
   35MOL    C1116399   6.740   0.677   2.187 -0.2926 -0.0048 -1.2635
   35MOL    O1216400   6.738   0.660   2.065 -0.1765  0.0372  0.1568
   35MOL    H1316401   7.301   1.334   2.106 -0.1526  2.9862  0.7586
   35MOL    H1416402   7.243   1.381   2.246 -0.2800 -0.6609  0.2545
   35MOL    H1516403   7.084   1.172   2.266  1.1314 -2.2034  0.9170
   35MOL    H1616404   7.254   1.153   2.268 -0.9883 -1.9130  0.4519
   35MOL    H1716405   7.242   1.122   2.010  0.7885  1.0953  2.3829
   35MOL    H1816406   7.067   1.118   2.023 -0.9962  0.3787  1.6605
   35MOL    H1916407   7.198   0.900   2.005  0.3703 -1.5718  0.8736
   35MOL    H2016408   7.249   0.914   2.170 -0.5375 -2.4768 -0.3213
   35MOL    H2116409   6.818   0.890   2.319  1.0254  0.0438 -0.9643
   35MOL    H2216410   6.891   0.804   2.443  0.0231 -0.7645 -0.1410
   35MOL    H2316411   6.938   0.662   2.183  0.0939  1.9045 -0.8578
   35MOL    H2416412   6.880   0.616   2.350  0.0546 -1.2716 -1.7245
   35MOL    H2516413   7.059   1.436   2.183 -1.6919 -2.1138  0.5256
   35MOL    O2616414   6.638   0.701   2.258 -0.6517  0.6302  0.2239
   35MOL    C2716415   6.510   0.675   2.198 -0.0742  0.1364 -0.0254
   35MOL    C2816416   6.408   0.706   2.310  0.1443 -0.0285  0.3879
   35MOL    C2916417   6.418   0.607   2.423 -0.2242  0.3005 -0.3371
   35MOL    C3016418   6.351   0.471   2.383  0.0233  0.1951 -0.4981
   35MOL    O3116419   6.214   0.480   2.381 -0.3607 -0.1226 -0.2080
   35MOL    C3216420   6.138   0.463   2.266 -0.5265  0.7043  0.5661
   35MOL    O3316421   6.190   0.450   2.153 -0.5987  0.4783  0.0434
   35MOL    C3416422   5.986   0.477   2.286  0.6293 -0.3107  0.4015
   35MOL    C3516423   5.944   0.612   2.330 -0.0525 -0.1591  0.0048
   35MOL    C3616424   5.888   0.697   2.217  0.3324  0.1088  0.1467
   35MOL    O3716425   5.764   0.719   2.208 -0.3916 -0.2902 -0.4804
   35MOL    H3816426   6.487   0.733   2.108 -0.2478 -1.0975 -0.7767
   35MOL    H3916427   6.499   0.571   2.170  4.5139 -0.8042  1.2017
   35MOL    H4016428   6.308   0.708   2.265  0.4271  0.7246 -0.2125
   35MOL    H4116429   6.422   0.804   2.354 -2.0794  0.3235  0.3719
   35MOL    H4216430   6.372   0.660   2.506  0.1442  0.2337 -0.0889
   35MOL    H4316431   6.520   0.591   2.457 -0.2021 -1.2422 -1.1150
   35MOL    H4416432   6.394   0.420   2.297  2.3414  0.2022  0.5926
   35MOL    H4516433   6.359   0.394   2.460 -3.0479 -1.4719 -1.7583
   35MOL    H4616434   5.972   0.403   2.365 -0.1796  0.9942  1.5060
   35MOL    H4716435   5.940   0.432   2.198 -0.7321  1.7766  0.0178
   35MOL    H4816436   5.866   0.612   2.405  0.5056 -1.9022  0.5964
   35MOL    H4916437   6.026   0.664   2.381  0.6548  1.0217 -2.2669
   35MOL    O5016438   5.974   0.723   2.124  0.4910 -0.5007  0.0676
   35MOL    C5116439   5.942   0.822   2.027 -0.2429  0.0209  0.4304
   35MOL    C5216440   6.073   0.880   1.974 -0.7451  0.6428  0.3905
   35MOL    C5316441   6.055   0.995   1.867 -0.5336  0.1544 -0.4203
   35MOL    C5416442   6.180   1.027   1.782 -0.4682 -0.6840 -0.1874
   35MOL    O5516443   6.189   0.918   1.693  0.0467 -0.0270 -0.0830
   35MOL    C5616444   6.299   0.909   1.621 -0.3120  0.5693 -0.6426
   35MOL    O5716445   6.402   0.978   1.638  0.0674  0.1318 -0.4588
   35MOL    C5816446   6.282   0.803   1.511 -0.0517  0.4517 -0.2550
   35MOL    C5916447   6.396   0.803   1.408  0.0306 -0.3986 -0.6183
   35MOL    C6016448   6.371   0.902   1.293  0.1601 -0.1363 -0.6383
   35MOL    O6116449   6.255   0.949   1.266 -0.1245 -0.2610 -0.2724
   35MOL    H6216450   5.902   0.768   1.942  1.8592 -1.0893  0.1286
   35MOL    H6316451   5.866   0.898   2.048 -0.9460 -0.2224 -1.2145
   35MOL    H6416452   6.132   0.804   1.923  1.2500  1.2240  1.7641
   35MOL    H6516453   6.139   0.906   2.057  0.5545 -0.4207 -0.2965
   35MOL    H6616454   6.014   1.087   1.908 -1.8847 -0.2176 -0.9138
   35MOL    H6716455   5.967   0.970   1.808 -1.5191  1.0883  0.6323
   35MOL    H6816456   6.159   1.124   1.737 -1.0039  1.6070  4.7361
   35MOL    H6916457   6.270   1.040   1.842  0.5912 -2.8939 -1.2173
   35MOL    H7016458   6.185   0.819   1.466 -2.0231 -1.5887  3.0592
   35MOL    H7116459   6.280   0.708   1.565  1.2207  0.8788  0.5743
   35MOL    H7216460   6.494   0.831   1.447  0.2546 -1.2037 -0.6048
   35MOL    H7316461   6.412   0.707   1.360  1.9011 -1.2001  1.5232
   35MOL    O7416462   6.486   0.944   1.220 -0.2768  0.2230  0.1156
   35MOL    C7516463   6.475   1.054   1.131 -0.1383  0.3767 -0.5032
   35MOL    C7616464   6.526   1.175   1.201 -0.4818  0.3652  0.3054
   35MOL    C7716465   6.570   1.284   1.104 -0.0219  0.2278 -0.1852
   35MOL    C7816466   6.600   1.417   1.175 -0.4357 -0.3039 -0.7528
   35MOL    O7916467   6.720   1.415   1.248 -0.1723 -0.2527 -0.1395
   35MOL    C8016468   6.826   1.485   1.206 -0.1190  0.5363  0.6414
   35MOL    O8116469   6.826   1.563   1.114  0.3205  0.5896  0.5608
   35MOL    C8216470   6.951   1.469   1.290 -0.0314 -0.0348  0.6643
   35MOL    C8316471   7.048   1.594   1.281  0.4850 -0.4683  0.3444
   35MOL    C8416472   7.064   1.668   1.408  0.0018  0.1275 -0.8966
   35MOL    O8516473   7.008   1.636   1.511 -0.0247  0.0248  0.3397
   35MOL    H8616474   6.539   1.036   1.045  0.8731  3.0310 -0.3284
   35MOL    H8716475   6.375   1.056   1.088  0.9033  0.4658 -2.9692
   35MOL    H8816476   6.619   1.152   1.252 -0.8797  0.7467  1.2094
   35MOL    H8916477   6.468   1.208   1.288 -0.0600 -0.2508  0.8246
   35MOL    H9016478   6.481   1.306   1.045 -0.2913  1.7496  0.7874
   35MOL    H9116479   6.647   1.248   1.035  0.5016  0.0213  0.5024
   35MOL    H9216480   6.573   1.496   1.104 -0.5898 -0.0699 -0.4324
   35MOL    H9316481   6.517   1.430   1.244 -0.0203 -0.6894 -0.1758
   35MOL    H9416482   7.008   1.381   1.259 -0.1617  0.6104 -1.4938
   35MOL    H9516483   6.928   1.445   1.394 -0.3001  1.1504  0.8869
   35MOL    H9616484   7.145   1.575   1.234  0.3107  0.2865 -0.3319
   35MOL    H9716485   7.015   1.665   1.205 -2.6573 -2.6994 -0.4916
   35MOL    O9816486   7.146   1.775   1.396  0.0873 -0.1651 -0.2916
   35MOL    C9916487   7.179   1.869   1.506  0.3887  0.1134  0.0508
   35MOL   C10016488   7.321   1.924   1.475 -0.6569 -0.8549  0.0918
   35MOL   C10116489   7.321   2.003   1.346 -0.9854 -0.4431  0.2880
   35MOL   C10216490   7.459   2.060   1.311 -0.7757  0.2131  0.0814
   35MOL   O10316491   7.484   2.177   1.392 -0.0511  0.2138 -0.1254
   35MOL   C10416492   7.499   2.298   1.343 -0.2526 -0.2115  0.2848
   35MOL   O10516493   7.484   2.331   1.231 -0.2375 -0.5402 -0.0991
   35MOL   C10616494   7.523   2.406   1.450 -0.9485 -0.2537 -0.4009
   35MOL   C10716495   7.671   2.433   1.479  0.6144  0.3133 -0.1010
   35MOL   C10816496   7.716   2.580   1.450  0.0068  0.1937 -0.2652
   35MOL   O10916497   7.650   2.675   1.482  0.6268 -0.4784 -0.2466
   35MOL   H11016498   7.107   1.950   1.518  1.5329  1.0060  1.0820
   35MOL   H11116499   7.180   1.811   1.598  3.2416 -0.1376 -0.0819
   35MOL   H11216500   7.399   1.848   1.484 -0.2416 -0.5740 -1.0810
   35MOL   H11316501   7.348   1.991   1.557  2.3138  1.0733 -2.3681
   35MOL   H11416502   7.245   2.081   1.354 -0.6520  0.0405 -1.0510
   35MOL   H11516503   7.294   1.939   1.262  0.0315  0.1692 -0.5149
   35MOL   H11616504   7.530   1.980   1.332  0.8109  1.4034 -0.6495
   35MOL   H11716505   7.471   2.079   1.204  0.8224  0.5501  0.3081
   35MOL   H11816506   7.464   2.381   1.538 -1.1236 -0.5775 -0.6074
   35MOL   H11916507   7.476   2.500   1.421 -0.5542 -0.1572 -0.7392
   35MOL   H12016508   7.677   2.414   1.586  0.7058 -0.2566 -0.2103
   35MOL   H12116509   7.733   2.359   1.429 -0.7084 -0.6721 -0.2938
   35MOL   O12216510   7.837   2.585   1.399 -0.1619 -0.0750  0.0118
   35MOL   C12316511   0.044   2.696   1.397  0.0090 -0.7938 -0.2130
   35MOL   C12416512   0.094   2.741   1.262  0.6469 -0.0323 -0.2140
   35MOL   C12516513   0.198   2.859   1.267  0.2023 -0.5890  0.5153
   35MOL   C12616514   0.246   2.901   1.129  0.6805  0.2794 -0.6219
   35MOL   O12716515   0.330   3.017   1.125  0.0331 -0.0032 -0.0808
   35MOL   C12816516   0.278   3.145   1.110 -0.5835 -0.1016 -0.6009
   35MOL   O12916517   0.156   3.171   1.095  0.3331 -1.0573  0.0406
   35MOL   C13016518   0.382   3.248   1.065 -0.0302  0.3665 -0.1679
   35MOL   C13116519   0.353   3.311   0.929  0.2184 -1.0225  0.0315
   35MOL   C13216520   0.405   3.449   0.909  0.3181  0.8008 -0.0388
   35MOL   O13316521   0.486   3.474   0.820  0.2653 -0.0352  0.0493
   35MOL   H13416522   7.870   2.779   1.449  0.5440  0.0803 -1.0969
   35MOL   H13516523   0.121   2.676   1.472 -0.3652  3.1631  1.3571
   35MOL   H13616524   0.013   2.780   1.201  1.0040  1.0032 -0.0408
   35MOL   H13716525   0.138   2.656   1.209  0.5994 -0.3534  0.2628
   35MOL   H13816526   0.283   2.840   1.334  0.0414  0.6549  1.0903
   35MOL   H13916527   0.144   2.944   1.309  1.9355  1.1566 -0.6636
   35MOL   H14016528   0.299   2.824   1.074  1.0465 -0.1308  0.2861
   35MOL   H14116529   0.165   2.926   1.061  2.2607  0.9422 -2.3179
   35MOL   H14216530   0.480   3.201   1.065 -0.8040 -1.2594 -0.2375
   35MOL   H14316531   0.369   3.325   1.141 -3.9836 -0.9683  0.5918
   35MOL   H14416532   0.397   3.250   0.850 -0.7654 -1.0469 -0.4991
   35MOL   H14516533   0.246   3.326   0.913  0.0737 -2.3105 -0.1990
   35MOL   O14616534   0.366   3.544   1.006 -0.2787 -0.4687 -0.0700
   35MOL   C14716535   0.407   3.683   1.002  0.1277  0.2058  0.0196
   35MOL   C14816536   0.292   3.783   0.989 -0.3465  0.0250  0.4202
   35MOL   C14916537   0.255   3.785   0.835  0.3696  0.0066  0.0738
   35MOL   C15016538   0.172   3.904   0.790  0.5023  0.0939 -0.1719
   35MOL   O15116539   0.034   3.903   0.838 -0.3451 -0.1340  0.1260
   35MOL   C15216540   7.828   3.824   0.781  0.2103  0.0755 -0.0934
   35MOL   O15316541   7.846   3.746   0.687 -0.1040  0.3300 -0.3208
   35MOL   C15416542   7.691   3.839   0.847 -0.0799  0.3539 -0.3770
   35MOL   C15516543   7.615   3.964   0.812 -0.4149  0.0457 -0.7465
   35MOL   C15616544   7.489   3.976   0.900  0.7959  0.0295 -1.1927
   35MOL   O15716545   7.379   3.991   0.851  0.2886  0.3410  0.3870
   35MOL   H15816546   0.463   3.709   1.091  1.7438 -0.3645 -0.8149
   35MOL   H15916547   0.471   3.711   0.918 -2.4280 -1.0092 -2.4251
   35MOL   H16016548   0.328   3.874   1.037  1.5374  0.6007 -1.9854
   35MOL   H16116549   0.206   3.750   1.048 -0.3492  0.9297  0.9269
   35MOL   H16216550   0.226   3.686   0.799  0.8460 -0.3135  0.5693
   35MOL   H16316551   0.347   3.805   0.781  0.9950  1.4428  1.6513
   35MOL   H16416552   0.226   3.994   0.821 -1.4541  1.5709 -0.9335
   35MOL   H16516553   0.176   3.904   0.681  1.2330  0.2951 -0.1502
   35MOL   H16616554   7.710   3.843   0.954 -1.4588 -0.4437 -0.0917
   35MOL   H16716555   7.630   3.751   0.828 -3.6547  3.0870 -2.1272
   35MOL   H16816556   7.681   4.045   0.842  1.3750 -2.4740  2.4242
   35MOL   H16916557   7.590   3.966   0.706 -1.1315 -0.2552 -0.5817
   35MOL   O17016558   7.516   3.970   1.034  0.0075  0.2694  0.1139
   35MOL   C17116559   7.431   4.010   1.139 -0.1293 -0.3523  0.3000
   35MOL   C17216560   7.459   4.156   1.193  0.1378 -0.1373  0.3400
   35MOL   C17316561   7.343   4.213   1.286 -1.4400  0.6010 -0.2014
   35MOL   C17416562   7.345   4.151   1.425 -0.1188  0.2277 -0.2090
   35MOL   O17516563   7.244   4.183   1.520 -0.5579 -0.1557  0.4222
   35MOL   C17616564   7.252   4.148   1.647 -0.0392  0.0588  0.3928
   35MOL   O17716565   7.334   4.074   1.697  0.6114  0.0799 -0.5004
   35MOL   C17816566   7.129   4.190   1.725  0.2081 -0.8506  0.6334
   35MOL   C17916567   7.143   4.186   1.878  0.5419  0.6285  0.6429
   35MOL   C18016568   7.203   4.315   1.940 -0.2493 -0.1340  0.6511
   35MOL   O18116569   7.291   4.303   2.022 -0.0805 -0.4753 -0.0465
   35MOL   H18216570   7.327   4.005   1.105  0.4293 -1.0029 -1.3535
   35MOL   H18316571   7.438   3.939   1.222 -0.8108 -2.0835 -1.0946
   35MOL   H18416572   7.459   4.232   1.115  3.3285  1.0306  1.4029
   35MOL   H18516573   7.555   4.165   1.245  0.0662  2.2896  0.0953
   35MOL   H18616574   7.244   4.190   1.247 -1.9418  1.2184  0.6853
   35MOL   H18716575   7.349   4.322   1.285 -2.1672  0.6936  2.4575
   35MOL   H18816576   7.337   4.043   1.409  2.8131  0.0870 -1.0073
   35MOL   H18916577   7.446   4.160   1.466  0.4197  1.6739 -1.7941
   35MOL   H19016578   7.036   4.147   1.689 -0.5708  2.3484 -1.3654
   35MOL   H19116579   7.125   4.299   1.714  2.4286 -0.7118  0.8818
   35MOL   H19216580   7.042   4.171   1.916  0.7877  0.4450  1.2287
   35MOL   H19316581   7.193   4.095   1.912 -0.1525 -0.2707 -0.7212
   35MOL   O19416582   7.138   4.433   1.913 -0.2874  1.0729  0.2632
   35MOL   C19516583   7.163   4.553   1.993  0.5078 -0.1068  0.3551
   35MOL   C19616584   7.037   4.641   1.992  0.0536  0.4188 -0.3467
   35MOL   C19716585   7.009   4.691   1.848  0.3861 -0.4451  0.6868
   35MOL   C19816586   6.864   4.757   1.834  0.1129  0.5911 -0.0795
   35MOL   O19916587   6.832   4.828   1.956  0.3994 -0.3499 -0.1986
   35MOL   C20016588   6.795   4.955   1.933  0.4204  0.0642 -0.2923
   35MOL   O20116589   6.816   5.024   1.832  0.3687 -0.1469  0.5461
   35MOL   C20216590   6.743   5.019   2.064  0.3543 -0.0780 -0.1941
   35MOL   C20316591   6.624   4.938   2.114 -0.2604 -0.3564  0.0831
   35MOL   C20416592   6.670   4.842   2.226  0.0837 -0.4713  0.1486
   35MOL   O20516593   6.676   4.717   2.220 -0.3001  0.1539  0.2060
   35MOL   H20616594   7.182   4.529   2.098 -0.1011  0.8049  0.6805
   35MOL   H20716595   7.255   4.606   1.969  1.5751 -2.7146 -1.4440
   35MOL   H20816596   7.043   4.728   2.058 -1.2874  1.9762 -2.1914
   35MOL   H20916597   6.951   4.586   2.031  0.3700 -0.1886 -0.5152
   35MOL   H21016598   7.021   4.604   1.785  0.9515  0.3813 -0.3582
   35MOL   H21116599   7.078   4.771   1.820 -0.3475 -0.0157  0.0853
   35MOL   H21216600   6.844   4.810   1.741  1.0633  1.2381  0.0797
   35MOL   H21316601   6.801   4.668   1.834  1.9774 -0.8032 -2.6473
   35MOL   H21416602   6.715   5.122   2.039  2.9737  0.8722  0.6185
   35MOL   H21516603   6.831   5.019   2.127  0.2329 -0.0742 -0.0261
   35MOL   H21616604   6.555   5.008   2.162  0.7250  0.1737  0.7369
   35MOL   H21716605   6.575   4.884   2.033  0.2583  0.4753 -0.7907
   35MOL   O21816606   6.708   4.914   2.331  0.7105 -0.5123  0.7003
   35MOL   C21916607   6.733   4.854   2.460  0.1921 -0.2330  0.5232
   35MOL   C22016608   6.605   4.874   2.544  0.2336 -0.3500  0.1016
   35MOL   C22116609   6.591   5.007   2.616  0.2545 -0.5862  0.5293
   35MOL   C22216610   6.532   5.107   2.510  0.0649  0.4291 -0.8444
   35MOL   O22316611   6.538   5.228   2.575  0.1709  0.1835  0.0488
   35MOL   C22416612   6.607   5.335   2.535 -0.8943 -0.5395 -0.0461
   35MOL   O22516613   6.671   5.335   2.429  0.3495 -0.7340 -0.1188
   35MOL   C22616614   6.591   5.453   2.620 -0.0433  0.0282 -0.7664
   35MOL   C22716615   6.633   5.582   2.547  0.0038 -0.1004 -0.3911
   35MOL   C22816616   6.773   5.637   2.578  0.0853 -0.2460  0.5640
   35MOL   O22916617   6.835   5.604   2.677  0.1374  0.1659 -0.0479
   35MOL   H23016618   6.759   4.748   2.455 -1.2831 -0.5644 -0.2141
   35MOL   H23116619   6.821   4.908   2.497 -0.6262 -1.8529  5.2540
   35MOL   H23216620   6.596   4.800   2.623  0.5884 -1.2329 -0.6611
   35MOL   H23316621   6.518   4.850   2.482 -0.3770  0.9859  0.4216
   35MOL   H23416622   6.683   5.058   2.647  0.0403 -0.5024  1.0231
   35MOL   H23516623   6.531   4.996   2.706  0.6410  0.8474  0.9746
   35MOL   H23616624   6.594   5.101   2.421  0.9892 -1.5025 -0.0999
   35MOL   H23716625   6.429   5.077   2.487  0.2626 -1.4638  0.6111
   35MOL   H23816626   6.640   5.441   2.717 -0.0657 -0.6385 -0.8341
   35MOL   H23916627   6.485   5.462   2.642  0.2582 -0.9602  1.2458
   35MOL   H24016628   6.620   5.584   2.439 -1.4266  1.2783 -0.2065
   35MOL   H24116629   6.561   5.660   2.571 -0.3374 -0.5007 -0.1113
   35MOL   O24216630   6.809   5.729   2.487 -0.0243 -0.6903 -0.2238
   35MOL   C24316631   6.922   5.806   2.521  0.2797 -0.2996  0.3831
   35MOL   C24416632   6.895   5.911   2.627 -0.2577 -0.7222  0.3764
   35MOL   C24516633   7.011   6.013   2.635  0.3272  0.4915  0.4281
   35MOL   C24616634   6.975   6.136   2.724 -0.3510  0.5571  0.2310
   35MOL   O24716635   6.878   6.214   2.658 -0.4221  0.4811  0.3856
   35MOL   C24816636   6.917   6.317   2.585  0.4236  0.3170  0.3186
   35MOL   O24916637   7.028   6.352   2.563 -0.2881 -0.1511 -0.0036
   35MOL   C25016638   6.798   6.380   2.507  0.3433  0.4373  0.4357
   35MOL   C25116639   6.763   6.302   2.379 -0.2346  0.0369  0.6339
   35MOL   C25216640   6.622   6.236   2.384 -0.3074  0.7786  0.3379
   35MOL   O25316641   6.549   6.253   2.477 -0.0772  0.4187  0.1982
   35MOL   H25416642   6.999   5.733   2.546  0.2788  0.4934  2.8044
   35MOL   H25516643   6.963   5.863   2.437 -3.8711 -0.1999 -1.6797
   35MOL   H25616644   6.883   5.857   2.722  0.7134 -0.5511  0.6028
   35MOL   H25716645   6.798   5.955   2.608 -0.1706 -0.1853  1.1189
   35MOL   H25816646   7.044   6.048   2.537 -1.3109 -1.4318 -0.8510
   35MOL   H25916647   7.092   5.965   2.690  0.1316 -1.7961 -1.1676
   35MOL   H26016648   6.932   6.090   2.813  0.0021  0.0178  0.1225
   35MOL   H26116649   7.063   6.191   2.756  2.6134 -2.9904 -1.3467
   35MOL   H26216650   6.830   6.478   2.470  1.2456 -0.0062  0.0073
   35MOL   H26316651   6.710   6.401   2.567 -0.2954 -1.1281  0.0632
   35MOL   H26416652   6.774   6.369   2.294 -0.7295 -3.0531 -1.9630
   35MOL   H26516653   6.836   6.224   2.361  1.2099  1.1392  1.5468
   35MOL   O26616654   6.589   6.167   2.275  0.7947  0.0895 -0.2021
   35MOL   C26716655   6.466   6.088   2.276 -0.0816  0.0497 -0.2505
   35MOL   C26816656   6.431   6.024   2.143 -0.2032  0.2561  0.2516
   35MOL   C26916657   6.489   5.879   2.135 -0.5989  0.0689 -0.8382
   35MOL   C27016658   6.453   5.803   2.007 -0.4057 -0.1732 -0.0908
   35MOL   O27116659   6.320   5.759   2.008  0.4281  0.0487 -0.0916
   35MOL   C27216660   6.290   5.648   1.923  0.1482  0.0569 -1.1549
   35MOL   O27316661   6.379   5.592   1.858  0.5876  0.4609 -0.9378
   35MOL   C27416662   6.143   5.615   1.904  1.0783 -0.8027  0.3539
   35MOL   C27516663   6.049   5.658   2.016  0.8686  0.2790 -0.1630
   35MOL   C27616664   5.931   5.554   2.029 -0.0414  0.1281  0.3558
   35MOL   O27716665   5.819   5.574   1.981 -0.0462  0.7271 -0.1013
   35MOL   H27816666   6.465   6.009   2.351  0.2479  0.4119  0.1382
   35MOL   H27916667   6.394   6.164   2.305 -0.1694 -0.1160 -0.0309
   35MOL   H28016668   6.465   6.084   2.059  0.9473 -0.9860 -0.1965
   35MOL   H28116669   6.323   6.014   2.136  0.0750 -2.1550 -1.1560
   35MOL   H28216670   6.452   5.813   2.214  1.1950  0.3142  0.2271
   35MOL   H28316671   6.598   5.879   2.134 -0.5750  1.5325  0.7455
   35MOL   H28416672   6.462   5.871   1.922 -0.1135 -2.1966 -1.7079
   35MOL   H28516673   6.526   5.723   1.994 -2.9424 -2.4120 -0.9884
   35MOL   H28616674   6.133   5.508   1.888  3.4504 -0.7043 -1.9935
   35MOL   H28716675   6.115   5.656   1.807 -0.0747 -0.9485  0.6100
   35MOL   H28816676   6.101   5.640   2.110  3.4590 -0.2088 -1.6602
   35MOL   H28916677   6.023   5.764   2.009  1.4459  0.4529  0.2806
   35MOL   O29016678   5.965   5.441   2.088 -0.0615 -0.1619 -0.8407
   35MOL   C29116679   5.877   5.328   2.095 -0.7853 -0.1844 -0.4339
   35MOL   C29216680   5.941   5.198   2.045 -0.1590  0.7421  0.2777
   35MOL   C29316681   5.980   5.186   1.900  0.0493  0.2415  0.5416
   35MOL   C29416682   5.865   5.191   1.791 -0.0726 -0.2931  0.8741
   35MOL   O29516683   5.774   5.090   1.815  0.7281 -0.1594 -0.1558
   35MOL   C29616684   5.658   5.119   1.869  0.7658 -0.7034  0.2615
   35MOL   O29716685   5.618   5.232   1.892 -0.6173  0.7602 -0.4575
   35MOL   C29816686   5.575   4.988   1.894 -0.1853 -0.9516  0.0913
   35MOL   C29916687   5.638   4.911   2.002  0.3372  0.5470  0.2718
   35MOL   C30016688   5.567   4.779   2.023 -0.3552  0.4573 -0.0120
   35MOL   O30116689   5.618   4.681   1.975  0.3902  0.1315  0.2795
   35MOL   H30216690   5.850   5.313   2.200 -0.5587  0.4797 -0.2743
   35MOL   H30316691   5.783   5.346   2.043  0.3548 -0.4898 -2.6435
   35MOL   H30416692   5.874   5.119   2.079  1.0147 -0.2356  0.3525
   35MOL   H30516693   6.033   5.181   2.101  0.8693  1.4517 -1.1761
   35MOL   H30616694   6.013   5.083   1.886 -3.1743 -0.8512  0.5906
   35MOL   H30716695   6.058   5.252   1.861 -1.3479  2.1030  0.8265
   35MOL   H30816696   5.822   5.291   1.785  2.1127  0.6628  0.7280
   35MOL   H30916697   5.915   5.170   1.697  0.6219  3.0004  0.4581
   35MOL   H31016698   5.582   4.935   1.799 -0.5176  2.4357 -1.9131
   35MOL   H31116699   5.473   5.016   1.923  0.0689 -0.7590  0.8127
   35MOL   H31216700   5.743   4.884   1.995  0.2205 -0.0105  0.6759
   35MOL   H31316701   5.626   4.955   2.101 -2.7709 -1.3162  0.8087
   35MOL   O31416702   5.459   4.785   2.085  0.1556 -0.0133  0.1348
   35MOL   C31516703   5.387   4.666   2.108 -0.4125  1.1620  0.2759
   35MOL   C31616704   5.251   4.683   2.168  0.0260  0.0477 -0.1523
   35MOL   C31716705   5.171   4.554   2.189 -0.3145  0.1716  0.1318
   35MOL   C31816706   5.248   4.450   2.272 -0.5356 -0.6383 -0.1284
   35MOL   O31916707   5.256   4.495   2.403 -0.0578  0.0340  0.0819
   35MOL   C32016708   5.164   4.463   2.493  0.7748  0.3842 -0.6890
   35MOL   O32116709   5.054   4.409   2.467  0.1615 -0.3615 -0.7424
   35MOL   C32216710   5.216   4.483   2.638  1.2180  0.1760 -0.1355
   35MOL   C32316711   5.157   4.382   2.748  0.2299 -0.0615 -0.4424
   35MOL   C32416712   5.171   4.234   2.707  0.2882 -0.2536 -0.5341
   35MOL   O32516713   5.256   4.194   2.622 -0.2076 -0.1787  0.2412
   35MOL   H32616714   5.391   4.602   2.019 -0.6760  2.4751 -0.7054
   35MOL   H32716715   5.445   4.617   2.186 -1.0918  0.9664  0.6599
   35MOL   H32816716   5.187   4.750   2.111 -2.7670  0.3902  3.2037
   35MOL   H32916717   5.266   4.735   2.263  0.8619  0.5693 -0.5729
   35MOL   H33016718   5.156   4.514   2.089  1.3879  2.7025 -1.2052
   35MOL   H33116719   5.073   4.592   2.220 -0.3552 -1.2846  1.8523
   35MOL   H33216720   5.202   4.351   2.262 -2.2558  0.0654  0.6690
   35MOL   H33316721   5.354   4.433   2.252 -0.4599 -1.3361  0.8244
   35MOL   H33416722   5.185   4.584   2.666 -0.6953 -0.2227 -0.7534
   35MOL   H33516723   5.322   4.470   2.615  1.7610  1.5671  1.4462
   35MOL   H33616724   5.214   4.390   2.841  3.6967  0.2261 -2.4917
   35MOL   H33716725   5.051   4.404   2.753  0.1064 -0.7994  0.4808
   35MOL   O33816726   5.095   4.150   2.792 -1.3728  0.0744  0.1701
   35MOL   C33916727   5.110   4.007   2.767  0.1217 -0.8458 -0.1072
   35MOL   C34016728   5.013   3.929   2.861  0.8125  0.4696  0.4262
   35MOL   C34116729   4.869   3.953   2.830  0.8146 -0.0169 -0.1097
   35MOL   C34216730   4.772   3.871   2.906  0.3471 -0.2414 -0.2036
   35MOL   O34316731   4.803   3.877   3.041 -0.1547  0.0422 -0.5337
   35MOL   C34416732   4.824   3.771   3.126 -0.2393 -0.2952 -0.5154
   35MOL   O34516733   4.798   3.656   3.102  0.0519  0.5921 -0.0555
   35MOL   C34616734   4.870   3.823   3.264  0.0642 -0.2166  0.0164
   35MOL   C34716735   5.014   3.802   3.299 -0.5573 -0.0352  0.5051
   35MOL   C34816736   5.042   3.673   3.376  0.7859  0.5363 -0.0940
   35MOL   O34916737   4.987   3.566   3.343 -0.3138  0.4060 -0.1141
   35MOL   H35016738   5.088   3.979   2.664  0.9595 -3.3272  0.3498
   35MOL   H35116739   5.215   3.989   2.789  0.2602 -0.9111 -0.8113
   35MOL   H35216740   5.038   3.943   2.966  0.7486  3.3249  0.1188
   35MOL   H35316741   5.032   3.823   2.843 -3.0632 -0.0946 -0.7558
   35MOL   H35416742   4.848   3.921   2.728  0.3993 -1.1412  0.3266
   35MOL   H35516743   4.862   4.062   2.837 -1.0181 -0.1005 -0.4259
   35MOL   H35616744   4.671   3.907   2.885 -0.6863 -2.3767  0.9972
   35MOL   H35716745   4.777   3.772   2.860 -2.3280  0.1518 -1.4593
   35MOL   H35816746   4.811   3.769   3.337 -0.0798  1.1746  0.9547
   35MOL   H35916747   4.852   3.931   3.263 -0.7695 -0.3580 -0.6013
   35MOL   H36016748   5.074   3.798   3.208 -0.0501  0.8540  0.7956
   35MOL   H36116749   5.047   3.883   3.365  1.0239  1.1039 -1.6289
   35MOL   O36216750   5.153   3.683   3.456  0.1753 -0.1315  0.2452
   35MOL   C36316751   5.196   3.573   3.543 -0.6268 -0.4043 -0.1747
   35MOL   C36416752   5.112   3.578   3.673  0.3534 -0.3676 -0.1158
   35MOL   C36516753   5.153   3.693   3.764 -0.0171 -0.3280 -0.4815
   35MOL   C36616754   5.107   3.674   3.910  0.1474 -0.1579  0.0075
   35MOL   O36716755   4.969   3.687   3.914 -0.1290  1.0987 -0.2142
   35MOL   C36816756   4.906   3.746   4.023 -0.7798  0.8963  0.1074
   35MOL   O36916757   4.963   3.769   4.128  0.0065  0.5302 -0.6818
   35MOL   C37016758   4.763   3.784   3.991 -0.4595 -0.1557 -0.3629
   35MOL   C37116759   4.751   3.862   3.863 -0.2999 -0.5532  0.4236
   35MOL   C37216760   4.691   3.783   3.748 -0.6138  0.1868  0.7261
   35MOL   O37316761   4.701   3.661   3.747 -0.4602 -0.6584 -0.2014
   35MOL   H37416762   5.176   3.480   3.491 -2.7136 -0.3184  0.4606
   35MOL   H37516763   5.301   3.585   3.570 -0.6254 -1.5896  0.3604
   35MOL   H37616764   5.144   3.491   3.731  1.0840 -1.3649 -1.9877
   35MOL   H37716765   5.006   3.572   3.650 -0.5101 -0.4850  3.5040
   35MOL   H37816766   5.126   3.793   3.731  0.5664 -0.3878 -1.1362
   35MOL   H37916767   5.262   3.698   3.765 -0.0712  2.5904  2.8676
   35MOL   H38016768   5.131   3.573   3.944  0.6808 -0.1346 -0.3078
   35MOL   H38116769   5.157   3.744   3.976  0.4788 -0.4764  0.0969
   35MOL   H38216770   4.727   3.855   4.066  0.7835  1.4835 -1.2845
   35MOL   H38316771   4.697   3.697   3.993  0.1783 -0.7130 -2.4579
   35MOL   H38416772   4.691   3.952   3.872  0.6900  0.0360  1.2692
   35MOL   H38516773   4.839   3.907   3.817 -1.8384  1.6515 -0.4471
   35MOL   O38616774   4.618   3.850   3.658 -0.0471  0.7458  0.1382
   35MOL   C38716775   4.537   3.790   3.563  0.0517  0.3096  0.0178
   35MOL   C38816776   4.533   3.866   3.429 -0.8260  0.0864  0.3941
   35MOL   C38916777   4.474   3.786   3.303 -0.5531  0.3567 -0.4461
   35MOL   C39016778   4.461   3.875   3.177 -0.6174  0.3898  0.2994
   35MOL   O39116779   4.436   3.801   3.060 -0.2026 -0.5529 -0.4389
   35MOL   C39216780   4.316   3.755   3.028  0.1195 -0.2202 -0.1887
   35MOL   O39316781   4.222   3.772   3.109 -0.3013 -0.5787 -0.4454
   35MOL   C39416782   4.317   3.670   2.905 -0.1049 -0.3139  1.0144
   35MOL   C39516783   4.404   3.543   2.915 -0.6202  0.4284  0.1250
   35MOL   C39616784   4.546   3.571   2.863 -0.5390  0.0769  0.3154
   35MOL   O39716785   4.568   3.671   2.792  0.2666  0.0990  0.4951
   35MOL   H39816786   4.573   3.690   3.536 -0.4041  0.4150 -0.9984
   35MOL   H39916787   4.443   3.766   3.611 -1.2237 -2.2135 -3.5652
   35MOL   H40016788   4.635   3.892   3.402 -1.6435  1.7437 -1.2436
   35MOL   H40116789   4.484   3.963   3.431 -0.0908  0.4814 -0.5399
   35MOL   H40216790   4.368   3.760   3.315 -0.5987  1.3645  1.6779
   35MOL   H40316791   4.523   3.693   3.274 -2.6443 -0.1948 -2.3531
   35MOL   H40416792   4.388   3.954   3.195 -1.5631 -0.0530 -1.5356
   35MOL   H40516793   4.554   3.932   3.167  0.2247 -1.0438 -0.0813
   35MOL   H40616794   4.332   3.740   2.822  1.2970 -1.1972  0.4941
   35MOL   H40716795   4.217   3.629   2.895  0.6485 -2.0391  0.5193
   35MOL   H40816796   4.402   3.520   3.021  1.4797  0.2452  0.1283
   35MOL   H40916797   4.354   3.460   2.864  0.7465  0.9567 -2.1348
   35MOL   O41016798   4.633   3.477   2.899 -0.0056  0.0282  0.2212
   35MOL   C41116799   4.764   3.476   2.842 -0.6673 -0.0135  0.1801
   35MOL   C41216800   4.847   3.354   2.888  0.3413  1.8725  0.1949
   35MOL   C41316801   4.794   3.226   2.819 -1.2642  0.0104  0.2820
   35MOL   C41416802   4.874   3.105   2.855  0.4370  0.1576  0.1484
   35MOL   O41516803   4.997   3.111   2.789  0.8802 -0.0417 -0.4370
   35MOL   C41616804   5.080   3.004   2.803  0.0285  0.1627  0.0233
   35MOL   O41716805   5.065   2.903   2.876 -0.2334  0.3391  0.4049
   35MOL   C41816806   5.199   3.003   2.709 -0.2715  1.1655 -0.6031
   35MOL   C41916807   5.255   3.140   2.676 -0.1313 -0.1622 -0.6900
   35MOL   C42016808   5.403   3.165   2.701  0.0864  0.4248  0.3402
   35MOL   O42116809   5.478   3.207   2.607 -0.0723  0.1899  0.0739
   35MOL   H42216810   4.766   3.478   2.733 -3.7118 -0.0101  0.0825
   35MOL   H42316811   4.804   3.573   2.871  1.3678 -0.6996 -0.2225
   35MOL   H42416812   4.857   3.351   2.996  1.3677 -0.4499  0.0756
   35MOL   H42516813   4.945   3.372   2.843 -0.3155 -0.0403 -2.1424
   35MOL   H42616814   4.807   3.225   2.711 -0.3143  1.2832  0.3768
   35MOL   H42716815   4.691   3.200   2.844 -1.6851  1.8168  0.5273
   35MOL   H42816816   4.897   3.096   2.962  0.1074  0.6057  0.2591
   35MOL   H42916817   4.822   3.014   2.825  3.0179 -1.0529 -0.8174
   35MOL   H43016818   5.177   2.935   2.626  1.8142 -2.0545  1.3629
   35MOL   H43116819   5.270   2.942   2.766  0.1377  1.5422 -0.7145
   35MOL   H43216820   5.236   3.170   2.572 -0.8186  2.4559  0.1544
   35MOL   H43316821   5.203   3.221   2.727  1.2120  0.9833 -1.0920
   35MOL   O43416822   5.439   3.149   2.827 -0.5363  0.1667  0.2510
   35MOL   C43516823   5.574   3.180   2.863  0.8085 -0.1112  0.0101
   35MOL   C43616824   5.578   3.212   3.010 -0.1117 -0.5287  0.7958
   35MOL   C43716825   5.719   3.203   3.063 -0.0222  1.0708  0.0656
   35MOL   C43816826   5.741   3.253   3.203  0.3343  0.4259  0.2762
   35MOL   O43916827   5.853   3.203   3.264  0.0888 -0.3332 -0.1356
   35MOL   C44016828   5.846   3.177   3.392  0.6525 -0.7033  0.1805
   35MOL   O44116829   5.753   3.198   3.463 -0.0411 -0.0402 -0.0460
   35MOL   C44216830   5.972   3.119   3.446 -0.4531 -0.1384  0.4832
   35MOL   C44316831   6.047   3.025   3.346 -0.9611  0.0649  0.0799
   35MOL   C44416832   6.036   2.876   3.393  0.1995 -0.0010  0.6823
   35MOL   O44516833   6.133   2.833   3.451  0.1299 -0.2589 -0.2808
   35MOL   H44616834   5.637   3.095   2.837  1.4648  0.1047  0.8961
   35MOL   H44716835   5.617   3.259   2.802 -0.9323  2.0168  1.4393
   35MOL   H44816836   5.514   3.139   3.060 -0.9732  0.8710  1.7623
   35MOL   H44916837   5.533   3.310   3.026  1.5205  0.4992 -0.7746
   35MOL   H45016838   5.780   3.270   3.002 -0.9803  0.9149 -1.0725
   35MOL   H45116839   5.769   3.108   3.045  0.9450  1.6023 -0.1048
   35MOL   H45216840   5.755   3.362   3.205 -1.6869  0.6994  0.2079
   35MOL   H45316841   5.652   3.229   3.260  1.4853  2.0864  2.8487
   35MOL   H45416842   5.941   3.049   3.523 -0.8526 -2.2933 -1.5635
   35MOL   H45516843   6.033   3.203   3.480  0.4730 -0.7733  0.4091
   35MOL   H45616844   5.993   3.015   3.252 -2.0099 -2.1482  0.9001
   35MOL   H45716845   6.152   3.053   3.332 -1.1099  0.4367 -0.3204
   35MOL   O45816846   5.916   2.830   3.368 -0.1810 -0.1515  0.5552
   35MOL   C45916847   5.885   2.694   3.398  0.2953 -0.2632 -0.1382
   35MOL   C46016848   5.738   2.652   3.360 -0.2794  0.0554  0.0580
   35MOL   C46116849   5.621   2.729   3.434 -0.7651 -0.3520  0.5969
   35MOL   C46216850   5.621   2.877   3.404  0.2956 -0.1668  0.1347
   35MOL   O46316851   5.505   2.924   3.468  0.3129  0.0480 -0.5881
   35MOL   C46416852   5.414   2.992   3.398 -0.5370  0.0040 -0.3882
   35MOL   O46516853   5.413   3.012   3.273  0.2140  0.8705 -0.1387
   35MOL   C46616854   5.287   3.030   3.471 -0.4147  0.6354  0.4470
   35MOL   C46716855   5.323   3.106   3.598  0.4672 -0.4888 -0.7279
   35MOL   C46816856   5.327   3.256   3.570  0.1226 -0.2618 -0.2477
   35MOL   O46916857   5.374   3.297   3.462  0.2749  0.2975 -0.5420
   35MOL   H47016858   5.952   2.632   3.339  2.4841  2.6247 -0.8020
   35MOL   H47116859   5.903   2.678   3.504  1.3987  0.1156 -0.2628
   35MOL   H47216860   5.723   2.547   3.383 -2.2428 -0.1954 -2.2727
   35MOL   H47316861   5.706   2.646   3.256  1.9455  0.2075 -0.6592
   35MOL   H47416862   5.635   2.711   3.541 -0.8466  1.1960  0.8811
   35MOL   H47516863   5.534   2.673   3.399  0.7563 -1.7252 -1.0588
   35MOL   H47616864   5.713   2.917   3.445  0.4416 -0.5437  0.1737
   35MOL   H47716865   5.612   2.900   3.297  0.6833  1.7214  0.4848
   35MOL   H47816866   5.233   2.937   3.485 -1.6191  1.1370 -0.7059
   35MOL   H47916867   5.228   3.080   3.394 -0.6500 -2.7088 -1.6442
   35MOL   H48016868   5.245   3.095   3.673  0.2255  0.8730 -0.7544
   35MOL   H48116869   5.410   3.065   3.649  1.0598  1.3127 -0.2379
   35MOL   H48216870   5.288   3.316   3.653  0.3622  0.3030 -0.5378
   36MOL     O116871   1.765   2.982   3.975  0.2079 -0.2515  0.1179
   36MOL     C216872   1.722   3.111   3.954  0.4799 -0.4325 -0.1667
   36MOL     C316873   1.836   3.202   3.910  0.1176 -0.6609  0.2971
   36MOL     C416874   1.915   3.144   3.786 -0.5691  0.5761 -0.0623
   36MOL     C516875   1.837   3.145   3.653 -0.1380  0.0502  0.2380
   36MOL     O616876   1.827   3.265   3.592 -0.3690 -0.8168 -0.0249
   36MOL     C716877   1.706   3.323   3.570  0.8784  0.4191  0.0281
   36MOL     O816878   1.601   3.270   3.601 -0.2604  0.0525  0.9083
   36MOL     C916879   1.714   3.464   3.496 -0.2857 -0.0109  0.2330
   36MOL    C1016880   1.811   3.553   3.569 -0.7373  0.2007 -0.3664
   36MOL    C1116881   1.825   3.687   3.500  0.3721 -0.2841 -0.5359
   36MOL    O1216882   1.787   3.794   3.553 -0.3299  0.4610  0.4059
   36MOL    H1316883   1.654   3.102   3.869 -0.7585  1.7175  0.5654
   36MOL    H1416884   1.659   3.145   4.035  1.6100 -2.3780  1.5771
   36MOL    H1516885   1.903   3.211   3.995  0.1436  2.5901 -0.0035
   36MOL    H1616886   1.799   3.303   3.893  2.3794  0.2946  0.8651
   36MOL    H1716887   1.946   3.041   3.802 -2.2794 -0.1185 -1.0078
   36MOL    H1816888   2.010   3.193   3.764  0.4328 -0.6899  1.3800
   36MOL    H1916889   1.881   3.075   3.582  1.0646  1.4465 -0.4216
   36MOL    H2016890   1.741   3.102   3.683  0.3533 -0.5230  1.0035
   36MOL    H2116891   1.614   3.506   3.488  0.2403  1.4212  1.0277
   36MOL    H2216892   1.760   3.447   3.398 -1.8445 -0.8894 -0.3545
   36MOL    H2316893   1.791   3.568   3.675 -0.5231  0.5769 -0.3807
   36MOL    H2416894   1.908   3.504   3.557 -1.0170 -0.8136  1.3724
   36MOL    H2516895   1.691   2.924   3.988 -0.4739  1.1324  2.6561
   36MOL    O2616896   1.881   3.674   3.377 -0.5074 -0.8725  0.1866
   36MOL    C2716897   1.890   3.782   3.282  0.3043  0.0703 -0.1812
   36MOL    C2816898   1.758   3.814   3.215 -0.4718  0.9345 -0.2633
   36MOL    C2916899   1.764   3.922   3.113 -0.3168 -0.5564  0.9017
   36MOL    C3016900   1.630   3.939   3.042 -0.1345 -0.3138  0.0181
   36MOL    O3116901   1.580   3.817   2.986 -0.3106  0.3649  0.0508
   36MOL    C3216902   1.600   3.792   2.852  0.0517 -0.1018 -0.2307
   36MOL    O3316903   1.672   3.856   2.774  0.1580 -0.4822 -0.1449
   36MOL    C3416904   1.526   3.671   2.806 -0.4824  0.5562  0.1897
   36MOL    C3516905   1.612   3.577   2.720 -0.1633  0.4340 -0.2795
   36MOL    C3616906   1.665   3.453   2.803  0.7198  0.3919 -0.1918
   36MOL    O3716907   1.587   3.364   2.832  0.4422  0.5800 -0.0536
   36MOL    H3816908   1.923   3.873   3.331  0.9867  0.8284 -2.0085
   36MOL    H3916909   1.973   3.759   3.215  1.3810  0.3941  1.0277
   36MOL    H4016910   1.680   3.836   3.288 -2.1458 -1.2861 -1.3051
   36MOL    H4116911   1.721   3.722   3.169  2.3590 -0.8055  0.8234
   36MOL    H4216912   1.844   3.901   3.041 -1.3883 -2.0159  0.1189
   36MOL    H4316913   1.790   4.017   3.160  1.6052 -1.0184  0.8095
   36MOL    H4416914   1.559   3.961   3.122 -4.3498 -0.1277 -3.5965
   36MOL    H4516915   1.623   4.022   2.971  0.6898  0.1408  0.4557
   36MOL    H4616916   1.462   3.720   2.732 -0.0818 -0.9780 -1.2082
   36MOL    H4716917   1.486   3.616   2.891 -0.2270  0.6119  0.3432
   36MOL    H4816918   1.555   3.530   2.639  0.8922  0.7394 -1.2151
   36MOL    H4916919   1.694   3.632   2.673  1.2800 -1.8456 -0.5394
   36MOL    O5016920   1.797   3.465   2.846 -0.3153 -0.0986  0.4305
   36MOL    C5116921   1.840   3.359   2.932  0.1507 -0.1381 -0.1933
   36MOL    C5216922   1.939   3.431   3.015  0.3319  0.0384 -0.4420
   36MOL    C5316923   1.985   3.365   3.141 -0.1830 -0.4159  0.4468
   36MOL    C5416924   2.119   3.422   3.185 -0.7826 -0.6643 -0.2913
   36MOL    O5516925   2.175   3.365   3.303  0.3062  0.2079  0.4333
   36MOL    C5616926   2.176   3.440   3.419  0.0449  0.3623  0.9673
   36MOL    O5716927   2.144   3.557   3.426  0.0724 -0.0370  0.1789
   36MOL    C5816928   2.235   3.358   3.535  0.2865  0.7822  0.0499
   36MOL    C5916929   2.296   3.441   3.653  0.1209 -0.4449 -0.1641
   36MOL    C6016930   2.327   3.345   3.764 -0.7954  0.2028 -0.7047
   36MOL    O6116931   2.397   3.249   3.740 -0.0208 -0.1254  0.4817
   36MOL    H6216932   1.756   3.325   2.993 -0.2313  0.7128 -0.2277
   36MOL    H6316933   1.871   3.270   2.878 -0.0647 -0.0876 -0.4024
   36MOL    H6416934   1.895   3.529   3.038  1.1942 -0.1139  2.0009
   36MOL    H6516935   2.026   3.453   2.953  1.2204  0.6916  1.0005
   36MOL    H6616936   1.990   3.261   3.109 -1.8949  0.0218 -1.3705
   36MOL    H6716937   1.912   3.374   3.221 -1.3756  2.6427 -0.8941
   36MOL    H6816938   2.186   3.396   3.103  1.9314 -0.4366  1.8186
   36MOL    H6916939   2.115   3.531   3.188  1.1894 -0.5728 -0.6828
   36MOL    H7016940   2.311   3.289   3.498  0.1486  0.0589  1.1154
   36MOL    H7116941   2.159   3.291   3.574  1.7220 -1.0951 -0.3307
   36MOL    H7216942   2.386   3.483   3.608 -1.5199  3.0888 -0.2753
   36MOL    H7316943   2.223   3.521   3.667 -0.0603 -0.8090  1.0120
   36MOL    O7416944   2.284   3.377   3.887  0.3988  0.6268  0.0503
   36MOL    C7516945   2.287   3.277   3.986  0.8106 -0.3098 -0.4471
   36MOL    C7616946   2.283   3.352   4.120 -0.9262  0.3833  0.3911
   36MOL    C7716947   2.154   3.433   4.149 -0.1637 -0.2307 -0.6315
   36MOL    C7816948   2.166   3.515   4.276  0.4095  0.1402 -0.5797
   36MOL    O7916949   2.123   3.432   4.386 -0.0578  0.0258 -0.3578
   36MOL    C8016950   2.160   3.455   4.516  0.2264 -0.2150  0.9567
   36MOL    O8116951   2.217   3.560   4.549  0.3243 -0.2965  0.2141
   36MOL    C8216952   2.121   3.343   4.614 -0.1014 -0.3830  0.8644
   36MOL    C8316953   1.998   3.266   4.568 -0.1965  0.1652  0.4593
   36MOL    C8416954   2.036   3.145   4.481  0.0655 -0.0903  0.0935
   36MOL    O8516955   2.105   3.058   4.533 -0.2225  0.5045 -0.1572
   36MOL    H8616956   2.194   3.226   3.962 -0.3532  0.4250  2.3529
   36MOL    H8716957   2.378   3.216   3.978  0.4765 -0.7665 -0.7662
   36MOL    H8816958   2.370   3.417   4.134 -0.2325 -0.1329 -1.4834
   36MOL    H8916959   2.306   3.285   4.203  2.2202 -1.2120 -1.7143
   36MOL    H9016960   2.072   3.364   4.164 -0.9919  0.5181 -1.6394
   36MOL    H9116961   2.144   3.496   4.061  0.6191 -1.0700 -1.3326
   36MOL    H9216962   2.268   3.548   4.295  1.4495 -1.7276 -2.7733
   36MOL    H9316963   2.103   3.603   4.260  0.3926  0.6221  1.8800
   36MOL    H9416964   2.107   3.385   4.713 -0.7570 -1.6470  1.3251
   36MOL    H9516965   2.204   3.274   4.625  0.3507  0.4379  2.7279
   36MOL    H9616966   1.949   3.222   4.656  0.6577 -1.7736 -0.0146
   36MOL    H9716967   1.920   3.320   4.514 -1.0201 -1.3421  0.1139
   36MOL    O9816968   1.982   3.150   4.358  0.0121 -0.1725  0.1114
   36MOL    C9916969   1.996   3.036   4.275  0.6503  0.5264 -0.0594
   36MOL   C10016970   2.121   3.039   4.184 -0.6017  0.0483 -0.1667
   36MOL   C10116971   2.131   2.913   4.104 -0.1637 -0.5083 -0.6489
   36MOL   C10216972   2.237   2.921   3.991 -0.4442 -0.1140 -0.0348
   36MOL   O10316973   2.371   2.941   4.026  1.2357 -0.2529 -0.2208
   36MOL   C10416974   2.462   2.920   3.925 -0.0452 -0.2585 -0.1557
   36MOL   O10516975   2.433   2.881   3.806 -0.1422 -0.3324 -0.5115
   36MOL   C10616976   2.606   2.962   3.972 -0.0531 -0.5442  0.1768
   36MOL   C10716977   2.644   3.104   3.924  0.0678 -0.6062  0.0984
   36MOL   C10816978   2.719   3.106   3.793 -0.1347  0.7042  1.0293
   36MOL   O10916979   2.781   3.000   3.762 -0.2950 -0.3990 -0.3592
   36MOL   H11016980   1.983   2.949   4.340 -0.7744 -1.4927 -2.9434
   36MOL   H11116981   1.913   3.038   4.205  0.5229 -1.6959  0.0007
   36MOL   H11216982   2.204   3.065   4.250  0.8312 -0.7859 -1.6163
   36MOL   H11316983   2.112   3.126   4.120 -0.0929 -1.1917 -1.9505
   36MOL   H11416984   2.033   2.883   4.069  0.3632 -1.3998 -1.3874
   36MOL   H11516985   2.152   2.831   4.172 -0.7323  0.1124  0.2801
   36MOL   H11616986   2.232   2.824   3.942 -2.0533  0.9870 -2.1294
   36MOL   H11716987   2.198   3.001   3.927  0.4582 -0.6617 -1.2712
   36MOL   H11816988   2.668   2.873   3.957 -1.1147 -1.3851  0.6728
   36MOL   H11916989   2.619   2.969   4.080 -4.3995 -0.4196  0.7803
   36MOL   H12016990   2.559   3.172   3.922  2.1927  2.1002 -1.1904
   36MOL   H12116991   2.701   3.144   4.008 -1.3083 -2.1260  1.8027
   36MOL   O12216992   2.716   3.227   3.724  0.1698 -0.1673 -0.5637
   36MOL   C12316993   2.779   3.231   3.595 -0.3149 -0.2758 -0.2281
   36MOL   C12416994   2.828   3.378   3.565 -0.0519  0.0679  0.0658
   36MOL   C12516995   2.709   3.477   3.561 -0.3599 -0.3412 -0.4361
   36MOL   C12616996   2.627   3.467   3.435 -0.2757  0.3634  0.2105
   36MOL   O12716997   2.540   3.578   3.425  0.3604 -0.0697 -1.0788
   36MOL   C12816998   2.481   3.607   3.313  0.1098 -0.4094  0.7612
   36MOL   O12916999   2.471   3.535   3.219 -0.2764 -0.3856 -0.3290
   36MOL   C13017000   2.426   3.745   3.314 -0.1671 -0.0652 -0.3231
   36MOL   C13117001   2.533   3.851   3.285 -0.0205 -0.1281 -0.0547
   36MOL   C13217002   2.595   3.917   3.406 -0.4229 -0.0748  0.1072
   36MOL   O13317003   2.714   3.928   3.419 -0.4632  0.2222  0.1179
   36MOL   H13417004   2.868   3.169   3.587 -0.4280 -0.4246 -0.3275
   36MOL   H13517005   2.702   3.212   3.520 -1.1433  0.5898  0.3950
   36MOL   H13617006   2.892   3.382   3.477 -0.8209  2.3515 -0.4074
   36MOL   H13717007   2.886   3.417   3.649  0.5360 -0.3439 -0.1428
   36MOL   H13817008   2.745   3.579   3.567 -1.5904  0.0878 -0.1578
   36MOL   H13917009   2.643   3.469   3.647  0.9207 -0.5319  0.5416
   36MOL   H14017010   2.687   3.461   3.345 -1.8874  0.8763 -0.9122
   36MOL   H14117011   2.575   3.371   3.436  0.5460 -0.0868  0.4996
   36MOL   H14217012   2.391   3.749   3.417  1.3636  0.8574  0.1892
   36MOL   H14317013   2.335   3.759   3.256 -0.2069  2.5275  0.2859
   36MOL   H14417014   2.602   3.793   3.224 -0.4863 -0.8219  0.0770
   36MOL   H14517015   2.494   3.928   3.219  0.0243 -0.9940 -1.0908
   36MOL   O14617016   2.509   3.951   3.500 -0.2479  0.1727 -0.2512
   36MOL   C14717017   2.555   4.001   3.627  0.2435  0.3811 -0.3565
   36MOL   C14817018   2.570   3.896   3.737  0.1067  0.5974 -0.0364
   36MOL   C14917019   2.459   3.786   3.748 -0.8694 -0.0430 -0.4385
   36MOL   C15017020   2.483   3.691   3.864 -0.2850  0.6473  0.1470
   36MOL   O15117021   2.611   3.620   3.853 -0.2844  0.1087 -0.5419
   36MOL   C15217022   2.667   3.568   3.964 -0.4542 -0.0508  0.0287
   36MOL   O15317023   2.625   3.598   4.079  0.2419 -0.0102 -0.3834
   36MOL   C15417024   2.794   3.486   3.939  0.0842  0.1527 -0.6022
   36MOL   C15517025   2.847   3.427   4.078 -0.1187 -0.6965 -0.2235
   36MOL   C15617026   2.927   3.295   4.068 -0.6465  0.7844  0.1838
   36MOL   O15717027   2.931   3.212   4.162 -0.6416 -0.4502 -0.1335
   36MOL   H15817028   2.649   4.057   3.623  0.8898 -0.6481  0.2798
   36MOL   H15917029   2.485   4.075   3.668 -0.0169 -1.1944  2.1218
   36MOL   H16017030   2.563   3.956   3.827 -1.6329  2.2726 -1.2675
   36MOL   H16117031   2.667   3.847   3.726 -0.6199 -0.4603 -2.1578
   36MOL   H16217032   2.464   3.728   3.656  0.7444  1.1626 -1.1444
   36MOL   H16317033   2.355   3.816   3.761 -0.4103  1.5638 -0.3894
   36MOL   H16417034   2.482   3.740   3.961  2.2486  1.3312 -0.1168
   36MOL   H16517035   2.410   3.611   3.857  0.3281  0.1867 -1.2904
   36MOL   H16617036   2.869   3.542   3.882  1.2138  0.0700  0.7889
   36MOL   H16717037   2.768   3.403   3.873  0.6559  0.4403 -1.1998
   36MOL   H16817038   2.918   3.494   4.125 -1.2966  0.2615  0.2200
   36MOL   H16917039   2.766   3.402   4.147  1.6932 -1.3357  1.7359
   36MOL   O17017040   2.995   3.273   3.952 -0.6518  0.3464  0.2992
   36MOL   C17117041   3.078   3.155   3.939 -0.1353 -0.1477  0.5321
   36MOL   C17217042   3.123   3.155   3.793 -0.9182  0.5593 -0.1778
   36MOL   C17317043   3.171   3.296   3.746  0.4660 -0.3031 -0.4485
   36MOL   C17417044   3.240   3.301   3.606  0.1312  0.0128 -0.1991
   36MOL   O17517045   3.146   3.299   3.499  0.5090  0.5504  0.0391
   36MOL   C17617046   3.203   3.276   3.378  0.1627 -0.2264 -0.1379
   36MOL   O17717047   3.318   3.244   3.356 -0.0915  0.3474  0.0774
   36MOL   C17817048   3.099   3.293   3.272 -0.2441  0.3446 -0.1660
   36MOL   C17917049   2.990   3.186   3.283  0.4405 -0.1064 -0.5854
   36MOL   C18017050   3.001   3.067   3.189 -0.0901  0.7928  0.5813
   36MOL   O18117051   2.909   3.014   3.129  0.0597 -0.0185 -0.3667
   36MOL   H18217052   3.169   3.159   4.000  0.8215  2.0925 -0.9671
   36MOL   H18317053   3.024   3.062   3.960  0.2920 -0.9487 -1.8061
   36MOL   H18417054   3.051   3.131   3.716 -1.8229  1.4584  0.3755
   36MOL   H18517055   3.194   3.073   3.779 -0.9090  0.5107  0.1563
   36MOL   H18617056   3.243   3.342   3.814 -0.2448 -1.7850  1.3503
   36MOL   H18717057   3.088   3.366   3.741  0.9387  0.3995  1.1110
   36MOL   H18817058   3.292   3.397   3.598 -1.6382  1.0040  0.0956
   36MOL   H18917059   3.306   3.214   3.609  0.7554  0.4618 -0.8201
   36MOL   H19017060   3.142   3.294   3.172 -2.5346 -1.2980 -1.1904
   36MOL   H19117061   3.063   3.394   3.294  0.8460  0.8411 -0.5969
   36MOL   H19217062   2.986   3.151   3.386  0.8339  0.9050 -0.2161
   36MOL   H19317063   2.888   3.220   3.266  0.3766  1.3733  2.3940
   36MOL   O19417064   3.128   3.030   3.177 -0.1848 -0.0457 -0.4067
   36MOL   C19517065   3.167   2.915   3.117  0.2998  0.3148  0.5318
   36MOL   C19617066   3.268   2.933   3.007 -0.0529  0.5930  0.0443
   36MOL   C19717067   3.213   3.024   2.895 -0.1588  0.2952  0.5175
   36MOL   C19817068   3.133   2.945   2.793 -0.1037  0.0546  0.1325
   36MOL   O19917069   2.998   2.944   2.843  0.4857 -0.2796 -0.2612
   36MOL   C20017070   2.896   2.939   2.754  0.7009 -0.5155  0.7244
   36MOL   O20117071   2.908   2.936   2.632 -0.6785 -0.1698  0.3314
   36MOL   C20217072   2.764   2.936   2.825 -0.0593 -0.6806 -0.2350
   36MOL   C20317073   2.678   2.822   2.759  0.5445 -0.1279  0.1089
   36MOL   C20417074   2.562   2.792   2.844  0.4770 -0.0643  0.8639
   36MOL   O20517075   2.462   2.857   2.817 -0.1958  0.1033 -0.0522
   36MOL   H20617076   3.205   2.851   3.196 -0.6873  0.4876  1.1509
   36MOL   H20717077   3.083   2.876   3.060  1.6016 -3.7845  1.2330
   36MOL   H20817078   3.301   2.834   2.978 -0.0975  0.5579  0.1155
   36MOL   H20917079   3.354   2.989   3.045  0.3432  2.2308 -3.0345
   36MOL   H21017080   3.298   3.066   2.841  0.7317 -0.1490  1.5472
   36MOL   H21117081   3.152   3.105   2.935  0.8823  0.8294  1.0518
   36MOL   H21217082   3.140   2.999   2.698 -1.3221 -0.9509 -0.5485
   36MOL   H21317083   3.163   2.842   2.772 -0.6991 -0.1854  0.4421
   36MOL   H21417084   2.713   3.031   2.811  1.6041  0.3739  0.7816
   36MOL   H21517085   2.785   2.919   2.931  1.0066 -0.2638 -0.3726
   36MOL   H21617086   2.648   2.864   2.663 -1.9143 -1.9924  0.0137
   36MOL   H21717087   2.727   2.726   2.739  2.8451  0.9860  0.1894
   36MOL   O21817088   2.590   2.713   2.950  0.2064 -0.4797  0.5521
   36MOL   C21917089   2.486   2.698   3.045  0.7732 -0.0822  0.1664
   36MOL   C22017090   2.536   2.605   3.156  0.1967  0.1166  0.0432
   36MOL   C22117091   2.671   2.630   3.216  0.2619 -0.1548  0.6586
   36MOL   C22217092   2.690   2.777   3.257  0.2249 -0.1359  0.1296
   36MOL   O22317093   2.616   2.812   3.367  0.6900 -0.0219  0.0888
   36MOL   C22417094   2.629   2.930   3.414  0.2240 -0.2074 -0.6174
   36MOL   O22517095   2.724   3.010   3.390 -0.4073 -0.2573 -0.2648
   36MOL   C22617096   2.521   2.964   3.510 -0.2972 -0.2968 -0.2122
   36MOL   C22717097   2.391   3.011   3.431  0.5903 -0.4275  0.1508
   36MOL   C22817098   2.265   2.975   3.511  0.3436 -0.3342 -0.0495
   36MOL   O22917099   2.165   3.043   3.501 -0.0843 -0.5650 -0.1146
   36MOL   H23017100   2.455   2.791   3.092 -1.8787  0.3182 -2.2361
   36MOL   H23117101   2.396   2.655   3.002  1.3791 -0.7916 -0.3959
   36MOL   H23217102   2.532   2.504   3.113 -0.3034  0.3001 -0.3423
   36MOL   H23317103   2.461   2.612   3.234  2.0096  0.4339  1.7909
   36MOL   H23417104   2.747   2.595   3.147 -1.0279 -0.8974 -0.4128
   36MOL   H23517105   2.686   2.555   3.294 -1.2651 -2.6562 -1.3980
   36MOL   H23617106   2.798   2.789   3.270  0.1343 -1.4149  2.3384
   36MOL   H23717107   2.654   2.842   3.177 -1.6268  0.2871  1.2800
   36MOL   H23817108   2.560   3.039   3.577  1.2693 -1.5342  0.2889
   36MOL   H23917109   2.503   2.869   3.562 -1.0804  0.2415  0.5104
   36MOL   H24017110   2.401   3.120   3.427 -1.5173 -0.2157 -0.0582
   36MOL   H24117111   2.382   2.972   3.330 -0.1731 -0.1384  0.1052
   36MOL   O24217112   2.264   2.848   3.561 -0.0830 -0.7808 -0.1530
   36MOL   C24317113   2.153   2.812   3.649 -0.7655  0.0705  0.3592
   36MOL   C24417114   2.051   2.730   3.563 -0.4824 -0.2313  0.1792
   36MOL   C24517115   1.966   2.653   3.662  0.2551 -0.1182 -0.6467
   36MOL   C24617116   1.879   2.536   3.601 -0.3590 -0.2075 -0.1082
   36MOL   O24717117   1.802   2.594   3.499 -0.0115  0.6829 -0.3100
   36MOL   C24817118   1.705   2.515   3.443  0.8243 -0.3988 -0.5527
   36MOL   O24917119   1.677   2.403   3.481 -0.2593 -0.2934 -0.4098
   36MOL   C25017120   1.625   2.587   3.332 -0.0312  0.5009  0.1879
   36MOL   C25117121   1.528   2.487   3.260  0.8427 -0.6725 -0.3368
   36MOL   C25217122   1.463   2.554   3.137  0.3547 -1.0191  0.0731
   36MOL   O25317123   1.478   2.506   3.027  0.6029  0.2884 -0.2370
   36MOL   H25417124   2.191   2.739   3.720 -0.9401 -0.2759  0.1041
   36MOL   H25517125   2.103   2.899   3.692 -1.0109  0.1281 -0.0378
   36MOL   H25617126   2.088   2.654   3.494  1.5894  1.7415 -0.9393
   36MOL   H25717127   1.993   2.792   3.494  0.8701 -1.4231 -2.1011
   36MOL   H25817128   1.902   2.722   3.718  1.7190  0.6814  0.0829
   36MOL   H25917129   2.022   2.620   3.750 -1.0138 -0.3644  0.0848
   36MOL   H26017130   1.944   2.456   3.565  0.6044  0.5052 -0.0006
   36MOL   H26117131   1.819   2.495   3.682  1.3881  0.0501  1.3511
   36MOL   H26217132   1.694   2.615   3.253 -1.4818  0.2907 -1.1827
   36MOL   H26317133   1.579   2.680   3.367 -1.1914  0.3714 -0.9624
   36MOL   H26417134   1.583   2.395   3.240  3.0955  0.7362 -0.8519
   36MOL   H26517135   1.453   2.460   3.334  4.5070 -0.6746  3.5689
   36MOL   O26617136   1.388   2.663   3.168  0.1708  0.1136  0.1306
   36MOL   C26717137   1.282   2.704   3.082 -0.0945  0.0041  0.2179
   36MOL   C26817138   1.294   2.849   3.036 -0.8458 -0.1030  0.2851
   36MOL   C26917139   1.167   2.876   2.952 -0.2422 -0.3106 -0.0016
   36MOL   C27017140   1.162   3.026   2.919  0.6034 -0.3470  0.0655
   36MOL   O27117141   1.283   3.059   2.857 -0.6013 -0.4473 -0.1200
   36MOL   C27217142   1.301   3.049   2.731 -0.1080 -0.2404 -0.4715
   36MOL   O27317143   1.210   3.008   2.659  0.5605 -0.3980 -0.3403
   36MOL   C27417144   1.436   3.099   2.687  0.9803 -0.2204  0.1471
   36MOL   C27517145   1.463   3.082   2.535  0.6566 -0.2837 -0.2686
   36MOL   C27617146   1.565   3.189   2.494 -0.1652 -0.0039 -0.0775
   36MOL   O27717147   1.535   3.281   2.418 -0.2921 -0.5532  0.3960
   36MOL   H27817148   1.278   2.654   2.985 -3.9182 -0.4370  0.5102
   36MOL   H27917149   1.184   2.707   3.130 -0.2744 -0.3352 -0.1226
   36MOL   H28017150   1.381   2.849   2.970 -1.7860 -0.3092 -0.9887
   36MOL   H28117151   1.307   2.920   3.118  1.0732  0.9887 -0.9342
   36MOL   H28217152   1.072   2.852   3.001 -0.4762 -3.0189 -1.6675
   36MOL   H28317153   1.154   2.808   2.868  1.9600  0.1000 -0.7038
   36MOL   H28417154   1.075   3.043   2.856  1.5471  2.6116 -0.5224
   36MOL   H28517155   1.159   3.090   3.006 -2.3704 -0.3443 -0.0044
   36MOL   H28617156   1.524   3.061   2.740  1.9645 -1.1751 -2.1299
   36MOL   H28717157   1.440   3.208   2.699  0.8710 -0.2263  0.2387
   36MOL   H28817158   1.485   2.980   2.504  0.9561 -1.3261  3.1307
   36MOL   H28917159   1.375   3.111   2.478  0.3890  0.9591  0.7525
   36MOL   O29017160   1.697   3.169   2.525 -0.2286  0.5017 -0.9394
   36MOL   C29117161   1.796   3.267   2.489  0.4408 -0.6219  0.9703
   36MOL   C29217162   1.857   3.257   2.347 -0.2540  0.2444 -0.6426
   36MOL   C29317163   1.871   3.114   2.295 -0.5198 -0.3602  0.5805
   36MOL   C29417164   1.936   3.111   2.155 -0.3352  0.5462  0.1462
   36MOL   O29517165   1.966   2.978   2.121 -0.4213  0.5374  0.3267
   36MOL   C29617166   2.082   2.928   2.165 -0.4364  0.3926 -0.6496
   36MOL   O29717167   2.165   2.981   2.236 -0.4375 -0.0657 -0.5998
   36MOL   C29817168   2.099   2.783   2.110 -0.0326  0.0332  0.4924
   36MOL   C29917169   2.209   2.696   2.170 -0.7876 -0.3367 -0.1937
   36MOL   C30017170   2.167   2.550   2.181 -0.8362 -0.4795 -0.2344
   36MOL   O30117171   2.054   2.509   2.183 -0.2081  0.1652  0.0631
   36MOL   H30217172   1.764   3.371   2.494  0.8641 -0.3890 -0.5646
   36MOL   H30317173   1.874   3.265   2.565  1.3187 -0.1635  0.0987
   36MOL   H30417174   1.952   3.309   2.341  1.0373 -1.6733  2.3841
   36MOL   H30517175   1.783   3.305   2.282  0.3380  1.6258 -0.3116
   36MOL   H30617176   1.779   3.056   2.289 -1.4851  1.2826 -0.5983
   36MOL   H30717177   1.941   3.066   2.364 -0.6344  0.2094  1.1037
   36MOL   H30817178   1.868   3.148   2.078 -3.1671 -2.7218  0.9475
   36MOL   H30917179   2.025   3.173   2.149 -0.1218  0.5602  2.9296
   36MOL   H31017180   2.100   2.784   2.001  0.2286  1.3379  0.5016
   36MOL   H31117181   2.004   2.738   2.140 -1.0671 -0.0244 -2.6675
   36MOL   H31217182   2.303   2.709   2.117 -1.3248  2.4736 -0.5792
   36MOL   H31317183   2.225   2.747   2.265 -1.1027 -0.4840 -0.0588
   36MOL   O31417184   2.283   2.470   2.179  0.4883 -0.5687  0.3451
   36MOL   C31517185   2.270   2.325   2.144  0.4546 -0.0737 -0.4397
   36MOL   C31617186   2.343   2.297   2.002  0.4669 -0.5268  0.4576
   36MOL   C31717187   2.498   2.319   2.002 -0.5449  0.3758  0.8821
   36MOL   C31817188   2.582   2.214   1.913 -0.6791  0.4511 -0.3508
   36MOL   O31917189   2.707   2.187   1.987 -0.0604 -0.3052 -0.7638
   36MOL   C32017190   2.813   2.270   1.982 -0.4082  0.5567  0.3751
   36MOL   O32117191   2.817   2.379   1.928  0.3252 -0.1651  0.1603
   36MOL   C32217192   2.937   2.210   2.055  0.3885 -0.0209 -0.4536
   36MOL   C32317193   3.060   2.301   2.091 -0.3881 -0.1392  0.0080
   36MOL   C32417194   3.181   2.271   1.997  1.0047 -0.0016 -0.0544
   36MOL   O32517195   3.203   2.154   1.970  0.1254 -0.6669 -0.0401
   36MOL   H32617196   2.316   2.265   2.223 -2.0909  1.0986  2.0254
   36MOL   H32717197   2.167   2.291   2.136  0.5228 -0.7765  1.3279
   36MOL   H32817198   2.306   2.363   1.923  0.2216  0.4432  1.3726
   36MOL   H32917199   2.309   2.200   1.965  0.5975 -0.6222  0.5875
   36MOL   H33017200   2.517   2.307   2.109 -1.2962  0.3599  1.0163
   36MOL   H33117201   2.522   2.423   1.980 -0.3719  0.2955  0.6888
   36MOL   H33217202   2.528   2.121   1.898 -0.7269  0.5050 -0.5040
   36MOL   H33317203   2.601   2.268   1.820  2.5320 -0.1088 -0.1050
   36MOL   H33417204   2.971   2.114   2.017  1.9369  0.2896  0.1170
   36MOL   H33517205   2.885   2.181   2.146  2.4850  1.3044  1.2236
   36MOL   H33617206   3.034   2.403   2.062  2.7150  0.5501 -0.4962
   36MOL   H33717207   3.076   2.294   2.199  1.5789  0.5710 -0.2275
   36MOL   O33817208   3.245   2.375   1.936 -0.0361 -0.1612  0.3772
   36MOL   C33917209   3.338   2.355   1.824 -0.5954 -0.7749  0.3226
   36MOL   C34017210   3.257   2.331   1.696  0.3397  0.3859  0.8915
   36MOL   C34117211   3.333   2.268   1.580  0.2827  0.0787 -0.1122
   36MOL   C34217212   3.230   2.233   1.478  0.3821 -0.3534 -0.1526
   36MOL   O34317213   3.136   2.131   1.526  0.3195 -0.4829  0.8223
   36MOL   C34417214   3.014   2.112   1.465 -0.3004  0.4748 -0.0162
   36MOL   O34517215   2.972   2.181   1.376  0.6043  0.7449 -0.1077
   36MOL   C34617216   2.928   1.998   1.529 -0.0232  0.1152  0.1657
   36MOL   C34717217   2.890   2.027   1.672 -0.4421 -0.5555 -0.5153
   36MOL   C34817218   2.964   1.932   1.769  0.0151 -0.6875 -0.0138
   36MOL   O34917219   2.910   1.858   1.855 -0.0501 -0.5660  0.2111
   36MOL   H35017220   3.396   2.447   1.822 -1.5818 -0.0405  3.0895
   36MOL   H35117221   3.406   2.274   1.850  0.6265 -0.0724 -0.6674
   36MOL   H35217222   3.228   2.430   1.663 -1.3836 -0.1452  0.7161
   36MOL   H35317223   3.161   2.284   1.719  0.0695 -0.0041 -0.9616
   36MOL   H35417224   3.389   2.176   1.599  0.4058 -0.4617 -2.8358
   36MOL   H35517225   3.409   2.338   1.548 -0.2641 -0.4146 -2.6272
   36MOL   H35617226   3.177   2.318   1.434 -0.4058 -0.2712  0.9494
   36MOL   H35717227   3.280   2.185   1.393  1.3039  1.7845 -0.8521
   36MOL   H35817228   2.974   1.900   1.517 -0.2058 -0.0811  1.0496
   36MOL   H35917229   2.833   1.988   1.477  0.0501  3.2203 -0.6900
   36MOL   H36017230   2.913   2.130   1.702  1.1715 -1.0374 -0.0230
   36MOL   H36117231   2.787   2.003   1.696 -1.3569  2.3689 -1.3470
   36MOL   O36217232   3.090   1.949   1.757  0.2920  0.0593  0.2983
   36MOL   C36317233   3.182   1.871   1.829  0.3712 -0.7096 -0.6438
   36MOL   C36417234   3.315   1.916   1.772  0.0903  0.6413  0.1843
   36MOL   C36517235   3.344   1.883   1.628 -0.0211  0.5231 -0.1062
   36MOL   C36617236   3.331   1.733   1.594 -0.1995 -0.3431 -0.3809
   36MOL   O36717237   3.198   1.711   1.573 -0.3801  0.1015 -0.3386
   36MOL   C36817238   3.163   1.589   1.567  0.0008 -0.8119  0.2867
   36MOL   O36917239   3.243   1.492   1.562  0.9240  0.1027 -0.0010
   36MOL   C37017240   3.010   1.564   1.545  0.4075  0.4867 -0.6687
   36MOL   C37117241   2.986   1.509   1.403 -0.2512  0.7628  0.3447
   36MOL   C37217242   2.946   1.620   1.301  0.3586 -0.1885  0.2340
   36MOL   O37317243   2.828   1.623   1.260 -0.0679  0.2331  0.0654
   36MOL   H37417244   3.178   1.901   1.933  2.9930  0.5520 -0.8708
   36MOL   H37517245   3.153   1.767   1.816 -0.1329 -0.6727  0.1725
   36MOL   H37617246   3.383   1.864   1.840 -1.5955  1.5497  2.6077
   36MOL   H37717247   3.326   2.022   1.794 -0.2620  0.7018  0.0650
   36MOL   H37817248   3.441   1.920   1.594 -1.1459  5.0485  1.2262
   36MOL   H37917249   3.261   1.937   1.581 -1.4209 -0.2534  1.4285
   36MOL   H38017250   3.398   1.718   1.509 -1.1898 -0.2052 -1.2000
   36MOL   H38117251   3.360   1.678   1.684 -2.5453 -1.0393 -0.0061
   36MOL   H38217252   2.963   1.662   1.557 -2.6505 -1.0406  0.4665
   36MOL   H38317253   2.970   1.509   1.630  0.1460  0.9184 -0.5104
   36MOL   H38417254   3.076   1.465   1.361 -1.2030 -0.3537 -0.5416
   36MOL   H38517255   2.909   1.433   1.414 -1.3572  1.9203  0.7046
   36MOL   O38617256   3.045   1.695   1.261 -0.8115  0.3730  0.2491
   36MOL   C38717257   3.042   1.806   1.175  0.6054  0.0947  0.4567
   36MOL   C38817258   3.179   1.854   1.136  0.1676 -0.0399  0.6183
   36MOL   C38917259   3.269   1.890   1.254  0.1893  0.2649  0.0322
   36MOL   C39017260   3.392   1.956   1.196  0.1864  0.0247  0.1078
   36MOL   O39117261   3.366   2.081   1.144  0.3109 -0.0316  0.2617
   36MOL   C39217262   3.370   2.104   1.011  0.1236  0.5708  0.3934
   36MOL   O39317263   3.377   2.016   0.919  0.4895  0.0940  0.0755
   36MOL   C39417264   3.352   2.256   0.970  0.5810  0.4355 -0.4095
   36MOL   C39517265   3.237   2.325   1.044  0.6138  0.3806 -0.8090
   36MOL   C39617266   3.092   2.289   1.004 -0.0131 -0.3587  0.4295
   36MOL   O39717267   3.010   2.242   1.084  0.0860  0.5035  0.1541
   36MOL   H39817268   2.971   1.770   1.101  0.3274  1.6355 -0.0413
   36MOL   H39917269   2.992   1.888   1.227 -1.7834 -1.3042  0.4468
   36MOL   H40017270   3.162   1.934   1.065  0.0884 -1.5331 -1.0744
   36MOL   H40117271   3.215   1.766   1.083  0.0117  0.7762 -0.8502
   36MOL   H40217272   3.301   1.798   1.302  0.3279  1.5547  2.4928
   36MOL   H40317273   3.225   1.954   1.331 -0.2366 -0.6142  0.5332
   36MOL   H40417274   3.466   1.970   1.275  2.0651  1.2817 -1.8049
   36MOL   H40517275   3.446   1.887   1.131  0.5407 -2.2115  2.6735
   36MOL   H40617276   3.322   2.257   0.865  2.1169 -0.0347 -0.8654
   36MOL   H40717277   3.441   2.318   0.980  0.5659  0.2246  1.1315
   36MOL   H40817278   3.241   2.310   1.151  2.9008  1.2962 -0.7410
   36MOL   H40917279   3.255   2.432   1.029  4.6330  0.1223  1.3088
   36MOL   O41017280   3.066   2.319   0.877 -0.3584 -0.2406 -0.7248
   36MOL   C41117281   2.944   2.284   0.822 -0.0623  0.4334 -0.7122
   36MOL   C41217282   2.831   2.388   0.846  0.0564  0.0756 -0.2962
   36MOL   C41317283   2.701   2.330   0.790  0.6047  0.6033 -0.3366
   36MOL   C41417284   2.570   2.378   0.858 -0.3780  0.1259  0.0055
   36MOL   O41517285   2.464   2.289   0.819  0.2108 -0.2511  0.0012
   36MOL   C41617286   2.342   2.346   0.779 -1.5354 -0.1462 -0.5298
   36MOL   O41717287   2.310   2.458   0.807 -0.5855 -0.4781  0.2419
   36MOL   C41817288   2.249   2.251   0.714 -1.0373  0.2748  0.0466
   36MOL   C41917289   2.146   2.309   0.607  0.1930  0.0424 -0.0792
   36MOL   C42017290   2.002   2.275   0.642  0.1349  0.6982  0.2964
   36MOL   O42117291   1.912   2.355   0.627 -0.2988  0.4402  0.2638
   36MOL   H42217292   2.974   2.274   0.718 -2.5187  1.9203 -1.6139
   36MOL   H42317293   2.915   2.187   0.863 -0.7188  0.9960  0.1786
   36MOL   H42417294   2.858   2.484   0.803  2.7581 -0.5528 -0.1174
   36MOL   H42517295   2.809   2.404   0.952 -1.8204 -0.4847 -0.5954
   36MOL   H42617296   2.687   2.222   0.795  3.2641  0.1582 -1.5123
   36MOL   H42717297   2.684   2.357   0.685  2.9129 -0.8066 -1.1084
   36MOL   H42817298   2.572   2.365   0.966 -0.4656 -0.2301 -0.0370
   36MOL   H42917299   2.538   2.481   0.841 -0.7374  0.2407  1.3356
   36MOL   H43017300   2.200   2.208   0.801 -0.0975  1.7239  1.3179
   36MOL   H43117301   2.311   2.173   0.669  1.4892  2.4406 -0.2953
   36MOL   H43217302   2.165   2.412   0.579  0.9129 -0.0783 -0.0295
   36MOL   H43317303   2.165   2.245   0.521  2.6505 -0.8635  1.0830
   36MOL   O43417304   1.986   2.148   0.695  0.2063 -0.3597 -0.3311
   36MOL   C43517305   1.866   2.119   0.772  0.3135  0.4922  0.0172
   36MOL   C43617306   1.781   2.021   0.684  0.2879  0.4216 -0.2818
   36MOL   C43717307   1.744   2.073   0.541 -0.4245 -0.1707  0.1001
   36MOL   C43817308   1.617   1.998   0.490  0.0967  0.4875  0.4875
   36MOL   O43917309   1.599   2.031   0.353  0.5726  0.4066 -0.7880
   36MOL   C44017310   1.520   1.946   0.286  0.5454  0.6143  0.3036
   36MOL   O44117311   1.433   1.861   0.329  0.0165 -0.3303 -0.3262
   36MOL   C44217312   1.555   1.953   0.139  0.6732  0.3416  0.1788
   36MOL   C44317313   1.432   1.922   0.041 -0.0273  0.4135  0.1642
   36MOL   C44417314   1.463   1.965   7.779 -0.2288  0.5997  0.8833
   36MOL   O44517315   1.445   1.891   7.681 -0.2749  0.2669  0.4572
   36MOL   H44617316   1.903   2.068   0.861  1.0257  0.9493 -0.0096
   36MOL   H44717317   1.810   2.210   0.794  3.8952  3.3971 -2.1576
   36MOL   H44817318   1.689   1.998   0.737  0.1115 -0.4971 -0.9837
   36MOL   H44917319   1.820   1.919   0.679 -2.7358 -0.7225 -1.4077
   36MOL   H45017320   1.832   2.060   0.478 -0.6173 -0.6948 -0.0595
   36MOL   H45117321   1.706   2.175   0.548 -0.3827 -0.2229  1.2008
   36MOL   H45217322   1.613   1.891   0.506  1.0955  0.4273  0.3614
   36MOL   H45317323   1.532   2.027   0.551 -0.3032 -1.2539  0.7729
   36MOL   H45417324   1.646   1.894   0.129  1.9318  1.6187  3.4927
   36MOL   H45517325   1.590   2.054   0.115  0.9439  0.1893 -0.0632
   36MOL   H45617326   1.426   1.814   0.046  0.3933  0.3984  0.3950
   36MOL   H45717327   1.342   1.967   0.083  0.2288  1.3576 -0.2670
   36MOL   O45817328   1.514   2.084   7.780  0.4867  0.1465  0.4029
   36MOL   C45917329   1.568   2.144   7.661 -0.6929  0.0391 -0.1364
   36MOL   C46017330   1.658   2.256   7.705  0.5091 -0.1236  0.4398
   36MOL   C46117331   1.744   2.297   7.582 -0.4252  0.0985  0.1238
   36MOL   C46217332   1.830   2.418   7.601 -0.6022  1.0766  0.0945
   36MOL   O46317333   1.737   2.520   7.607 -0.0290  0.8452 -0.4620
   36MOL   C46417334   1.767   2.638   7.560 -0.3219 -0.6001 -0.2987
   36MOL   O46517335   1.870   2.679   7.508 -0.0816  0.3468  0.5329
   36MOL   C46617336   1.656   2.746   7.587  0.0347  0.3031 -0.4676
   36MOL   C46717337   1.528   2.732   7.506 -0.0736 -0.8211  0.5230
   36MOL   C46817338   1.412   2.668   7.587  0.1502 -1.1434  0.1653
   36MOL   O46917339   1.413   2.544   7.622 -0.1336 -0.6142  0.6876
   36MOL   H47017340   1.632   2.078   7.603  2.1808  2.5571  0.0625
   36MOL   H47117341   1.492   2.187   7.596  1.6798  2.9398 -1.0891
   36MOL   H47217342   1.712   2.238   7.797  0.3098  2.1094  1.0182
   36MOL   H47317343   1.584   2.335   7.717  1.0417  0.5419 -0.5981
   36MOL   H47417344   1.680   2.301   7.494  0.2206  1.1653 -0.2954
   36MOL   H47517345   1.814   2.221   7.548 -0.6382  0.4171 -1.0279
   36MOL   H47617346   1.880   2.419   7.698 -1.2883 -1.5987  0.5010
   36MOL   H47717347   1.900   2.421   7.518  0.4234  0.0084  0.9143
   36MOL   H47817348   1.695   2.843   7.556 -1.0678 -0.1797 -3.4348
   36MOL   H47917349   1.637   2.742   7.694  0.5140 -1.2671 -0.4256
   36MOL   H48017350   1.492   2.830   7.476 -0.6619 -0.6897  1.6208
   36MOL   H48117351   1.560   2.673   7.420  1.1810  1.1988 -0.4249
   36MOL   H48217352   1.331   2.735   7.615  1.4832  2.2252 -3.5601
   37MOL     O117353   4.227   1.799   1.023 -0.0010 -0.0809 -0.1554
   37MOL     C217354   4.317   1.706   1.066  0.4443 -0.1185 -0.2385
   37MOL     C317355   4.293   1.666   1.213  0.5480  0.2740  0.2362
   37MOL     C417356   4.155   1.605   1.231  0.1832 -0.4222 -0.4197
   37MOL     C517357   4.148   1.461   1.193 -0.0030 -0.3734  0.9141
   37MOL     O617358   4.204   1.373   1.288 -0.5643 -0.2552 -0.8012
   37MOL     C717359   4.170   1.245   1.294  0.0411  0.9326 -0.1830
   37MOL     O817360   4.108   1.182   1.208  0.3191  0.0079 -0.3090
   37MOL     C917361   4.219   1.175   1.418  0.2839  0.1327  0.0334
   37MOL    C1017362   4.270   1.036   1.394  0.1068 -0.2425  0.3372
   37MOL    C1117363   4.202   0.941   1.493 -0.0747  0.8578 -0.0512
   37MOL    O1217364   4.115   0.860   1.450  0.3282  0.3590  0.3200
   37MOL    H1317365   4.307   1.618   1.001  1.6244 -1.7306  1.6853
   37MOL    H1417366   4.422   1.735   1.068  0.1290  0.9954  0.3791
   37MOL    H1517367   4.310   1.756   1.273  0.2590  0.6936 -0.3117
   37MOL    H1617368   4.374   1.603   1.249  0.1970  0.3610  1.2133
   37MOL    H1717369   4.078   1.652   1.170  0.3794 -1.3900 -1.4326
   37MOL    H1817370   4.123   1.607   1.335 -0.7456  0.6985 -0.7207
   37MOL    H1917371   4.041   1.440   1.183 -0.4794  1.9977  0.6910
   37MOL    H2017372   4.190   1.447   1.093 -0.3286  0.2688  0.6768
   37MOL    H2117373   4.130   1.162   1.481 -0.1488  1.4395 -0.2962
   37MOL    H2217374   4.290   1.233   1.478 -0.8553 -0.5509  2.1135
   37MOL    H2317375   4.249   1.002   1.293 -1.3459  0.2171  0.4823
   37MOL    H2417376   4.379   1.035   1.402  0.0994 -0.8476  0.3820
   37MOL    H2517377   4.277   1.874   0.996  0.8057 -0.0823  1.2991
   37MOL    O2617378   4.253   0.946   1.618 -0.1814 -0.2216  0.3617
   37MOL    C2717379   4.204   0.861   1.717 -0.4768 -0.3790  0.1498
   37MOL    C2817380   4.315   0.785   1.790 -0.8567 -0.0672 -0.1438
   37MOL    C2917381   4.430   0.744   1.694  0.1162  0.3330 -0.5273
   37MOL    C3017382   4.538   0.669   1.766  0.5167  0.1927  0.0243
   37MOL    O3117383   4.645   0.651   1.681  0.0844  0.0175 -0.2645
   37MOL    C3217384   4.634   0.569   1.567  0.5350 -0.3839 -0.3988
   37MOL    O3317385   4.536   0.502   1.539 -0.1144  0.1211  0.2571
   37MOL    C3417386   4.755   0.566   1.473  0.5905  0.1671 -0.4656
   37MOL    C3517387   4.884   0.532   1.543  0.2419  0.2685 -0.5407
   37MOL    C3617388   4.969   0.659   1.555  0.7684 -0.3322  0.7067
   37MOL    O3717389   4.923   0.773   1.537  0.1399 -0.1984 -0.3629
   37MOL    H3817390   4.160   0.926   1.793 -1.1026  1.4502 -1.7040
   37MOL    H3917391   4.110   0.811   1.691 -1.3320  1.6275 -0.7550
   37MOL    H4017392   4.276   0.695   1.839 -0.2630  1.9791  4.2957
   37MOL    H4117393   4.373   0.844   1.860 -1.6420  1.3253 -0.6517
   37MOL    H4217394   4.471   0.823   1.630  0.3166  0.4535 -0.2496
   37MOL    H4317395   4.385   0.669   1.629  0.1724 -0.2537  0.1136
   37MOL    H4417396   4.574   0.742   1.838 -1.0459  1.0566 -0.0305
   37MOL    H4517397   4.515   0.577   1.820  0.6873  0.0015 -0.2252
   37MOL    H4617398   4.753   0.664   1.424  0.5180  1.6934  2.4897
   37MOL    H4717399   4.745   0.503   1.385  0.6948 -0.2443 -0.1804
   37MOL    H4817400   4.868   0.479   1.637 -0.9772  0.1169 -0.8277
   37MOL    H4917401   4.948   0.465   1.485 -0.1814 -0.5000 -0.1374
   37MOL    O5017402   5.093   0.628   1.584 -0.0783  0.4816 -0.3361
   37MOL    C5117403   5.192   0.737   1.602  0.1127 -0.2661  0.2856
   37MOL    C5217404   5.289   0.730   1.485 -0.1666 -0.1860  0.7380
   37MOL    C5317405   5.223   0.754   1.354  0.4375  0.1568 -0.4976
   37MOL    C5417406   5.322   0.793   1.251  0.1174  0.2869 -0.4314
   37MOL    O5517407   5.262   0.786   1.119 -0.4552  0.1031  0.6432
   37MOL    C5617408   5.270   0.889   1.031 -0.0436  0.2288  0.5177
   37MOL    O5717409   5.325   0.993   1.059 -0.3896 -0.1146  0.0424
   37MOL    C5817410   5.215   0.849   0.889 -0.5408 -0.1030  0.2155
   37MOL    C5917411   5.329   0.804   0.802  0.1109  0.3537  0.6563
   37MOL    C6017412   5.404   0.922   0.737 -0.2007 -0.0305  0.4954
   37MOL    O6117413   5.525   0.918   0.734 -0.1722  0.8315 -0.0347
   37MOL    H6217414   5.145   0.835   1.588  0.3211 -0.3365 -1.0079
   37MOL    H6317415   5.226   0.731   1.705 -1.2048  0.9684  0.8092
   37MOL    H6417416   5.337   0.633   1.486 -0.3182 -0.3209 -1.6576
   37MOL    H6517417   5.370   0.802   1.493 -2.4115  2.1971  3.1343
   37MOL    H6617418   5.146   0.828   1.374  1.6332  1.4187 -0.4111
   37MOL    H6717419   5.173   0.662   1.325 -1.2463  1.5814 -2.2159
   37MOL    H6817420   5.360   0.894   1.268 -0.5496 -0.0380  3.4639
   37MOL    H6917421   5.404   0.722   1.241 -0.0285  0.5410 -4.2364
   37MOL    H7017422   5.164   0.932   0.841 -0.5020 -0.2945 -0.1567
   37MOL    H7117423   5.146   0.765   0.890  0.3103 -0.9578 -3.6039
   37MOL    H7217424   5.388   0.729   0.854  0.0181  0.1254  0.4273
   37MOL    H7317425   5.298   0.744   0.717 -1.7958  0.3376  1.3407
   37MOL    O7417426   5.330   1.028   0.705  0.1502  0.1550 -0.0392
   37MOL    C7517427   5.394   1.140   0.645 -0.0299  0.0539  0.0129
   37MOL    C7617428   5.428   1.249   0.746  0.4602  0.0341  0.2235
   37MOL    C7717429   5.557   1.230   0.831 -0.0195 -0.1746  0.3435
   37MOL    C7817430   5.590   1.343   0.928  0.1284  0.8341 -1.0118
   37MOL    O7917431   5.633   1.459   0.866 -1.1637 -0.0585 -0.2904
   37MOL    C8017432   5.644   1.568   0.950  0.0349 -0.1471 -0.3434
   37MOL    O8117433   5.622   1.576   1.076  0.2172 -0.4871 -0.0639
   37MOL    C8217434   5.680   1.693   0.877  0.3658  0.1115  0.4326
   37MOL    C8317435   5.724   1.819   0.963 -0.0311 -0.0367  0.7922
   37MOL    C8417436   5.604   1.911   1.012 -0.4726 -0.0170  0.3127
   37MOL    O8517437   5.492   1.897   0.972 -0.1837  0.0294 -0.2347
   37MOL    H8617438   5.489   1.111   0.600  1.3917 -0.5025  3.2425
   37MOL    H8717439   5.337   1.172   0.558 -0.9929 -0.5597  0.4126
   37MOL    H8817440   5.345   1.274   0.812  0.7317 -1.5428  1.1836
   37MOL    H8917441   5.464   1.334   0.687  2.3402  0.5947  2.1308
   37MOL    H9017442   5.639   1.204   0.764  0.6399  2.7936 -0.0819
   37MOL    H9117443   5.533   1.142   0.891 -0.0496 -2.0967 -2.3997
   37MOL    H9217444   5.497   1.357   0.984  2.4448  2.4293  2.5748
   37MOL    H9317445   5.662   1.305   1.000 -0.5636 -0.6693 -1.0906
   37MOL    H9417446   5.593   1.725   0.820 -1.0605 -0.3515  2.3098
   37MOL    H9517447   5.757   1.678   0.801  0.9775  1.7879  0.7063
   37MOL    H9617448   5.797   1.795   1.039  1.6060 -0.9997 -1.0444
   37MOL    H9717449   5.767   1.889   0.891 -1.2419  1.1701  1.2366
   37MOL    O9817450   5.636   2.006   1.101  0.2339  0.0865  0.9064
   37MOL    C9917451   5.546   2.073   1.187  0.4689  0.1704 -0.6688
   37MOL   C10017452   5.536   1.995   1.321  0.1183 -0.0420  0.2984
   37MOL   C10117453   5.680   1.972   1.378  0.3080  0.5689  0.6522
   37MOL   C10217454   5.685   1.925   1.523  0.3827  0.0792 -0.1771
   37MOL   O10317455   5.818   1.908   1.571  0.1700  0.0748 -0.0128
   37MOL   C10417456   5.844   1.827   1.668 -0.3483 -0.7244  0.8538
   37MOL   O10517457   5.771   1.736   1.714  0.0724  0.1822  0.3294
   37MOL   C10617458   5.990   1.832   1.710  0.5512  0.1813 -0.1161
   37MOL   C10717459   6.024   1.962   1.796  0.9972  0.2044 -0.3361
   37MOL   C10817460   5.915   2.068   1.816 -0.4077 -0.4716 -0.0485
   37MOL   O10917461   5.867   2.083   1.930 -0.3775  0.3031  1.2387
   37MOL   H11017462   5.573   2.178   1.194  0.9057 -0.0443  1.0893
   37MOL   H11117463   5.444   2.077   1.150  0.1636 -0.0653  0.1510
   37MOL   H11217464   5.495   1.897   1.300  0.3896  0.3527 -2.2566
   37MOL   H11317465   5.469   2.040   1.395  1.1117 -1.4963  2.1314
   37MOL   H11417466   5.724   2.071   1.366 -0.0829  0.8882  1.7641
   37MOL   H11517467   5.728   1.894   1.318  0.5090  0.7534  0.5737
   37MOL   H11617468   5.633   1.988   1.595  1.5156  0.7412  0.0650
   37MOL   H11717469   5.625   1.834   1.530  0.9372 -0.5458 -3.0461
   37MOL   H11817470   6.046   1.835   1.617 -1.0474  1.9305 -1.0605
   37MOL   H11917471   6.009   1.739   1.764 -0.9139 -0.4592 -0.7052
   37MOL   H12017472   6.050   1.927   1.896  1.0835 -0.4624 -0.5921
   37MOL   H12117473   6.108   2.019   1.757 -0.2105  1.8786 -0.5771
   37MOL   O12217474   5.883   2.150   1.714 -0.1077 -0.0079 -0.1314
   37MOL   C12317475   5.804   2.269   1.742 -0.2455  0.6197  0.2327
   37MOL   C12417476   5.853   2.382   1.647 -0.0208 -0.2895  0.6905
   37MOL   C12517477   5.783   2.520   1.671 -0.0018  0.0972 -0.4905
   37MOL   C12617478   5.841   2.632   1.577 -0.2326 -0.9560 -0.1701
   37MOL   O12717479   5.959   2.674   1.647 -0.5093  0.1407  0.1318
   37MOL   C12817480   5.959   2.793   1.709 -1.2756  0.3123 -0.0317
   37MOL   O12917481   5.863   2.871   1.727 -0.4014 -0.7714 -0.0346
   37MOL   C13017482   6.091   2.832   1.770 -0.0042 -0.1923  0.2323
   37MOL   C13117483   6.178   2.901   1.661 -0.0922  0.1815  0.2334
   37MOL   C13217484   6.207   3.045   1.711 -0.0226  0.0020 -0.1096
   37MOL   O13317485   6.133   3.142   1.688  0.0655 -0.5501  0.9232
   37MOL   H13417486   5.700   2.251   1.714  0.2922  1.9771 -2.8951
   37MOL   H13517487   5.823   2.299   1.844  3.0129  0.9179 -0.4132
   37MOL   H13617488   5.844   2.347   1.545 -0.2339  1.1622  0.2044
   37MOL   H13717489   5.961   2.389   1.666  0.0597  0.2123  0.0701
   37MOL   H13817490   5.795   2.547   1.776  1.5294 -2.3225 -0.0240
   37MOL   H13917491   5.677   2.503   1.653 -0.4985  1.3145  1.1310
   37MOL   H14017492   5.869   2.599   1.477  1.1531  0.7839 -0.3863
   37MOL   H14117493   5.770   2.714   1.567  0.3510 -0.3664  0.4653
   37MOL   H14217494   6.145   2.745   1.806 -0.2987 -0.8405 -0.8745
   37MOL   H14317495   6.066   2.900   1.852 -0.4822 -0.5454  0.3833
   37MOL   H14417496   6.275   2.851   1.659 -0.5996 -0.7579 -1.7036
   37MOL   H14517497   6.139   2.897   1.560  0.6018 -0.0627 -0.0246
   37MOL   O14617498   6.325   3.051   1.779  0.5441 -0.4895 -0.6765
   37MOL   C14717499   6.372   3.168   1.826 -0.1181 -1.0519  0.3659
   37MOL   C14817500   6.479   3.152   1.928  0.3665  0.9192 -0.5031
   37MOL   C14917501   6.440   3.118   2.073  0.0479  0.1066 -0.4159
   37MOL   C15017502   6.344   2.998   2.086  0.2845 -0.5725  0.3842
   37MOL   O15117503   6.297   2.974   2.215  0.4393  0.1061 -0.2727
   37MOL   C15217504   6.214   2.873   2.234  0.2938 -0.2395  0.5878
   37MOL   O15317505   6.166   2.794   2.148  0.0639 -0.0291 -0.0478
   37MOL   C15417506   6.181   2.863   2.380 -0.7344 -0.2121  0.0959
   37MOL   C15517507   6.263   2.760   2.458 -0.7408 -0.3291 -0.2585
   37MOL   C15617508   6.212   2.618   2.436 -0.2462  0.2712  1.0298
   37MOL   O15717509   6.120   2.563   2.503  0.2058  0.1210  0.1791
   37MOL   H15817510   6.411   3.227   1.742  0.1603 -0.9724  0.5493
   37MOL   H15917511   6.287   3.225   1.862 -0.1881 -0.8254 -0.1504
   37MOL   H16017512   6.539   3.242   1.933  1.3464  0.1354  3.9066
   37MOL   H16117513   6.541   3.076   1.880  0.9973  1.9195 -1.2913
   37MOL   H16217514   6.402   3.213   2.108  3.3375  0.5242  2.3161
   37MOL   H16317515   6.535   3.105   2.126  0.0282 -0.1321 -0.4357
   37MOL   H16417516   6.249   3.011   2.034 -0.7859 -2.6238  1.7361
   37MOL   H16517517   6.387   2.906   2.048  1.0152  1.0419 -2.8610
   37MOL   H16617518   6.073   2.847   2.383 -0.5742 -1.1557  0.9432
   37MOL   H16717519   6.186   2.963   2.424 -0.8067 -0.5663  0.9166
   37MOL   H16817520   6.369   2.762   2.433 -0.2379 -2.6269  1.4956
   37MOL   H16917521   6.255   2.784   2.564 -3.0541  0.8832 -0.6603
   37MOL   O17017522   6.289   2.561   2.342 -0.4703  0.1702 -0.0076
   37MOL   C17117523   6.271   2.422   2.319  0.4779 -0.1186 -0.4894
   37MOL   C17217524   6.151   2.389   2.228 -0.5849  0.5795 -0.3759
   37MOL   C17317525   6.161   2.452   2.084  0.1911  1.0148 -0.2246
   37MOL   C17417526   6.075   2.376   1.977 -0.0523 -0.5119  0.7535
   37MOL   O17517527   6.111   2.438   1.857 -0.4275 -0.4021  0.2474
   37MOL   C17617528   6.222   2.396   1.791 -0.5607  0.4260 -0.2199
   37MOL   O17717529   6.307   2.310   1.830 -0.0094  0.6123 -0.4891
   37MOL   C17817530   6.239   2.451   1.652  0.2962 -0.6384 -0.1764
   37MOL   C17917531   6.322   2.357   1.557  0.7514 -0.4410 -0.1545
   37MOL   C18017532   6.241   2.269   1.468 -0.3021 -0.1629 -0.7194
   37MOL   O18117533   6.274   2.152   1.456 -0.0692  0.0469 -0.3601
   37MOL   H18217534   6.363   2.380   2.278  0.6945  0.8009 -0.9347
   37MOL   H18317535   6.258   2.371   2.415 -1.2046 -0.5105 -0.9022
   37MOL   H18417536   6.065   2.422   2.287  0.3573  3.5508 -0.5801
   37MOL   H18517537   6.144   2.280   2.222  2.0905  0.4105 -0.8847
   37MOL   H18617538   6.264   2.435   2.054 -0.5452  0.6856 -2.6666
   37MOL   H18717539   6.130   2.555   2.103 -0.5068  0.6388  0.7426
   37MOL   H18817540   6.094   2.269   1.970  0.6311 -0.2846 -1.0909
   37MOL   H18917541   5.971   2.392   2.006 -0.3184  3.7665 -2.1500
   37MOL   H19017542   6.281   2.551   1.656 -1.5816  0.1224  0.6725
   37MOL   H19117543   6.146   2.478   1.602  0.8270 -0.2464 -0.9768
   37MOL   H19217544   6.383   2.404   1.480 -2.4997  0.6006 -2.1790
   37MOL   H19317545   6.393   2.294   1.612  0.5499 -0.3020  0.2641
   37MOL   O19417546   6.150   2.329   1.402  0.0125  0.1300 -0.4892
   37MOL   C19517547   6.054   2.263   1.331  0.4239 -0.0968  0.2708
   37MOL   C19617548   5.957   2.359   1.259 -0.3483 -0.3248 -0.1015
   37MOL   C19717549   5.870   2.282   1.163 -0.6037 -0.9312  0.0702
   37MOL   C19817550   5.814   2.369   1.059 -0.2010 -0.1810  0.5110
   37MOL   O19917551   5.744   2.477   1.113 -0.3422  0.2572  0.2027
   37MOL   C20017552   5.610   2.491   1.102  0.9405  0.2434  0.0056
   37MOL   O20117553   5.535   2.421   1.036  1.1098  0.8418 -0.2901
   37MOL   C20217554   5.562   2.603   1.189  0.5266 -0.3772 -0.3727
   37MOL   C20317555   5.426   2.580   1.265  0.0775  0.0344  0.4468
   37MOL   C20417556   5.457   2.487   1.385 -0.2773  0.4315  0.0295
   37MOL   O20517557   5.565   2.439   1.407 -0.1893  0.4759 -0.3538
   37MOL   H20617558   6.096   2.190   1.262 -0.1879 -3.1066  2.9437
   37MOL   H20717559   6.004   2.200   1.405  1.2540 -2.0632 -0.7832
   37MOL   H20817560   6.009   2.436   1.203  0.0949 -1.8761 -1.8839
   37MOL   H20917561   5.895   2.411   1.332 -1.7588 -2.6408  0.4191
   37MOL   H21017562   5.798   2.219   1.215 -1.7260 -0.4241 -0.8386
   37MOL   H21117563   5.934   2.212   1.109  1.5940  1.0438  0.0207
   37MOL   H21217564   5.883   2.403   0.983 -1.1665 -0.0882 -0.3355
   37MOL   H21317565   5.733   2.312   1.013  0.3569  1.0604 -2.0765
   37MOL   H21417566   5.539   2.684   1.120 -1.1634 -0.6158 -0.1179
   37MOL   H21517567   5.640   2.624   1.263 -2.3933  1.1962  2.3640
   37MOL   H21617568   5.392   2.673   1.309  0.3892  0.9491 -1.1923
   37MOL   H21717569   5.348   2.548   1.197  0.1340 -2.3060  1.4608
   37MOL   O21817570   5.341   2.455   1.452 -0.2579 -0.3964  0.3649
   37MOL   C21917571   5.342   2.370   1.565 -0.0544 -0.0801  0.1023
   37MOL   C22017572   5.206   2.298   1.592  0.0182  0.2743  0.1971
   37MOL   C22117573   5.083   2.390   1.581 -0.3610 -0.2924  1.1572
   37MOL   C22217574   4.955   2.329   1.630  0.5829 -0.0080  0.4148
   37MOL   O22317575   4.844   2.414   1.639 -0.4748  0.0242  0.2548
   37MOL   C22417576   4.779   2.446   1.526  0.5154 -0.0188  0.6961
   37MOL   O22517577   4.818   2.401   1.416 -0.3782  0.0654  0.5333
   37MOL   C22617578   4.670   2.550   1.547 -0.2132  0.3420 -0.2019
   37MOL   C22717579   4.627   2.617   1.420  0.5533 -0.4438  0.2445
   37MOL   C22817580   4.480   2.596   1.386  0.0196 -0.5321  0.1704
   37MOL   O22917581   4.450   2.497   1.321 -0.5669  0.2606 -0.6911
   37MOL   H23017582   5.413   2.288   1.554  0.1279  0.1186 -0.2096
   37MOL   H23117583   5.378   2.412   1.659  0.1011 -0.6289  0.2913
   37MOL   H23217584   5.210   2.246   1.688  1.7631 -2.2719 -1.1920
   37MOL   H23317585   5.199   2.219   1.517  3.1299  1.3168 -1.2723
   37MOL   H23417586   5.068   2.440   1.486  0.3423 -0.8021  0.7769
   37MOL   H23517587   5.103   2.474   1.649  1.6681 -0.4144  0.7523
   37MOL   H23617588   4.930   2.244   1.566 -0.9728  0.5896  0.2251
   37MOL   H23717589   4.972   2.284   1.727  0.3726 -0.7276  0.1246
   37MOL   H23817590   4.714   2.623   1.614 -1.8297  0.8744  0.2875
   37MOL   H23917591   4.592   2.494   1.600 -0.9747 -1.0262 -2.6766
   37MOL   H24017592   4.642   2.724   1.431  1.0607 -0.5605  0.6631
   37MOL   H24117593   4.689   2.595   1.332  0.8425  1.9958 -0.1929
   37MOL   O24217594   4.399   2.690   1.430 -0.0130  1.0315 -0.0868
   37MOL   C24317595   4.259   2.685   1.400  0.4180 -0.9337  0.3607
   37MOL   C24417596   4.198   2.590   1.511  0.1217  0.0710  0.4165
   37MOL   C24517597   4.238   2.624   1.658 -0.0141  0.6892 -1.0658
   37MOL   C24617598   4.204   2.510   1.762  0.3807 -0.1335  0.3420
   37MOL   O24717599   4.075   2.461   1.745 -0.2950  0.5686  0.2933
   37MOL   C24817600   3.968   2.515   1.810 -1.1930  0.4197 -0.2264
   37MOL   O24917601   3.967   2.618   1.883 -1.0280  0.0597 -0.3466
   37MOL   C25017602   3.844   2.430   1.806  0.4014  0.1677 -0.2744
   37MOL   C25117603   3.882   2.279   1.835 -0.0921 -0.3437  0.0440
   37MOL   C25217604   3.770   2.186   1.798  0.2344  0.2270  0.5404
   37MOL   O25317605   3.664   2.227   1.744  0.2548  0.1579  0.1678
   37MOL   H25417606   4.215   2.784   1.416 -0.4166 -1.2817  0.1911
   37MOL   H25517607   4.248   2.651   1.297 -2.6705  0.5914  0.1233
   37MOL   H25617608   4.225   2.486   1.492 -0.5616  0.0516 -0.4755
   37MOL   H25717609   4.090   2.594   1.506  0.0050 -0.9420  1.9810
   37MOL   H25817610   4.195   2.722   1.680 -2.6542 -0.9344  1.2328
   37MOL   H25917611   4.344   2.649   1.668 -0.3230  2.3254 -1.6394
   37MOL   H26017612   4.273   2.427   1.749 -1.0097 -1.2145 -0.2431
   37MOL   H26117613   4.221   2.551   1.862  1.0489 -1.0813  0.6218
   37MOL   H26217614   3.804   2.437   1.704 -1.3944  1.8018  0.5136
   37MOL   H26317615   3.765   2.477   1.865  0.7885 -1.0198  1.2083
   37MOL   H26417616   3.962   2.251   1.767  0.8256 -1.2273  1.4772
   37MOL   H26517617   3.924   2.261   1.934 -0.1860 -3.7128 -0.4569
   37MOL   O26617618   3.793   2.059   1.827 -0.1761  0.0305 -0.6367
   37MOL   C26717619   3.691   1.959   1.801  0.6244  0.0320  0.1397
   37MOL   C26817620   3.747   1.817   1.818 -0.0937  0.7434  0.1846
   37MOL   C26917621   3.766   1.780   1.959  0.0627  0.0194  0.2653
   37MOL   C27017622   3.786   1.635   1.988 -0.5751  0.1724  0.2096
   37MOL   O27117623   3.803   1.615   2.124  0.0512 -0.2555 -0.4169
   37MOL   C27217624   3.701   1.606   2.212 -0.1761  0.1744  0.0911
   37MOL   O27317625   3.583   1.617   2.184  0.0880 -0.3036 -0.5838
   37MOL   C27417626   3.746   1.561   2.351  0.3161 -0.8199 -0.2978
   37MOL   C27517627   3.726   1.413   2.366 -0.0354  0.6242 -0.2388
   37MOL   C27617628   3.829   1.334   2.295 -0.2772 -0.0625 -0.4242
   37MOL   O27717629   3.924   1.389   2.241  0.1793 -0.3850  0.6031
   37MOL   H27817630   3.607   1.980   1.867  1.6918  0.8204  1.2767
   37MOL   H27917631   3.649   1.969   1.701 -0.8107 -0.6552  0.6613
   37MOL   H28017632   3.844   1.804   1.770 -0.2343  1.0227 -0.1850
   37MOL   H28117633   3.669   1.750   1.781 -0.1037  0.7680  0.1611
   37MOL   H28217634   3.672   1.807   2.008 -1.9241 -2.1556 -2.1916
   37MOL   H28317635   3.851   1.835   1.998 -0.7146  0.7508  0.9691
   37MOL   H28417636   3.689   1.592   1.964  0.2317 -1.6374  0.1457
   37MOL   H28517637   3.874   1.600   1.935  1.0538 -0.1365  3.0264
   37MOL   H28617638   3.687   1.613   2.426  0.2526 -0.8313 -0.3401
   37MOL   H28717639   3.849   1.594   2.368 -0.1973  1.4363 -1.3823
   37MOL   H28817640   3.736   1.378   2.469 -1.2284  0.1754 -0.2740
   37MOL   H28917641   3.626   1.389   2.331 -0.2030 -0.2982  0.8458
   37MOL   O29017642   3.794   1.200   2.290  0.0719 -0.1112  0.3834
   37MOL   C29117643   3.879   1.118   2.210  0.2622 -0.1058 -0.2409
   37MOL   C29217644   3.822   1.098   2.066  0.0762 -0.9242  0.2543
   37MOL   C29317645   3.689   1.019   2.051 -0.7439 -0.3393  0.5161
   37MOL   C29417646   3.715   0.898   1.959  0.8006 -0.3942 -0.1446
   37MOL   O29517647   3.799   0.799   2.025 -0.6356  0.3239 -0.3399
   37MOL   C29617648   3.901   0.740   1.958  0.5003 -0.0487 -0.4227
   37MOL   O29717649   3.921   0.759   1.842 -0.2185  0.1341  0.1596
   37MOL   C29817650   3.994   0.647   2.031  1.0063  0.1127 -0.1346
   37MOL   C29917651   4.011   0.679   2.183 -0.0941 -0.7373 -0.0480
   37MOL   C30017652   4.132   0.771   2.209 -0.1368 -0.1674 -0.7021
   37MOL   O30117653   4.109   0.890   2.219 -0.5101 -0.3051 -0.0979
   37MOL   H30217654   3.977   1.167   2.205 -0.4045  1.2719 -0.0392
   37MOL   H30317655   3.894   1.018   2.252  0.2864 -1.4130 -3.2500
   37MOL   H30417656   3.902   1.045   2.014  0.4721 -2.6195  2.5251
   37MOL   H30517657   3.807   1.193   2.014  0.6996 -1.6899 -1.3749
   37MOL   H30617658   3.614   1.079   2.000 -1.1233 -1.9600 -0.8874
   37MOL   H30717659   3.660   0.983   2.150  1.8100 -1.9532  0.7149
   37MOL   H30817660   3.614   0.860   1.946  0.3774  0.7123 -0.1055
   37MOL   H30917661   3.746   0.924   1.858 -0.9595 -1.5938 -1.0157
   37MOL   H31017662   4.093   0.639   1.986 -0.0724 -1.4153 -2.2639
   37MOL   H31117663   3.942   0.552   2.035  2.2133 -0.6552 -2.0682
   37MOL   H31217664   3.922   0.733   2.214  1.1099  0.9186  0.6180
   37MOL   H31317665   4.043   0.598   2.249  0.7303  0.0745  0.5601
   37MOL   O31417666   4.247   0.703   2.219  0.6869  0.3034  0.4109
   37MOL   C31517667   4.356   0.751   2.281 -0.1992 -0.7001  0.5605
   37MOL   C31617668   4.435   0.856   2.192  0.6589 -0.3474  0.4406
   37MOL   C31717669   4.568   0.907   2.261  0.1613 -0.5930 -0.0878
   37MOL   C31817670   4.634   0.997   2.156  0.1391 -0.0237  0.8772
   37MOL   O31917671   4.706   0.912   2.059  0.0678  0.1515 -0.3862
   37MOL   C32017672   4.804   0.960   1.983  0.3123  0.0985 -0.5472
   37MOL   O32117673   4.845   1.080   1.987 -0.1544  0.3958  0.3705
   37MOL   C32217674   4.850   0.858   1.879 -0.3045  0.2215  0.0832
   37MOL   C32317675   4.905   0.736   1.952  0.1307 -0.8312  0.2327
   37MOL   C32417676   5.061   0.733   1.958  0.3194 -0.5677  0.2593
   37MOL   O32517677   5.133   0.830   1.920 -0.0869  0.8548  0.7715
   37MOL   H32617678   4.334   0.801   2.376 -2.1984 -0.0901 -0.1828
   37MOL   H32717679   4.409   0.665   2.320  1.0190  0.6014  1.8322
   37MOL   H32817680   4.381   0.945   2.159 -0.7013 -1.1168  0.5184
   37MOL   H32917681   4.460   0.812   2.095 -0.2903  1.8644 -0.8586
   37MOL   H33017682   4.638   0.825   2.279  0.0522 -0.8093 -0.6248
   37MOL   H33117683   4.546   0.971   2.346 -1.1140  0.4556 -1.1785
   37MOL   H33217684   4.563   1.057   2.099  0.6657 -0.0765  0.1523
   37MOL   H33317685   4.707   1.069   2.191  0.4347  0.5743 -0.8953
   37MOL   H33417686   4.926   0.896   1.810  0.5448 -2.6746 -0.6430
   37MOL   H33517687   4.760   0.835   1.822 -0.5273  0.0650  0.4989
   37MOL   H33617688   4.874   0.733   2.057 -1.4625 -1.1898 -0.2338
   37MOL   H33717689   4.865   0.646   1.906 -1.9851  1.3215 -2.3091
   37MOL   O33817690   5.104   0.613   1.992  0.5793  0.4279  0.1759
   37MOL   C33917691   5.244   0.597   2.026  0.0388  0.1750  0.0225
   37MOL   C34017692   5.270   0.644   2.169  0.9119  0.4240 -0.1961
   37MOL   C34117693   5.414   0.620   2.206 -0.0960  0.1989 -0.1139
   37MOL   C34217694   5.432   0.639   2.358 -0.1698  0.2629 -0.0486
   37MOL   O34317695   5.419   0.511   2.422  0.2627 -0.3411 -0.2422
   37MOL   C34417696   5.531   0.442   2.434 -0.1773  0.3622 -0.3140
   37MOL   O34517697   5.647   0.477   2.427 -0.5056  0.0957  0.6539
   37MOL   C34617698   5.501   0.289   2.438  0.1846  0.3275 -0.2009
   37MOL   C34717699   5.450   0.237   2.304  0.1617  0.1420  0.3896
   37MOL   C34817700   5.527   0.245   2.172 -0.3625  0.1716  0.6073
   37MOL   O34917701   5.476   0.283   2.066  0.3320 -0.1066 -0.4142
   37MOL   H35017702   5.262   0.489   2.027 -3.0873 -0.4010  0.9907
   37MOL   H35117703   5.307   0.646   1.953 -0.8462  1.5252  0.1327
   37MOL   H35217704   5.218   0.577   2.238  1.2843  1.3298  0.9915
   37MOL   H35317705   5.243   0.747   2.190  0.1029  0.8342 -3.0850
   37MOL   H35417706   5.478   0.695   2.161 -0.1561  0.6327  0.5162
   37MOL   H35517707   5.460   0.526   2.174  1.7269  0.4129  1.7621
   37MOL   H35617708   5.520   0.697   2.385  0.5087 -1.3688  1.4074
   37MOL   H35717709   5.348   0.700   2.392  0.3081  0.9574 -0.1232
   37MOL   H35817710   5.423   0.274   2.512  0.2869  1.2389  0.0924
   37MOL   H35917711   5.592   0.249   2.483  0.7659  0.0954 -1.5524
   37MOL   H36017712   5.414   0.135   2.319 -0.1258  0.0991 -0.5827
   37MOL   H36117713   5.362   0.296   2.276 -0.0368 -0.4824 -0.3130
   37MOL   O36217714   5.659   0.207   2.196 -0.1853 -0.2123  0.4561
   37MOL   C36317715   5.759   0.247   2.098 -0.3052  0.0703  0.2913
   37MOL   C36417716   5.785   0.138   1.990 -0.0477  0.7218  0.1500
   37MOL   C36517717   5.900   0.179   1.897 -0.5319 -0.3506  0.5043
   37MOL   C36617718   5.952   0.074   1.805  0.3077  0.2018  0.2898
   37MOL   O36717719   6.074   0.120   1.743  0.9418  0.2809  0.2493
   37MOL   C36817720   6.061   0.190   1.630  0.1018 -0.3359 -0.4543
   37MOL   O36917721   5.956   0.230   1.578  0.3083  0.0032 -0.7433
   37MOL   C37017722   6.191   0.226   1.563  0.6029  0.1159 -0.2810
   37MOL   C37117723   6.283   0.114   1.553 -0.6077 -1.1434  0.6220
   37MOL   C37217724   6.255   0.018   1.432 -0.0022 -0.0802 -0.3235
   37MOL   O37317725   6.290   0.039   1.313  0.1098 -0.1216  0.5501
   37MOL   H37417726   5.735   0.340   2.047  0.3720  0.0332 -0.1005
   37MOL   H37517727   5.861   0.262   2.135  0.3806  0.5833 -1.7248
   37MOL   H37617728   5.702   0.118   1.922  0.2254  1.1475 -0.3143
   37MOL   H37717729   5.807   0.044   2.041 -0.5697  0.3206 -0.3569
   37MOL   H37817730   5.984   0.226   1.948  0.3754  0.0444 -1.2914
   37MOL   H37917731   5.856   0.250   1.827  0.0386  0.9861  1.4782
   37MOL   H38017732   5.977   7.857   1.859 -1.7157 -0.7001 -0.2554
   37MOL   H38117733   5.881   0.046   1.728  0.6254  0.2706 -0.0279
   37MOL   H38217734   6.227   0.297   1.638 -0.2916 -0.8994  1.1319
   37MOL   H38317735   6.165   0.272   1.468 -1.4459  1.8340  1.0526
   37MOL   H38417736   6.386   0.151   1.556 -2.0404  3.0965  0.1320
   37MOL   H38517737   6.273   0.049   1.639 -0.3860 -0.3552  1.2449
   37MOL   O38617738   6.192   7.787   1.475 -0.1518 -0.0428  0.3345
   37MOL   C38717739   6.191   7.666   1.401 -0.6577 -0.2721  0.1024
   37MOL   C38817740   6.049   7.599   1.426 -0.3079 -0.5487 -0.4120
   37MOL   C38917741   5.938   7.692   1.381 -0.7902  0.0431  0.3049
   37MOL   C39017742   5.819   7.612   1.346 -0.3284 -0.1444 -0.2177
   37MOL   O39117743   5.734   7.684   1.258  0.0227  0.2489  0.1332
   37MOL   C39217744   5.649   7.786   1.298  0.4913  0.0294  0.4203
   37MOL   O39317745   5.633   7.834   1.409 -0.5690 -0.6898 -0.1679
   37MOL   C39417746   5.555   7.839   1.186  0.2459  0.0732  0.5084
   37MOL   C39517747   5.503   7.735   1.084  0.2853  0.4882 -0.5057
   37MOL   C39617748   5.536   7.779   0.947  0.5021 -0.1176 -0.2449
   37MOL   O39717749   5.443   7.810   0.876  0.3986 -0.3511  0.2160
   37MOL   H39817750   6.210   7.682   1.295  0.4250  0.5840  0.4258
   37MOL   H39917751   6.279   7.609   1.431  1.9792  3.2574 -0.6916
   37MOL   H40017752   6.021   7.560   1.523  0.7045 -0.1178  0.0595
   37MOL   H40117753   6.046   7.515   1.357 -0.2698 -1.6120  0.8820
   37MOL   H40217754   5.972   7.759   1.302 -0.3933 -1.7944 -1.1201
   37MOL   H40317755   5.913   7.762   1.460  0.7054 -0.6580  1.4141
   37MOL   H40417756   5.841   7.514   1.304  1.2396  0.4709 -0.8537
   37MOL   H40517757   5.762   7.595   1.438 -1.2095 -0.2364 -0.7722
   37MOL   H40617758   5.593   0.052   1.134  2.8764 -0.6608  1.1101
   37MOL   H40717759   5.469   7.866   1.247 -0.1788  0.4975 -0.2844
   37MOL   H40817760   5.554   7.641   1.104  0.1010  0.6973  0.9839
   37MOL   H40917761   5.397   7.720   1.107  0.5689 -0.9505 -0.1174
   37MOL   O41017762   5.666   7.769   0.915 -0.0357  0.2806 -0.7150
   37MOL   C41117763   5.697   7.799   0.784  0.3563 -0.4633  0.8545
   37MOL   C41217764   5.849   7.831   0.763  0.0278  0.3074 -0.3823
   37MOL   C41317765   5.914   0.062   0.856  0.2052  0.2479  0.6967
   37MOL   C41417766   5.930   0.202   0.799 -0.0706  0.3502 -0.2156
   37MOL   O41517767   5.799   0.256   0.778  0.3736  0.1820 -0.0912
   37MOL   C41617768   5.778   0.380   0.821  0.6528 -0.1238 -0.2906
   37MOL   O41717769   5.861   0.463   0.860  0.1363 -0.1501  0.0585
   37MOL   C41817770   5.629   0.413   0.826 -0.2909 -0.5500 -0.5204
   37MOL   C41917771   5.553   0.309   0.916  0.0438  0.4876  0.0830
   37MOL   C42017772   5.472   0.368   1.028 -0.6553 -0.6323 -0.3707
   37MOL   O42117773   5.432   0.489   1.029 -0.4128  0.0584  0.3622
   37MOL   H42217774   5.669   7.717   0.718 -0.8147  0.0484  0.7026
   37MOL   H42317775   5.642   0.013   0.754  0.1710 -0.8634 -0.0104
   37MOL   H42417776   5.857   7.860   0.658 -3.8569  1.5274 -0.4426
   37MOL   H42517777   5.901   7.737   0.779 -1.1417 -0.4810 -1.0829
   37MOL   H42617778   6.016   0.032   0.881 -0.0788 -1.2461  0.0986
   37MOL   H42717779   5.856   0.068   0.948 -1.1331  1.9134 -0.2229
   37MOL   H42817780   5.996   0.251   0.870  0.3898 -1.0921  0.3861
   37MOL   H42917781   5.993   0.193   0.710  1.8016  1.1138  0.9893
   37MOL   H43017782   5.594   0.410   0.722 -0.5438  2.0681 -0.5405
   37MOL   H43117783   5.615   0.515   0.861  1.0939 -0.0059 -1.4811
   37MOL   H43217784   5.487   0.243   0.859 -1.5699  2.1945 -0.0671
   37MOL   H43317785   5.629   0.251   0.969 -0.9795 -0.4192  0.5644
   37MOL   O43417786   5.430   0.282   1.115  0.4289 -0.4908 -0.1954
   37MOL   C43517787   5.359   0.331   1.229 -0.8456 -0.5926  0.3846
   37MOL   C43617788   5.447   0.376   1.347  0.2745  0.0043 -0.5991
   37MOL   C43717789   5.528   0.259   1.406 -0.5977 -0.1991  0.7352
   37MOL   C43817790   5.608   0.308   1.525  0.0292  0.1714 -0.2065
   37MOL   O43917791   5.515   0.345   1.622  0.1524  0.2000  0.4817
   37MOL   C44017792   5.473   0.254   1.713 -0.0949 -0.1932 -0.0345
   37MOL   O44117793   5.539   0.154   1.745  0.3106  0.2214 -1.1412
   37MOL   C44217794   5.343   0.290   1.787 -0.6095  0.5369 -0.0605
   37MOL   C44317795   5.227   0.313   1.695  0.0045 -0.1530  1.0040
   37MOL   C44417796   5.159   0.181   1.655  0.3110  0.0978  0.2792
   37MOL   O44517797   5.067   0.138   1.718  0.3316 -0.2823  0.5429
   37MOL   H44617798   5.296   0.417   1.205  0.0118 -0.1656 -0.3864
   37MOL   H44717799   5.297   0.255   1.275 -1.1406  0.5227  1.9007
   37MOL   H44817800   5.376   0.417   1.418 -0.1388  2.2138 -2.2372
   37MOL   H44917801   5.508   0.462   1.320  0.3312  0.3642  0.6416
   37MOL   H45017802   5.595   0.215   1.332 -0.9788 -1.1430  0.9446
   37MOL   H45117803   5.460   0.176   1.421 -0.3752 -0.5128  0.0155
   37MOL   H45217804   5.658   0.216   1.554  0.6765  1.2859  2.2717
   37MOL   H45317805   5.677   0.391   1.515 -1.9853  1.8168 -0.9669
   37MOL   H45417806   5.370   0.373   1.853  2.8047 -0.7772  0.3051
   37MOL   H45517807   5.321   0.221   1.868  1.8266  1.0764  1.0970
   37MOL   H45617808   5.160   0.380   1.749  1.1538  2.3477 -0.5883
   37MOL   H45717809   5.261   0.374   1.611 -1.5972 -0.7246 -0.1044
   37MOL   O45817810   5.217   0.116   1.556  0.5022  0.4262 -0.3017
   37MOL   C45917811   5.175   7.860   1.528  0.3438  0.0354  0.2799
   37MOL   C46017812   5.226   7.826   1.390  0.0990 -0.5409 -0.3068
   37MOL   C46117813   5.201   7.675   1.349  1.1815 -0.2655  0.0209
   37MOL   C46217814   5.255   7.563   1.449  0.1482  0.5970  0.0656
   37MOL   O46317815   5.221   7.436   1.404  0.9907 -0.0548 -0.0221
   37MOL   C46417816   5.302   7.378   1.320  0.4016 -0.0415  0.4518
   37MOL   O46517817   5.407   7.432   1.279 -0.6518 -0.1637  0.0426
   37MOL   C46617818   5.278   7.231   1.284  0.0704 -0.1122 -0.3846
   37MOL   C46717819   5.153   7.171   1.358 -0.0689 -0.2169  0.3350
   37MOL   C46817820   5.165   7.024   1.372  0.9306 -0.1676 -0.1658
   37MOL   O46917821   5.166   6.941   1.285 -0.0379 -0.1546 -0.2739
   37MOL   H47017822   5.203   7.791   1.608 -2.7187  0.7434  2.0349
   37MOL   H47117823   5.068   7.843   1.521  0.4990 -0.6083 -0.6875
   37MOL   H47217824   5.335   7.836   1.386  0.1903 -1.1947  0.3929
   37MOL   H47317825   5.183   0.019   1.316 -1.6499 -3.1694 -1.7598
   37MOL   H47417826   5.260   7.666   1.258  0.6462 -1.8806 -0.1850
   37MOL   H47517827   5.097   7.655   1.323  1.5978 -1.0786 -1.0564
   37MOL   H47617828   5.360   7.594   1.451  0.3574 -0.0129 -1.1089
   37MOL   H47717829   5.208   7.579   1.546 -1.1515 -0.2422 -0.4235
   37MOL   H47817830   5.369   7.173   1.297  2.0583  3.2037  1.1314
   37MOL   H47917831   5.261   7.239   1.177 -0.3578  0.3298 -0.2874
   37MOL   H48017832   5.132   7.217   1.454 -1.2694 -1.0347  0.4749
   37MOL   H48117833   5.068   7.186   1.291  0.4637  0.4567 -0.2056
   37MOL   H48217834   5.177   7.004   1.478  0.3559  1.4082  0.2147
   38MOL     O117835   2.259   4.389   1.120  0.4542 -0.3475 -0.2171
   38MOL     C217836   2.257   4.260   1.184 -0.2387  0.3651  0.1984
   38MOL     C317837   2.326   4.272   1.320 -0.6120  1.0762 -0.6442
   38MOL     C417838   2.376   4.141   1.396  0.6779  0.2278  0.2999
   38MOL     C517839   2.526   4.156   1.436  0.4155 -0.3792 -0.1957
   38MOL     O617840   2.620   4.127   1.332 -0.4495  0.4582 -0.0969
   38MOL     C717841   2.727   4.050   1.356 -0.8913 -0.3387 -0.1655
   38MOL     O817842   2.755   4.006   1.467  0.7460  0.0517 -0.5281
   38MOL     C917843   2.802   4.016   1.230 -0.5168 -0.0526 -0.1399
   38MOL    C1017844   2.845   4.152   1.170 -0.2784  0.0215  0.5383
   38MOL    C1117845   2.999   4.165   1.165  1.0611  0.1968  1.0802
   38MOL    O1217846   3.065   4.240   1.233  0.2364  0.5097 -0.1319
   38MOL    H1317847   2.155   4.225   1.200 -1.0077  1.8388 -1.3860
   38MOL    H1417848   2.314   4.186   1.128  0.5377  1.9736 -1.1980
   38MOL    H1517849   2.267   4.334   1.387 -3.4582 -0.1866 -1.8978
   38MOL    H1617850   2.413   4.335   1.302  0.1356  0.6357  1.3324
   38MOL    H1717851   2.361   4.054   1.332 -3.2974  2.4028 -1.9573
   38MOL    H1817852   2.317   4.133   1.488  1.0439  0.3263  0.5452
   38MOL    H1917853   2.548   4.258   1.467  0.0159 -0.0519 -0.9766
   38MOL    H2017854   2.547   4.099   1.526  1.3726  0.4521  0.1172
   38MOL    H2117855   2.731   3.955   1.175 -1.0452 -0.9739  1.5357
   38MOL    H2217856   2.889   3.955   1.252 -0.7837 -0.6895 -0.8679
   38MOL    H2317857   2.811   4.178   1.070 -1.8228  1.2686  1.3712
   38MOL    H2417858   2.801   4.233   1.228 -1.6445 -0.7235  0.5732
   38MOL    H2517859   2.348   4.419   1.110 -0.2424  1.1225 -2.2960
   38MOL    O2617860   3.053   4.064   1.086 -0.2360  0.1932  0.0814
   38MOL    C2717861   3.189   4.024   1.108 -0.6915  0.0792 -0.2710
   38MOL    C2817862   3.204   3.892   1.026  0.4809 -0.4108 -0.4162
   38MOL    C2917863   3.327   3.816   1.061  0.0126 -0.4391 -0.2266
   38MOL    C3017864   3.354   3.694   0.970 -0.5626  0.2528  0.9271
   38MOL    O3117865   3.481   3.628   0.994  0.7332  0.0810  0.1304
   38MOL    C3217866   3.493   3.537   1.090 -0.2299  0.0580  0.0991
   38MOL    O3317867   3.400   3.501   1.162  0.0177  0.0479 -0.2754
   38MOL    C3417868   3.635   3.482   1.100 -0.0549  0.5148 -0.6074
   38MOL    C3517869   3.653   3.394   1.226 -0.1436  0.4057 -0.1408
   38MOL    C3617870   3.770   3.432   1.324  1.1226 -0.3725  0.1886
   38MOL    O3717871   3.873   3.494   1.291  0.3591  0.1826 -0.2800
   38MOL    H3817872   3.242   4.106   1.061  1.2073 -1.3036 -0.6146
   38MOL    H3917873   3.215   4.008   1.212  0.9813 -0.9654 -0.8274
   38MOL    H4017874   3.188   3.915   0.920  0.1998  5.2571  0.7151
   38MOL    H4117875   3.120   3.826   1.046 -0.2946 -0.1875 -2.7072
   38MOL    H4217876   3.317   3.778   1.162 -0.2845  0.0601 -0.0659
   38MOL    H4317877   3.418   3.877   1.067 -1.4160  1.9369 -1.7399
   38MOL    H4417878   3.269   3.626   0.973 -0.7834  0.3435 -1.8692
   38MOL    H4517879   3.360   3.719   0.864 -2.0894  0.1468  0.8000
   38MOL    H4617880   3.696   3.572   1.111 -2.7070  2.5431 -1.8016
   38MOL    H4717881   3.661   3.420   1.014  0.7379  1.0706 -0.7777
   38MOL    H4817882   3.567   3.393   1.293  0.8637  0.4103  1.1573
   38MOL    H4917883   3.654   3.287   1.205 -1.1067 -0.0328  1.9120
   38MOL    O5017884   3.748   3.389   1.449 -0.6790 -0.0894 -0.4134
   38MOL    C5117885   3.832   3.435   1.553 -0.3679  0.2641  0.4560
   38MOL    C5217886   3.803   3.354   1.681  0.4698 -0.5551  0.3380
   38MOL    C5317887   3.661   3.353   1.734  0.1527  0.3367 -0.0804
   38MOL    C5417888   3.651   3.259   1.858 -0.3591  0.6535  0.6146
   38MOL    O5517889   3.519   3.247   1.910 -0.1483 -0.9839  0.1813
   38MOL    C5617890   3.504   3.151   2.012 -0.0903  0.1964  0.3831
   38MOL    O5717891   3.591   3.081   2.059  0.3348  0.0598 -0.5172
   38MOL    C5817892   3.353   3.137   2.054  0.3277  0.2577 -0.1344
   38MOL    C5917893   3.262   3.104   1.941  0.5392 -0.2849 -0.0656
   38MOL    C6017894   3.156   3.210   1.910 -0.7601  0.6956  0.5351
   38MOL    O6117895   3.069   3.235   1.990  0.2326  0.2205 -0.3494
   38MOL    H6217896   3.938   3.428   1.527  0.1644  3.8559  1.4270
   38MOL    H6317897   3.815   3.538   1.581 -2.0640 -0.0822  0.7366
   38MOL    H6417898   3.874   3.384   1.757  0.0548 -1.0059  0.9046
   38MOL    H6517899   3.820   3.248   1.662  1.8170 -0.0581 -1.3623
   38MOL    H6617900   3.577   3.340   1.665  0.4191 -2.4760  0.0503
   38MOL    H6717901   3.661   3.453   1.777  0.9626  0.6262 -0.7422
   38MOL    H6817902   3.684   3.160   1.827 -0.3968  0.8111  0.0663
   38MOL    H6917903   3.721   3.289   1.936  0.6735  0.4425 -0.2232
   38MOL    H7017904   3.318   3.224   2.111 -1.8943  0.8787 -2.3455
   38MOL    H7117905   3.345   3.051   2.120 -1.7703  0.0984 -0.5480
   38MOL    H7217906   3.312   3.098   1.844  1.7767  1.1865  0.4484
   38MOL    H7317907   3.212   3.008   1.948  1.1314 -0.4144  2.8264
   38MOL    O7417908   3.177   3.275   1.790  0.0320  0.7059  0.0645
   38MOL    C7517909   3.095   3.384   1.752 -0.1893 -0.0764  0.0559
   38MOL    C7617910   3.139   3.426   1.609  0.1171 -0.1288 -0.2732
   38MOL    C7717911   3.275   3.490   1.614 -0.3708 -0.1805 -0.3619
   38MOL    C7817912   3.318   3.553   1.475  0.3187 -0.0320  0.7510
   38MOL    O7917913   3.442   3.618   1.490 -0.6203  0.9153  0.0946
   38MOL    C8017914   3.459   3.743   1.429  0.4647 -0.0197 -0.4723
   38MOL    O8117915   3.373   3.824   1.388 -0.2228 -0.5490  0.0317
   38MOL    C8217916   3.604   3.771   1.420 -0.9183 -0.5435  1.0456
   38MOL    C8317917   3.625   3.838   1.283  0.7375  0.2612 -0.7873
   38MOL    C8417918   3.770   3.863   1.247 -0.8560  0.7749 -0.4267
   38MOL    O8517919   3.805   3.917   1.138  0.1949 -0.1239  0.0341
   38MOL    H8617920   2.992   3.349   1.751 -0.2477  0.1041 -0.1883
   38MOL    H8717921   3.099   3.472   1.817 -1.8939  1.4547 -1.8246
   38MOL    H8817922   3.064   3.502   1.590 -0.8620 -0.7260  1.0670
   38MOL    H8917923   3.131   3.343   1.540  0.4033 -0.4038  0.0188
   38MOL    H9017924   3.346   3.415   1.647  1.2924  2.0044  1.1585
   38MOL    H9117925   3.271   3.567   1.691  2.3099 -1.8388  1.4757
   38MOL    H9217926   3.325   3.477   1.398  0.4305 -0.7566  1.4705
   38MOL    H9317927   3.246   3.626   1.437 -0.7664 -1.5429 -0.1354
   38MOL    H9417928   3.654   3.674   1.420 -1.9114 -1.0650  2.5035
   38MOL    H9517929   3.636   3.828   1.507  0.9666 -2.1988  1.4747
   38MOL    H9617930   3.605   3.755   1.216 -0.3449 -0.3895  0.3286
   38MOL    H9717931   3.551   3.915   1.262  0.1256 -0.3466 -0.8578
   38MOL    O9817932   3.853   3.806   1.339 -0.3117 -0.3172 -0.3402
   38MOL    C9917933   3.990   3.795   1.315 -0.7421 -0.5247 -0.3723
   38MOL   C10017934   4.049   3.763   1.455  0.2464 -0.4818  0.3636
   38MOL   C10117935   4.202   3.778   1.473 -0.1965 -0.3841  0.2837
   38MOL   C10217936   4.247   3.736   1.616  0.4641  0.6076  0.0435
   38MOL   O10317937   4.161   3.791   1.710  0.2478 -0.0538 -0.3035
   38MOL   C10417938   4.075   3.717   1.780  0.0791  0.3570  0.5426
   38MOL   O10517939   4.065   3.593   1.776  0.2201  0.3411 -0.0748
   38MOL   C10617940   3.991   3.803   1.872 -0.2053 -0.4463  0.1599
   38MOL   C10717941   3.919   3.924   1.802  0.2291 -0.4814 -0.2006
   38MOL   C10817942   3.867   4.019   1.911 -0.2198  0.0711 -0.4643
   38MOL   O10917943   3.814   3.969   2.008  0.4734 -0.7776  0.0522
   38MOL   H11017944   4.025   3.724   1.240  0.0720  0.6090 -1.0909
   38MOL   H11117945   4.026   3.892   1.280  0.5366 -1.2492 -1.1380
   38MOL   H11217946   4.004   3.672   1.496  1.1046 -0.3307  1.6615
   38MOL   H11317947   3.995   3.831   1.521  0.5757 -0.3369  0.4837
   38MOL   H11417948   4.225   3.881   1.446 -0.5977 -0.8358 -1.8054
   38MOL   H11517949   4.252   3.729   1.390 -2.2259 -1.0056 -0.6147
   38MOL   H11617950   4.257   3.628   1.629  0.7069  0.3880 -1.8256
   38MOL   H11717951   4.345   3.780   1.633 -0.7425  4.1551 -1.8278
   38MOL   H11817952   4.055   3.839   1.952  2.7671 -0.9316 -1.9266
   38MOL   H11917953   3.913   3.740   1.915  0.7821 -1.0774  1.0314
   38MOL   H12017954   3.990   3.984   1.745  1.9688 -2.1949  0.1428
   38MOL   H12117955   3.830   3.887   1.751 -0.4825  0.6760  0.1724
   38MOL   O12217956   3.907   4.147   1.902  0.2702  0.0102  0.3281
   38MOL   C12317957   3.868   4.233   2.009 -0.8751  0.1717 -0.8967
   38MOL   C12417958   3.902   4.377   1.961 -0.2939  0.4824 -0.5183
   38MOL   C12517959   4.048   4.429   1.950 -0.9175  0.0863  0.3424
   38MOL   C12617960   4.062   4.551   1.866 -0.0995  0.0663  0.0032
   38MOL   O12717961   4.198   4.605   1.868 -0.0036  0.1905 -0.7856
   38MOL   C12817962   4.231   4.709   1.943 -0.1736  0.0509 -0.6234
   38MOL   O12917963   4.150   4.780   2.009 -0.3877 -0.1709 -0.2357
   38MOL   C13017964   4.386   4.731   1.936  0.1325  0.1185  0.6791
   38MOL   C13117965   4.428   4.859   1.869 -0.5645 -0.6803  0.6180
   38MOL   C13217966   4.534   4.935   1.949 -0.2567  1.0135  0.5860
   38MOL   O13317967   4.642   4.961   1.896  0.3139  0.4260 -0.3006
   38MOL   H13417968   3.760   4.231   2.024 -0.5931 -0.1517  1.3103
   38MOL   H13517969   3.907   4.201   2.105  1.4897  1.4147 -1.4213
   38MOL   H13617970   3.853   4.449   2.027  0.8837  0.6040  0.2367
   38MOL   H13717971   3.862   4.380   1.860  0.2386  1.6764 -0.7040
   38MOL   H13817972   4.111   4.348   1.913 -0.4903  0.3298  0.5442
   38MOL   H13917973   4.093   4.454   2.046 -3.2680  0.7033  1.3123
   38MOL   H14017974   4.020   4.518   1.771  1.8644 -0.3312 -0.7629
   38MOL   H14117975   3.989   4.623   1.903 -1.5603 -1.3137 -0.1686
   38MOL   H14217976   4.422   4.639   1.890 -0.3710  0.4336 -0.3606
   38MOL   H14317977   4.421   4.726   2.039 -0.9248  1.9395  1.1529
   38MOL   H14417978   4.476   4.847   1.772 -0.6192  1.3870  0.3245
   38MOL   H14517979   4.341   4.922   1.852  2.1271  2.8735 -0.5496
   38MOL   O14617980   4.490   4.998   2.060  0.3061  0.5961  0.0138
   38MOL   C14717981   4.571   5.080   2.140  0.0963  0.0145 -0.1399
   38MOL   C14817982   4.472   5.178   2.220  0.0790  0.4743  0.2327
   38MOL   C14917983   4.558   5.307   2.263 -0.5093 -0.4436 -0.2625
   38MOL   C15017984   4.519   5.354   2.404  0.5185 -0.4672  0.8382
   38MOL   O15117985   4.385   5.401   2.415 -0.4011 -0.3825  0.6776
   38MOL   C15217986   4.365   5.534   2.382 -0.1850  0.4226 -0.7764
   38MOL   O15317987   4.454   5.610   2.356  0.5725 -0.6079 -0.1453
   38MOL   C15417988   4.214   5.576   2.390 -0.0780 -0.9445  0.3993
   38MOL   C15517989   4.196   5.705   2.466 -0.0287  0.0951  0.8396
   38MOL   C15617990   4.177   5.820   2.368 -0.2144 -1.1991 -0.2662
   38MOL   O15717991   4.263   5.906   2.354  0.0333  0.2421 -0.4546
   38MOL   H15817992   4.630   5.012   2.201  1.1496  1.4381  0.4274
   38MOL   H15917993   4.645   5.127   2.075  1.9771  0.0939  2.0387
   38MOL   H16017994   4.435   5.122   2.306  0.7958 -4.0365 -2.2608
   38MOL   H16117995   4.386   5.207   2.158  0.2082  2.6654  1.0345
   38MOL   H16217996   4.538   5.390   2.195 -0.9931  0.5884  1.1167
   38MOL   H16317997   4.662   5.276   2.272 -0.9829 -2.1505 -0.3617
   38MOL   H16417998   4.518   5.281   2.485 -2.4827  0.4165  1.6446
   38MOL   H16517999   4.587   5.433   2.435  2.0876 -0.1862 -2.9435
   38MOL   H16618000   4.152   5.507   2.447 -0.1670  0.0689  1.5703
   38MOL   H16718001   4.172   5.577   2.289 -0.0068  1.3750  0.3653
   38MOL   H16818002   4.102   5.689   2.519 -1.5361  0.3564 -1.6642
   38MOL   H16918003   4.276   5.704   2.539  0.3352 -0.6669  0.4285
   38MOL   O17018004   4.059   5.811   2.302  0.1250 -0.5882 -0.1286
   38MOL   C17118005   4.032   5.907   2.194  0.3041  0.0722  0.1268
   38MOL   C17218006   3.922   5.847   2.111  0.2126  0.1089 -0.3865
   38MOL   C17318007   3.783   5.822   2.174 -0.5306 -0.1771  0.6217
   38MOL   C17418008   3.685   5.762   2.072  0.8607  0.1800 -0.0558
   38MOL   O17518009   3.558   5.712   2.123  0.2448  0.2015 -0.3149
   38MOL   C17618010   3.464   5.794   2.150  0.5700 -0.2190  0.3821
   38MOL   O17718011   3.468   5.917   2.141  0.1554 -0.0799 -0.1440
   38MOL   C17818012   3.337   5.724   2.202 -0.1931  0.1090 -0.6905
   38MOL   C17918013   3.297   5.797   2.329  0.1480  0.1309 -0.0635
   38MOL   C18018014   3.375   5.745   2.450  0.6037  0.0915 -0.1461
   38MOL   O18118015   3.492   5.776   2.476 -0.7686  0.5049 -0.1676
   38MOL   H18218016   4.008   6.004   2.237 -2.1975 -0.4687  0.0363
   38MOL   H18318017   4.122   5.923   2.134  0.3615 -2.3008 -0.4963
   38MOL   H18418018   3.970   5.755   2.078 -0.5566 -0.7476  0.8677
   38MOL   H18518019   3.905   5.908   2.022 -0.6855  0.5369  0.0769
   38MOL   H18618020   3.742   5.917   2.208  0.3192  0.2986  0.3297
   38MOL   H18718021   3.793   5.771   2.270 -0.5880  2.4802  2.0714
   38MOL   H18818022   3.665   5.828   1.987  0.3030 -0.1537 -0.1819
   38MOL   H18918023   3.740   5.677   2.032 -0.9486 -0.5716 -1.0175
   38MOL   H19018024   3.348   5.619   2.226  0.2994  0.1284 -0.8445
   38MOL   H19118025   3.263   5.731   2.122 -0.0237 -1.5306 -1.0053
   38MOL   H19218026   3.303   5.905   2.321 -0.5108  0.2626  1.0481
   38MOL   H19318027   3.193   5.774   2.353  0.0946  0.3134 -0.1217
   38MOL   O19418028   3.295   5.669   2.527 -0.4640  0.5389 -0.4804
   38MOL   C19518029   3.344   5.614   2.648 -0.0260 -0.8519 -0.0130
   38MOL   C19618030   3.439   5.495   2.626 -0.1039  0.3174  0.6772
   38MOL   C19718031   3.397   5.395   2.521  0.4605 -0.1697  0.2224
   38MOL   C19818032   3.283   5.304   2.572  0.0374 -0.0247 -0.0351
   38MOL   O19918033   3.170   5.391   2.563  0.5602 -0.3174  0.2069
   38MOL   C20018034   3.052   5.346   2.601 -0.5013 -0.3503  0.2149
   38MOL   O20118035   3.027   5.228   2.637  0.3284 -0.6315 -0.5313
   38MOL   C20218036   2.948   5.463   2.606  0.0679 -0.4952 -0.2355
   38MOL   C20318037   2.810   5.411   2.571  0.3227  0.9655 -0.2076
   38MOL   C20418038   2.693   5.443   2.665  0.2008  0.6559 -0.3775
   38MOL   O20518039   2.678   5.365   2.760  0.1445  0.3414  0.1184
   38MOL   H20618040   3.397   5.687   2.709  1.0856 -1.7327  0.0866
   38MOL   H20718041   3.253   5.590   2.702 -2.3289  0.8312 -2.9688
   38MOL   H20818042   3.462   5.434   2.714  0.0190 -1.8064 -0.7848
   38MOL   H20918043   3.530   5.538   2.586 -0.4838 -0.4656 -1.0831
   38MOL   H21018044   3.482   5.329   2.504  1.6450  1.2125  0.6664
   38MOL   H21118045   3.387   5.437   2.421  0.1288  2.0012  1.1459
   38MOL   H21218046   3.277   5.208   2.520 -0.3039 -0.3921  0.6771
   38MOL   H21318047   3.304   5.271   2.674  2.1606  1.5294  0.0695
   38MOL   H21418048   2.974   5.541   2.534  0.4447  0.6860  1.1690
   38MOL   H21518049   2.953   5.514   2.702 -1.7225  2.1538 -1.5143
   38MOL   H21618050   2.788   5.453   2.473  1.5261 -1.3272 -1.5118
   38MOL   H21718051   2.810   5.302   2.574  0.7913  0.9978  2.5708
   38MOL   O21818052   2.615   5.539   2.635  0.2452  0.0970 -0.0438
   38MOL   C21918053   2.499   5.566   2.709  0.3876  0.1875 -0.4544
   38MOL   C22018054   2.422   5.692   2.663  0.8108 -0.3971 -0.1514
   38MOL   C22118055   2.316   5.662   2.553 -0.4668  0.4679 -0.4884
   38MOL   C22218056   2.181   5.619   2.616 -1.2472 -0.8835 -0.1583
   38MOL   O22318057   2.084   5.628   2.516  0.1269  0.3563  0.5861
   38MOL   C22418058   1.957   5.593   2.542 -0.0290 -0.0152  0.1154
   38MOL   O22518059   1.929   5.529   2.645 -0.1492  0.7707 -0.0917
   38MOL   C22618060   1.854   5.631   2.440  0.6880  0.5140 -0.3636
   38MOL   C22718061   1.823   5.778   2.445  0.1692 -0.0929 -0.5168
   38MOL   C22818062   1.701   5.810   2.365 -0.3518 -0.7276  0.0861
   38MOL   O22918063   1.692   5.792   2.248 -0.9418 -0.6348  0.4989
   38MOL   H23018064   2.453   5.467   2.701  2.4751 -0.6498 -2.6956
   38MOL   H23118065   2.531   5.569   2.813  1.0975 -1.2293 -0.6184
   38MOL   H23218066   2.506   5.755   2.633 -0.5143  1.4428 -0.1100
   38MOL   H23318067   2.383   5.748   2.748 -0.2178  1.2142 -1.6472
   38MOL   H23418068   2.356   5.589   2.484 -0.2707  0.5706 -0.4833
   38MOL   H23518069   2.304   5.754   2.495  0.5050  1.6114  1.0690
   38MOL   H23618070   2.176   5.528   2.675 -2.3184 -0.2330  0.7812
   38MOL   H23718071   2.150   5.687   2.696  0.9097 -1.3119  1.0801
   38MOL   H23818072   1.771   5.575   2.484 -0.1206  1.9405 -0.0560
   38MOL   H23918073   1.860   5.586   2.341 -2.1463  1.1740 -0.8969
   38MOL   H24018074   1.808   5.813   2.547 -0.6689  0.5500 -0.8566
   38MOL   H24118075   1.900   5.834   2.391 -0.1247  0.4199 -0.4037
   38MOL   O24218076   1.600   5.863   2.442 -0.0235  0.4469  0.2867
   38MOL   C24318077   1.471   5.851   2.379  0.0352  0.2117 -0.0982
   38MOL   C24418078   1.418   5.723   2.442 -0.2845 -0.6825  0.3989
   38MOL   C24518079   1.269   5.718   2.425 -0.2171  0.3718  0.1604
   38MOL   C24618080   1.205   5.598   2.501 -0.1751 -0.5469 -0.3419
   38MOL   O24718081   1.060   5.609   2.489 -0.0112 -0.2742 -0.1083
   38MOL   C24818082   0.991   5.490   2.480  0.0289  0.2458  0.5575
   38MOL   O24918083   1.038   5.376   2.499 -0.8356 -0.0135  0.8250
   38MOL   C25018084   0.837   5.511   2.460 -0.0869  0.9892  0.1325
   38MOL   C25118085   0.764   5.575   2.577  0.4601 -0.9795  0.2431
   38MOL   C25218086   0.744   5.721   2.550 -0.8679 -0.7133  0.7520
   38MOL   O25318087   0.709   5.753   2.441  0.6434 -0.1403  0.0129
   38MOL   H25418088   1.426   5.949   2.395  0.3690  0.3341  0.0961
   38MOL   H25518089   1.473   5.846   2.270  0.5058  1.6389 -0.1655
   38MOL   H25618090   1.455   5.717   2.544  0.0750  0.9342  0.3802
   38MOL   H25718091   1.468   5.645   2.384  0.1329  1.3178 -2.0400
   38MOL   H25818092   1.262   5.717   2.317  3.0772 -1.1016 -0.1095
   38MOL   H25918093   1.230   5.812   2.465 -0.7385  0.5399 -0.7232
   38MOL   H26018094   1.253   5.513   2.452  1.1225  0.4326 -0.8339
   38MOL   H26118095   1.235   5.613   2.605 -1.7793  2.8397 -0.2699
   38MOL   H26218096   0.796   5.413   2.435  1.5533  0.7946 -1.8758
   38MOL   H26318097   0.832   5.569   2.368  1.8547 -0.6430 -1.0525
   38MOL   H26418098   0.666   5.529   2.591 -1.1122  2.2097  0.1409
   38MOL   H26518099   0.833   5.568   2.661 -1.2457 -1.8233  1.5999
   38MOL   O26618100   0.754   5.795   2.656  0.2226 -0.4184 -0.7057
   38MOL   C26718101   0.758   5.937   2.653  0.1179  0.3024 -0.0727
   38MOL   C26818102   0.908   5.993   2.651 -0.1876 -0.0516  0.3287
   38MOL   C26918103   0.997   5.944   2.757 -0.1462  0.1496 -0.6188
   38MOL   C27018104   1.132   6.007   2.759 -0.7670 -0.0508 -0.4270
   38MOL   O27118105   1.210   5.934   2.842 -0.0695  0.1164 -1.2718
   38MOL   C27218106   1.223   5.963   2.973  0.1887  0.5235 -0.0202
   38MOL   O27318107   1.181   6.061   3.032 -0.6461 -0.3106 -0.3273
   38MOL   C27418108   1.307   5.857   3.051  0.4425  0.0598 -0.0335
   38MOL   C27518109   1.286   5.850   3.212  1.0455  0.5789 -0.6052
   38MOL   C27618110   1.413   5.842   3.290 -0.3203  0.7097 -0.5072
   38MOL   O27718111   1.455   5.925   3.367  0.5393 -0.1811 -0.5825
   38MOL   H27818112   0.697   5.988   2.578 -0.3538 -0.0113  0.1017
   38MOL   H27918113   0.732   5.976   2.751  0.6934 -1.6981  0.8910
   38MOL   H28018114   0.909   6.102   2.647  0.5257 -0.0873 -0.6357
   38MOL   H28118115   0.944   5.961   2.553 -1.7267  1.2530 -0.6926
   38MOL   H28218116   0.992   5.835   2.751 -0.0423  0.0069  1.4008
   38MOL   H28318117   0.945   5.970   2.849  0.7737  0.5052 -0.1948
   38MOL   H28418118   1.184   5.984   2.666  1.5566  1.1709  0.5278
   38MOL   H28518119   1.132   6.116   2.766 -0.9102 -0.0072 -1.0657
   38MOL   H28618120   1.412   5.857   3.020  0.5515  1.7393  0.2732
   38MOL   H28718121   1.275   5.763   3.007  1.4044  0.6930 -2.1592
   38MOL   H28818122   1.232   5.935   3.255 -1.7603 -1.3931 -0.1059
   38MOL   H28918123   1.227   5.760   3.228  1.6648  0.2447 -0.1993
   38MOL   O29018124   1.480   5.724   3.265  0.2665  0.3262  0.2391
   38MOL   C29118125   1.598   5.688   3.331 -0.2949 -0.5500 -0.0332
   38MOL   C29218126   1.573   5.615   3.464 -0.2653  0.9211 -0.4643
   38MOL   C29318127   1.699   5.568   3.537  0.1895 -1.1989  0.8031
   38MOL   C29418128   1.687   5.460   3.647 -0.3238 -0.0215  1.1597
   38MOL   O29518129   1.626   5.512   3.757  0.1875 -0.2440 -0.1079
   38MOL   C29618130   1.613   5.445   3.869  0.6447  0.2553 -1.0348
   38MOL   O29718131   1.642   5.323   3.876  0.6061  0.1673 -0.2531
   38MOL   C29818132   1.548   5.530   3.985 -0.0614 -0.1855 -0.2257
   38MOL   C29918133   1.537   5.456   4.119  0.3510  1.1161  0.2291
   38MOL   C30018134   1.626   5.504   4.231 -0.4311 -0.7231  0.2331
   38MOL   O30118135   1.717   5.583   4.206  0.2238  0.5247  0.1691
   38MOL   H30218136   1.667   5.631   3.268  0.4594  1.5063 -1.1210
   38MOL   H30318137   1.655   5.779   3.347 -0.7876 -0.5645  1.9573
   38MOL   H30418138   1.509   5.533   3.431 -0.0265  1.3052 -1.9342
   38MOL   H30518139   1.515   5.678   3.531  0.4289  1.2995 -0.2151
   38MOL   H30618140   1.750   5.659   3.570 -1.4626  0.5679 -1.3442
   38MOL   H30718141   1.768   5.534   3.460 -1.6978 -2.3506 -0.4321
   38MOL   H30818142   1.634   5.373   3.608  3.5888 -2.7715  1.6629
   38MOL   H30918143   1.785   5.423   3.680  0.9704 -0.2512 -2.6838
   38MOL   H31018144   1.444   5.552   3.958 -0.1432 -0.8421 -0.4546
   38MOL   H31118145   1.600   5.626   3.991  0.5212 -0.6149  1.7574
   38MOL   H31218146   1.430   5.456   4.143  0.1431 -1.6982 -0.4827
   38MOL   H31318147   1.562   5.353   4.094  3.7923  2.0776 -0.4451
   38MOL   O31418148   1.587   5.459   4.349  0.5088  0.5057 -0.1221
   38MOL   C31518149   1.652   5.519   4.457  0.7282 -0.2128  0.3548
   38MOL   C31618150   1.595   5.461   4.585 -0.3452  0.6735  0.3540
   38MOL   C31718151   1.626   5.538   4.710  0.0131 -0.2713  0.0624
   38MOL   C31818152   1.563   5.456   4.825 -0.1900  0.5395  0.7157
   38MOL   O31918153   1.600   5.499   4.957  0.7824  0.1263  0.0184
   38MOL   C32018154   1.542   5.449   5.060  0.6809  0.1592  0.3500
   38MOL   O32118155   1.447   5.364   5.050 -0.0771 -0.4556 -0.6536
   38MOL   C32218156   1.598   5.506   5.189  0.9041  0.6110 -0.6907
   38MOL   C32318157   1.641   5.389   5.284  0.2269 -1.2005 -0.2088
   38MOL   C32418158   1.713   5.441   5.410 -0.3042  0.3830  0.4462
   38MOL   O32518159   1.762   5.373   5.491  0.4161 -0.0039 -0.1830
   38MOL   H32618160   1.760   5.508   4.465  0.9718  0.6373 -1.6892
   38MOL   H32718161   1.626   5.624   4.464 -1.2258 -0.6045 -0.6177
   38MOL   H32818162   1.649   5.366   4.590 -0.2034  0.7507  0.3022
   38MOL   H32918163   1.487   5.446   4.581 -0.2294  0.0947 -0.7126
   38MOL   H33018164   1.574   5.633   4.699  2.2988  0.9520 -0.4664
   38MOL   H33118165   1.734   5.554   4.717  0.3316 -1.5119 -1.7628
   38MOL   H33218166   1.455   5.467   4.826 -0.4180 -1.4492 -0.1839
   38MOL   H33318167   1.581   5.349   4.824 -0.4724  0.4808  2.0344
   38MOL   H33418168   1.524   5.553   5.254  0.7240 -2.2169  1.2577
   38MOL   H33518169   1.684   5.571   5.171  1.5516  0.0983  0.4445
   38MOL   H33618170   1.547   5.340   5.309  0.8014 -1.5269  1.3897
   38MOL   H33718171   1.700   5.319   5.225 -1.8036 -0.7013 -2.9156
   38MOL   O33818172   1.721   5.576   5.422 -0.4273 -0.3774  0.2383
   38MOL   C33918173   1.820   5.636   5.504 -0.4731  0.1577 -0.1681
   38MOL   C34018174   1.790   5.778   5.508  0.7619  0.2310 -0.0991
   38MOL   C34118175   1.655   5.818   5.574 -0.2164 -0.1331 -0.0128
   38MOL   C34218176   1.666   5.934   5.666 -0.4755 -0.4032  0.2529
   38MOL   O34318177   1.541   5.982   5.697  0.3979 -0.8449  0.1432
   38MOL   C34418178   1.529   6.093   5.764 -0.1816 -0.7862 -0.3038
   38MOL   O34518179   1.626   6.153   5.818 -0.3809  0.5013  0.2493
   38MOL   C34618180   1.384   6.126   5.787  0.5732 -0.2689 -0.9142
   38MOL   C34718181   1.366   6.107   5.935 -0.1887  0.2358 -1.3356
   38MOL   C34818182   1.312   6.226   6.007 -0.0635 -0.1479  0.3279
   38MOL   O34918183   1.377   6.329   6.010  0.2439 -0.0558 -0.2552
   38MOL   H35018184   1.804   5.593   5.603  1.9699 -0.4589 -0.0075
   38MOL   H35118185   1.920   5.613   5.467 -0.8997 -3.0398  0.4984
   38MOL   H35218186   1.789   5.811   5.404  2.0613  0.4855 -0.0437
   38MOL   H35318187   1.862   5.824   5.576  0.9106 -2.2621  1.4932
   38MOL   H35418188   1.612   5.727   5.615  1.5861  0.1122  2.5769
   38MOL   H35518189   1.590   5.857   5.495  1.3141  1.9706 -0.2780
   38MOL   H35618190   1.717   5.911   5.759 -0.5806  0.9452  0.6541
   38MOL   H35718191   1.722   6.011   5.612  1.3417 -2.4052 -0.8443
   38MOL   H35818192   1.313   6.056   5.744 -1.6306  2.4780 -1.9069
   38MOL   H35918193   1.356   6.229   5.765  2.6714 -0.0398 -2.7407
   38MOL   H36018194   1.289   6.030   5.947 -0.3754  1.0145  3.6153
   38MOL   H36118195   1.453   6.068   5.988 -0.5355  1.1712 -0.0605
   38MOL   O36218196   1.192   6.219   6.048  0.2683 -0.2415 -0.1039
   38MOL   C36318197   1.127   6.330   6.107 -0.2823 -0.2180 -0.1055
   38MOL   C36418198   1.112   6.325   6.256 -0.2429  0.1949  0.6374
   38MOL   C36518199   1.066   6.189   6.299  0.7998 -0.1720  0.8282
   38MOL   C36618200   1.052   6.177   6.444  0.4680  0.2880 -0.9625
   38MOL   O36718201   0.966   6.071   6.473  0.5564  0.5328  0.0460
   38MOL   C36818202   0.975   6.020   6.592  0.6144  0.0212  0.8839
   38MOL   O36918203   1.043   6.055   6.688  0.0830  0.1923 -0.1036
   38MOL   C37018204   0.879   5.900   6.610 -0.3977  0.2986 -0.2107
   38MOL   C37118205   0.728   5.935   6.606 -0.1333 -0.0487  0.3545
   38MOL   C37218206   0.654   5.862   6.723 -0.3363 -0.5596  0.6308
   38MOL   O37318207   0.641   5.912   6.832 -0.1347 -0.2011  0.4722
   38MOL   H37418208   1.148   6.427   6.061 -0.0258 -1.1390 -1.9453
   38MOL   H37518209   1.027   6.317   6.067 -0.8637 -0.8526  1.5290
   38MOL   H37618210   1.040   6.402   6.283 -0.4070  0.9503 -1.8440
   38MOL   H37718211   1.208   6.349   6.304  0.4028 -0.9253 -0.0646
   38MOL   H37818212   1.133   6.113   6.259  0.9208 -0.1768  1.0416
   38MOL   H37918213   0.966   6.176   6.257  0.1612  0.9252  1.9735
   38MOL   H38018214   1.144   6.186   6.501 -0.6998 -1.6958  1.3250
   38MOL   H38118215   1.011   6.272   6.477 -0.4580 -0.4721  0.1332
   38MOL   H38218216   0.905   5.858   6.707  0.5574 -0.5254 -0.8077
   38MOL   H38318217   0.906   5.824   6.536 -1.7075 -1.9372  1.5326
   38MOL   H38418218   0.723   6.044   6.611  1.5033  0.0364  0.3522
   38MOL   H38518219   0.692   5.911   6.506 -1.3327  3.1626 -0.0357
   38MOL   O38618220   0.608   5.739   6.687  0.0848  0.5025 -0.5110
   38MOL   C38718221   0.533   5.662   6.776  0.1667  0.0725  0.1858
   38MOL   C38818222   0.427   5.582   6.686 -0.2873  0.3669  0.8345
   38MOL   C38918223   0.311   5.518   6.772 -0.2744 -0.5665  1.0281
   38MOL   C39018224   0.214   5.620   6.839  0.5229 -0.4013 -0.1138
   38MOL   O39118225   0.148   5.713   6.746 -0.1446  0.0908 -0.0526
   38MOL   C39218226   0.026   5.682   6.698 -0.0186  0.0779 -0.6602
   38MOL   O39318227   7.831   5.590   6.736  0.4507 -0.7046  0.0408
   38MOL   C39418228   7.854   5.785   6.603 -0.7456  0.1059  0.0735
   38MOL   C39518229   7.713   5.760   6.549  0.1036 -0.4551 -0.1307
   38MOL   C39618230   7.722   5.693   6.416 -0.4635  0.4158  0.0016
   38MOL   O39718231   7.669   5.739   6.312  0.1493  0.0611 -0.5266
   38MOL   H39818232   0.598   5.595   6.832  1.1279 -0.7431 -1.8705
   38MOL   H39918233   0.479   5.733   6.838  0.2307 -0.8570  1.3077
   38MOL   H40018234   0.469   5.502   6.625  0.1532 -0.6179  2.4223
   38MOL   H40118235   0.381   5.650   6.614 -0.1062 -1.1681 -0.7576
   38MOL   H40218236   0.342   5.446   6.848 -1.3190  0.0463  2.0529
   38MOL   H40318237   0.245   5.467   6.702 -0.5811  0.6114  0.4338
   38MOL   H40418238   0.140   5.580   6.909  1.0703  1.9860  1.8869
   38MOL   H40518239   0.268   5.695   6.897  0.9656 -2.2455  1.9406
   38MOL   H40618240   0.050   5.793   6.520 -2.8692  0.1042 -1.8130
   38MOL   H40718241   7.863   5.879   6.656 -1.5515  0.0089  0.3849
   38MOL   H40818242   7.665   5.688   6.615  1.3612 -0.4229  0.8462
   38MOL   H40918243   7.655   5.853   6.548 -2.4510 -1.9725  1.2354
   38MOL   O41018244   7.783   5.574   6.421  0.1018  0.1983  0.1851
   38MOL   C41118245   7.810   5.496   6.308  0.2663 -0.3237 -0.9379
   38MOL   C41218246   0.008   5.365   6.347 -0.2926  0.2114 -0.4353
   38MOL   C41318247   0.145   5.384   6.413  0.0904 -0.1925  0.7993
   38MOL   C41418248   0.245   5.458   6.322  0.5407 -0.2572  0.0509
   38MOL   O41518249   0.222   5.602   6.328 -0.1853  0.4196 -0.3169
   38MOL   C41618250   0.289   5.681   6.246  0.6869 -0.2001 -0.3906
   38MOL   O41718251   0.375   5.643   6.165  0.5337 -0.1644  0.3894
   38MOL   C41818252   0.252   5.828   6.268  0.7697  0.3345 -0.3525
   38MOL   C41918253   0.340   5.883   6.391 -0.2257 -0.2221 -0.2710
   38MOL   C42018254   0.249   5.970   6.481 -0.7131  0.8873  0.0770
   38MOL   O42118255   0.237   5.945   6.602  0.7934 -0.2007  0.0999
   38MOL   H42218256   7.710   5.473   6.271 -0.8709  2.5481  0.1914
   38MOL   H42318257   7.856   5.563   6.234 -0.5864 -0.0560 -1.2329
   38MOL   H42418258   0.024   5.301   6.260  2.7768  0.0242  0.2369
   38MOL   H42518259   7.831   5.311   6.427  1.7404 -0.7088  0.2843
   38MOL   H42618260   0.177   5.284   6.443  0.0588 -1.0284 -1.7794
   38MOL   H42718261   0.133   5.433   6.509 -0.9722  0.1992  0.4721
   38MOL   H42818262   0.349   5.441   6.351  0.9519  4.0646  1.3392
   38MOL   H42918263   0.235   5.422   6.219 -0.3080 -0.4717  0.2071
   38MOL   H43018264   0.147   5.840   6.292  0.7914 -2.2349  1.1992
   38MOL   H43118265   0.291   5.876   6.178 -2.2167 -1.5197 -2.7428
   38MOL   H43218266   0.382   5.801   6.450  2.2234  1.0082 -0.2534
   38MOL   H43318267   0.431   5.938   6.365  0.0356 -1.3681 -1.8653
   38MOL   O43418268   0.192   6.065   6.414 -0.6165  0.5438 -0.1162
   38MOL   C43518269   0.120   6.163   6.489  0.2227  0.1236  0.9403
   38MOL   C43618270   7.870   6.210   6.409  0.0495 -0.3139 -0.0530
   38MOL   C43718271   7.763   6.098   6.397  0.4492 -0.0614  0.7082
   38MOL   C43818272   7.670   6.126   6.282  0.9495 -0.4122  0.0736
   38MOL   O43918273   7.553   6.050   6.300 -0.3104  0.1691 -0.8202
   38MOL   C44018274   7.445   6.092   6.238 -0.9431  0.1530  0.1493
   38MOL   O44118275   7.431   6.181   6.157 -0.8962 -0.1345 -0.2478
   38MOL   C44218276   7.324   6.009   6.277  0.5183 -0.3171 -0.4920
   38MOL   C44318277   7.363   5.872   6.340 -0.0550 -0.5679  0.0884
   38MOL   C44418278   7.239   5.787   6.370 -0.3738 -0.1577  0.0159
   38MOL   O44518279   7.220   5.687   6.304 -0.0972 -0.1175  0.2303
   38MOL   H44618280   0.079   6.114   6.578 -0.0580 -3.9975 -1.3405
   38MOL   H44718281   0.181   6.248   6.518  1.1470 -0.0779 -0.4091
   38MOL   H44818282   0.040   6.226   6.311  0.3560  1.9907  0.4460
   38MOL   H44918283   7.838   6.311   6.436  0.4079  0.6005 -2.9011
   38MOL   H45018284   7.706   6.100   6.490 -1.5963  0.9261 -0.5345
   38MOL   H45118285   7.803   5.996   6.389 -1.7823 -0.9711  0.8094
   38MOL   H45218286   7.643   6.232   6.281  0.8035 -0.4495 -1.6942
   38MOL   H45318287   7.703   6.111   6.180 -0.9091  0.3233 -0.6642
   38MOL   H45418288   7.257   6.009   6.191 -3.8400 -0.6565  2.7562
   38MOL   H45518289   7.272   6.061   6.358 -1.3344 -0.1824 -1.7362
   38MOL   H45618290   7.425   5.813   6.273 -1.7731  0.1103 -2.1589
   38MOL   H45718291   7.430   5.895   6.423 -1.9510 -0.0015  1.4886
   38MOL   O45818292   7.153   5.841   6.470 -0.3049  0.9871 -0.6259
   38MOL   C45918293   7.058   5.750   6.529  0.3351  0.8056 -0.7392
   38MOL   C46018294   6.958   5.829   6.612  0.1996 -0.0462 -0.0626
   38MOL   C46118295   6.869   5.727   6.685 -0.0771  0.7620 -0.2777
   38MOL   C46218296   6.791   5.792   6.795 -1.1218 -0.0384 -0.6894
   38MOL   O46318297   6.690   5.879   6.762  0.5943  0.3503 -0.7001
   38MOL   C46418298   6.571   5.831   6.742 -0.0737  0.0945 -0.0342
   38MOL   O46518299   6.536   5.717   6.730  0.2224  0.1897  0.3541
   38MOL   C46618300   6.466   5.944   6.731  0.1031 -0.1861  0.1262
   38MOL   C46718301   6.382   5.907   6.604 -0.7490  1.2529 -0.0223
   38MOL   C46818302   6.246   5.863   6.639 -0.0930 -0.5030  0.2458
   38MOL   O46918303   6.157   5.854   6.552 -0.1216 -0.4722 -0.3425
   38MOL   H47018304   7.003   5.691   6.455 -0.7739 -0.9571  1.4363
   38MOL   H47118305   7.110   5.677   6.591 -0.5163 -0.1152 -1.0996
   38MOL   H47218306   6.890   5.890   6.551 -0.1426 -0.7841 -0.4259
   38MOL   H47318307   7.012   5.896   6.679  0.3154  1.8589 -2.0001
   38MOL   H47418308   6.931   5.641   6.714  1.7852  2.2284  0.1614
   38MOL   H47518309   6.811   5.688   6.601  0.8909  1.2759 -1.2112
   38MOL   H47618310   6.756   5.709   6.857  0.5398 -2.1347 -2.4832
   38MOL   H47718311   6.864   5.844   6.858  0.1342 -0.2793 -1.9213
   38MOL   H47818312   6.524   6.036   6.727  1.9703 -1.3006  0.8872
   38MOL   H47918313   6.409   5.944   6.824  1.3930  0.2247  0.9356
   38MOL   H48018314   6.381   5.994   6.539 -0.0523  1.3810  0.1340
   38MOL   H48118315   6.434   5.837   6.538 -1.0779  0.0813  0.9478
   38MOL   H48218316   6.213   5.838   6.740 -1.2825 -0.7689 -0.2030
   39MOL     O118317   7.452   6.643   4.468 -0.0491  0.1766 -1.2349
   39MOL     C218318   7.559   6.719   4.524 -0.8836 -0.4262  0.2923
   39MOL     C318319   7.556   6.698   4.672 -0.4086 -0.4516 -0.1024
   39MOL     C418320   7.416   6.728   4.734 -0.1110  0.3572  0.2341
   39MOL     C518321   7.335   6.597   4.749 -0.7538 -0.1575 -0.3195
   39MOL     O618322   7.208   6.628   4.810  0.2838  0.4331 -0.4235
   39MOL     C718323   7.202   6.649   4.946  0.0810  0.7693 -0.3889
   39MOL     O818324   7.289   6.614   5.029 -0.1454 -0.1836  0.6679
   39MOL     C918325   7.065   6.699   5.000 -0.2217  0.1421 -0.2469
   39MOL    C1018326   7.032   6.634   5.136  0.5842  0.1241 -0.2124
   39MOL    C1118327   6.905   6.677   5.203  0.2079  0.4979  0.8897
   39MOL    O1218328   6.908   6.758   5.296  0.4301  0.1744 -0.2697
   39MOL    H1318329   7.653   6.690   4.478  0.0247 -0.4608  2.1455
   39MOL    H1418330   7.544   6.823   4.495  0.8949 -0.2798 -0.1336
   39MOL    H1518331   7.622   6.776   4.709 -0.8091  0.8846 -2.1086
   39MOL    H1618332   7.599   6.605   4.707  2.3980  0.9600  0.2797
   39MOL    H1718333   7.360   6.796   4.670  0.2074  0.2002 -0.2226
   39MOL    H1818334   7.426   6.785   4.825  1.3778 -1.3076  1.1477
   39MOL    H1918335   7.310   6.542   4.658 -0.6470  0.1729 -0.5493
   39MOL    H2018336   7.376   6.524   4.818 -2.1858 -0.1313  0.5592
   39MOL    H2118337   6.990   6.678   4.925  0.4161  0.2775 -0.9263
   39MOL    H2218338   7.064   6.807   5.017  0.0133  0.0199  0.5689
   39MOL    H2318339   7.037   6.526   5.125  2.2013  0.3847 -2.4055
   39MOL    H2418340   7.106   6.656   5.213  0.0670 -0.6555  0.5196
   39MOL    H2518341   7.462   6.634   4.375  2.1564 -1.2167 -0.9055
   39MOL    O2618342   6.791   6.614   5.148 -0.1602 -0.8090  0.1848
   39MOL    C2718343   6.663   6.636   5.197  0.1876 -0.0011 -0.6033
   39MOL    C2818344   6.600   6.505   5.211 -0.3912 -0.2132 -0.5107
   39MOL    C2918345   6.462   6.519   5.279  0.0190 -0.4472 -0.4034
   39MOL    C3018346   6.473   6.545   5.427 -0.1245  0.8838  0.1064
   39MOL    O3118347   6.519   6.426   5.494  0.4643  0.0470  0.7354
   39MOL    C3218348   6.525   6.410   5.620  0.1001 -1.0124  0.7248
   39MOL    O3318349   6.549   6.504   5.698  0.1366  0.4059  0.4861
   39MOL    C3418350   6.484   6.268   5.645  0.0907  0.5632  0.4228
   39MOL    C3518351   6.460   6.242   5.795 -0.6678  0.3328  1.3093
   39MOL    C3618352   6.311   6.253   5.839  1.1692  0.3662 -1.1160
   39MOL    O3718353   6.241   6.164   5.894 -0.2752  0.6919 -0.2460
   39MOL    H3818354   6.669   6.683   5.295 -0.7911  0.5133 -0.7776
   39MOL    H3918355   6.610   6.692   5.120 -2.3059 -0.2979  0.8388
   39MOL    H4018356   6.672   6.446   5.266 -1.5781  0.6100  2.0245
   39MOL    H4118357   6.577   6.458   5.116  1.6077 -0.5491 -0.8453
   39MOL    H4218358   6.406   6.427   5.259  0.0098 -0.2831 -1.1497
   39MOL    H4318359   6.401   6.597   5.234 -0.0777 -0.0274  0.4549
   39MOL    H4418360   6.546   6.624   5.445 -0.8969  1.4666  0.6901
   39MOL    H4518361   6.374   6.566   5.465  0.2641  0.1658  1.5655
   39MOL    H4618362   6.580   6.224   5.617 -1.4986 -2.6323 -0.1515
   39MOL    H4718363   6.403   6.236   5.580  0.3137  2.1608 -0.6921
   39MOL    H4818364   6.498   6.141   5.807  0.4217  0.5943  0.1059
   39MOL    H4918365   6.523   6.310   5.853  1.2256  0.1791 -0.5202
   39MOL    O5018366   6.263   6.378   5.821 -1.2602  0.2122  0.2378
   39MOL    C5118367   6.129   6.415   5.842  0.6958  0.3132  0.6614
   39MOL    C5218368   6.073   6.505   5.733  0.1713  0.3096 -0.2542
   39MOL    C5318369   5.940   6.564   5.776 -0.3308 -0.1293 -0.1811
   39MOL    C5418370   5.822   6.563   5.681  0.8127  0.3697  0.2450
   39MOL    O5518371   5.708   6.603   5.746 -0.5844 -0.3722 -0.3805
   39MOL    C5618372   5.593   6.566   5.714 -0.7346 -0.5135  0.1708
   39MOL    O5718373   5.566   6.501   5.614  0.1093  0.1083  0.3735
   39MOL    C5818374   5.491   6.625   5.809 -0.0540 -0.5441 -0.6058
   39MOL    C5918375   5.342   6.597   5.789  0.9109  0.0715  0.0969
   39MOL    C6018376   5.260   6.715   5.732  0.2100  0.3968  0.9387
   39MOL    O6118377   5.308   6.806   5.665  0.1242 -0.3871  0.2456
   39MOL    H6218378   6.071   6.326   5.866  0.5995  0.5217  1.2163
   39MOL    H6318379   6.120   6.465   5.938 -0.1827  0.5394  0.4625
   39MOL    H6418380   6.055   6.442   5.646  0.2547  0.8549 -0.6712
   39MOL    H6518381   6.148   6.578   5.702  1.5226 -0.7897  0.3823
   39MOL    H6618382   5.955   6.669   5.800 -1.3800  0.4247 -1.7919
   39MOL    H6718383   5.903   6.527   5.871  0.7824  0.5776  0.5263
   39MOL    H6818384   5.843   6.617   5.589 -0.5215 -2.6685 -1.9275
   39MOL    H6918385   5.803   6.458   5.657  1.0380 -0.0102  1.6981
   39MOL    H7018386   5.517   6.731   5.814 -1.2392 -0.3159  1.4809
   39MOL    H7118387   5.513   6.590   5.911 -3.2496  1.8310  0.9673
   39MOL    H7218388   5.330   6.509   5.726  1.8691  0.5299 -0.7508
   39MOL    H7318389   5.301   6.562   5.884 -0.7889 -0.3199 -0.7550
   39MOL    O7418390   5.133   6.699   5.752  0.3486  0.0778  0.6697
   39MOL    C7518391   5.041   6.807   5.728  0.5008 -0.0893 -0.3367
   39MOL    C7618392   4.965   6.759   5.599 -0.7609 -0.3753  0.3805
   39MOL    C7718393   4.898   6.622   5.606 -0.2235  0.1982 -0.2704
   39MOL    C7818394   4.816   6.592   5.484  0.4241  0.7980 -0.0578
   39MOL    O7918395   4.741   6.704   5.438 -0.0486  0.1212  0.0646
   39MOL    C8018396   4.643   6.682   5.337  0.0480  0.2641 -0.7622
   39MOL    O8118397   4.625   6.575   5.283 -0.4366 -0.1472  0.1034
   39MOL    C8218398   4.574   6.807   5.283 -0.4804  0.5226  0.7129
   39MOL    C8318399   4.508   6.901   5.387  0.8648  0.0072  0.0233
   39MOL    C8418400   4.571   7.042   5.385 -0.2684  0.7017 -0.3627
   39MOL    O8518401   4.651   7.071   5.475  0.5290 -0.0019  0.7348
   39MOL    H8618402   4.976   6.810   5.815 -1.5435  2.0392 -1.8707
   39MOL    H8718403   5.098   6.899   5.717  2.1013 -0.8225  1.6068
   39MOL    H8818404   5.036   6.768   5.517 -0.5435  1.5707  0.7544
   39MOL    H8918405   4.897   6.835   5.562  0.1714  1.2642  1.9523
   39MOL    H9018406   4.840   6.622   5.698 -0.7844  0.6386 -0.6157
   39MOL    H9118407   4.963   6.539   5.631 -2.3569 -1.4661 -0.0817
   39MOL    H9218408   4.885   6.561   5.405  0.1623  4.7405 -1.9988
   39MOL    H9318409   4.743   6.516   5.508  1.3720  0.2955  1.2897
   39MOL    H9418410   4.505   6.783   5.202  0.7660 -1.2707  0.1484
   39MOL    H9518411   4.649   6.869   5.234  0.3714  0.2851  1.6922
   39MOL    H9618412   4.400   6.903   5.371  0.8414 -0.7747  0.0645
   39MOL    H9718413   4.518   6.842   5.478  2.5282  2.2678  1.3383
   39MOL    O9818414   4.538   7.121   5.283  0.0675 -0.0556  0.8825
   39MOL    C9918415   4.605   7.243   5.250  0.2150 -0.5627 -0.1898
   39MOL   C10018416   4.684   7.222   5.116 -0.4471 -0.5374  0.2127
   39MOL   C10118417   4.822   7.163   5.119 -0.8176  0.5321  0.5406
   39MOL   C10218418   4.882   7.122   4.982  0.5037 -0.5044 -0.0515
   39MOL   O10318419   5.002   7.053   5.005 -0.5600  0.3731 -0.0452
   39MOL   C10418420   5.057   7.008   4.893 -0.3708 -0.5511 -0.6080
   39MOL   O10518421   5.021   7.027   4.775  0.1438  0.4309  0.0425
   39MOL   C10618422   5.174   6.924   4.928 -0.7520 -0.3796 -0.0840
   39MOL   C10718423   5.260   6.879   4.805 -0.3350 -0.0972  0.2420
   39MOL   C10818424   5.233   6.727   4.788 -0.4655 -0.8312  0.2596
   39MOL   O10918425   5.207   6.645   4.868 -0.0947  0.7127  0.7182
   39MOL   H11018426   4.524   7.309   5.219  0.7122 -0.3677 -1.0918
   39MOL   H11118427   4.659   7.298   5.327  0.2644  0.0183 -0.6307
   39MOL   H11218428   4.696   7.324   5.081  2.3729 -2.0803 -3.7432
   39MOL   H11318429   4.621   7.159   5.053  0.3163 -0.7723 -0.3250
   39MOL   H11418430   4.823   7.078   5.188  2.6904 -1.3543 -1.6333
   39MOL   H11518431   4.893   7.231   5.166 -0.6261  0.7031  0.0072
   39MOL   H11618432   4.811   7.059   4.929 -1.6740 -0.1516  2.3167
   39MOL   H11718433   4.888   7.208   4.915 -0.5952 -0.5430 -0.2067
   39MOL   H11818434   5.134   6.830   4.967 -1.3625 -1.3168 -2.8269
   39MOL   H11918435   5.229   6.969   5.010  0.4150 -1.5708 -0.1815
   39MOL   H12018436   5.239   6.936   4.715  0.2421 -0.0064  0.1623
   39MOL   H12118437   5.368   6.885   4.823  0.0916  0.6527 -2.3040
   39MOL   O12218438   5.249   6.698   4.659 -0.0097 -1.4909 -0.7962
   39MOL   C12318439   5.245   6.564   4.615  0.7007 -0.1262 -0.4996
   39MOL   C12418440   5.382   6.502   4.613  0.2032  0.0261 -0.3480
   39MOL   C12518441   5.386   6.380   4.528  0.7710  0.7546 -0.2426
   39MOL   C12618442   5.537   6.349   4.491 -0.1121  0.7426 -0.7064
   39MOL   O12718443   5.623   6.317   4.600 -0.2470  0.0719 -0.1036
   39MOL   C12818444   5.616   6.203   4.669 -0.0592 -0.0896 -0.0933
   39MOL   O12918445   5.520   6.129   4.678  0.2026 -0.0008  0.3735
   39MOL   C13018446   5.740   6.184   4.755 -0.4045 -0.0379  0.7341
   39MOL   C13118447   5.731   6.063   4.842 -0.0569 -0.0987 -0.4558
   39MOL   C13218448   5.663   6.084   4.980 -0.1576  0.6856  0.2649
   39MOL   O13318449   5.724   6.043   5.080 -0.3225  0.5308 -0.8784
   39MOL   H13418450   5.184   6.500   4.679  3.0377  0.7441  2.7862
   39MOL   H13518451   5.207   6.568   4.514  0.3168 -0.3931 -0.3647
   39MOL   H13618452   5.411   6.490   4.718 -1.1096  0.3511  0.0614
   39MOL   H13718453   5.446   6.581   4.573  0.8441  0.5498  1.6568
   39MOL   H13818454   5.345   6.394   4.428  1.6405  0.8452 -0.5951
   39MOL   H13918455   5.334   6.292   4.566  1.2893 -0.5195 -2.3869
   39MOL   H14018456   5.544   6.266   4.421  0.5996  1.0998 -1.0669
   39MOL   H14118457   5.592   6.433   4.446  0.7810 -0.0581 -1.1406
   39MOL   H14218458   5.765   6.273   4.814  0.2745  0.1595  0.1573
   39MOL   H14318459   5.819   6.159   4.684 -3.0345  1.3980 -2.8662
   39MOL   H14418460   5.683   5.974   4.801 -0.2899 -1.6545  3.0204
   39MOL   H14518461   5.828   6.021   4.869 -0.4486 -0.0470  1.0723
   39MOL   O14618462   5.546   6.146   4.973 -0.0719  0.0123  0.3497
   39MOL   C14718463   5.478   6.189   5.087  1.1338  0.4388  0.0046
   39MOL   C14818464   5.336   6.202   5.045 -0.8111  0.3032 -0.3939
   39MOL   C14918465   5.312   6.300   4.931 -0.9911  0.3588  0.4052
   39MOL   C15018466   5.163   6.306   4.898  1.1513  0.0659  0.4938
   39MOL   O15118467   5.090   6.372   5.001 -0.1362 -0.1509  0.2177
   39MOL   C15218468   4.955   6.377   4.986 -1.2333  0.1840  0.7062
   39MOL   O15318469   4.886   6.324   4.895  0.7074  0.1392 -0.1352
   39MOL   C15418470   4.897   6.462   5.097  0.4534  0.5819  0.5096
   39MOL   C15518471   4.918   6.610   5.092 -0.1800 -0.0654  0.3985
   39MOL   C15618472   4.831   6.683   4.992  0.0616 -0.4856  0.3189
   39MOL   O15718473   4.746   6.760   5.021  0.3041 -0.3320 -0.4336
   39MOL   H15818474   5.497   6.107   5.155 -1.8850 -1.7242 -1.6814
   39MOL   H15918475   5.508   6.286   5.128 -0.2998  1.0306 -0.3229
   39MOL   H16018476   5.283   6.240   5.133 -0.3770  0.8542 -0.3644
   39MOL   H16118477   5.305   6.101   5.020  1.1431 -0.5583  0.5530
   39MOL   H16218478   5.363   6.283   4.837 -0.0161  1.4099  0.7330
   39MOL   H16318479   5.358   6.396   4.956 -0.0194 -0.0563  0.2271
   39MOL   H16418480   5.147   6.369   4.810 -0.8346 -1.2231 -0.1065
   39MOL   H16518481   5.127   6.210   4.862  0.5210  0.5077 -0.0666
   39MOL   H16618482   4.927   6.431   5.198  0.2571 -0.4123  0.2646
   39MOL   H16718483   4.790   6.447   5.109  0.0959  0.9158 -2.1624
   39MOL   H16818484   4.893   6.654   5.188  1.3470 -2.6831  2.0469
   39MOL   H16918485   5.026   6.622   5.084 -0.3146  1.2594  0.5405
   39MOL   O17018486   4.852   6.641   4.861  0.5621 -0.1809  0.0402
   39MOL   C17118487   4.783   6.713   4.757  0.1598 -0.2396 -0.1045
   39MOL   C17218488   4.857   6.676   4.628  0.3374  0.3430  0.5289
   39MOL   C17318489   4.837   6.530   4.593  0.2553  0.2353 -1.2451
   39MOL   C17418490   4.712   6.502   4.511  0.6168 -1.1112 -0.0056
   39MOL   O17518491   4.682   6.363   4.507 -0.4064  0.4051  0.3029
   39MOL   C17618492   4.577   6.322   4.436  0.0229  0.0092  0.7068
   39MOL   O17718493   4.509   6.389   4.363  0.3831 -0.0992  0.6395
   39MOL   C17818494   4.559   6.170   4.455  0.7264 -0.2108 -1.0862
   39MOL   C17918495   4.417   6.129   4.425 -0.1872 -0.6065  0.1236
   39MOL   C18018496   4.397   6.032   4.311 -0.0634 -0.1868  0.1015
   39MOL   O18118497   4.384   5.911   4.328  0.0566  0.4395 -0.5278
   39MOL   H18218498   4.679   6.684   4.742  0.2875  0.4745 -2.4646
   39MOL   H18318499   4.785   6.820   4.779 -2.1678 -0.9088  3.9880
   39MOL   H18418500   4.964   6.696   4.633  0.3047  0.4628  0.7750
   39MOL   H18518501   4.815   6.738   4.549  0.5339  0.3437  0.4247
   39MOL   H18618502   4.824   6.464   4.678  1.6546  1.2028 -0.2595
   39MOL   H18718503   4.917   6.493   4.528  2.8643  0.1675  1.8796
   39MOL   H18818504   4.634   6.552   4.568  0.9434  0.5703 -0.9885
   39MOL   H18918505   4.723   6.543   4.410 -1.6157 -1.2457 -0.3281
   39MOL   H19018506   4.587   6.147   4.557  1.8958  1.8869 -0.8974
   39MOL   H19118507   4.625   6.109   4.394  2.4800 -1.3497  1.8676
   39MOL   H19218508   4.377   6.080   4.515 -0.1934  0.0064  0.4550
   39MOL   H19318509   4.353   6.214   4.402 -0.7600 -1.4871 -1.6297
   39MOL   O19418510   4.388   6.093   4.200  1.0272 -0.6413  0.1836
   39MOL   C19518511   4.380   6.016   4.077 -0.0646  0.0224 -0.5449
   39MOL   C19618512   4.370   6.117   3.965 -0.0510  0.3549  0.7188
   39MOL   C19718513   4.327   6.053   3.830 -0.8027  0.0926 -0.7051
   39MOL   C19818514   4.307   6.171   3.716 -0.0053  0.0973 -0.3204
   39MOL   O19918515   4.208   6.264   3.756 -0.1812  0.1750 -0.1509
   39MOL   C20018516   4.155   6.346   3.656 -0.0212 -0.1920 -0.6721
   39MOL   O20118517   4.193   6.357   3.539 -0.4977 -0.9361  0.1170
   39MOL   C20218518   4.027   6.413   3.705 -1.0111  0.6487  0.2780
   39MOL   C20318519   3.983   6.535   3.618  0.6309  0.2180  0.4379
   39MOL   C20418520   3.891   6.492   3.507  0.2409 -0.3390  0.1948
   39MOL   O20518521   3.826   6.388   3.515 -0.0712  0.0165  0.5022
   39MOL   H20618522   4.457   5.948   4.042 -0.6321  0.6900 -3.2417
   39MOL   H20718523   4.286   5.961   4.080 -2.2402  3.5536 -0.7985
   39MOL   H20818524   4.466   6.167   3.953  0.2097 -0.3007 -0.0146
   39MOL   H20918525   4.303   6.197   3.996 -1.7863 -0.1864 -1.4835
   39MOL   H21018526   4.239   5.994   3.856 -1.2857  0.6816 -0.9686
   39MOL   H21118527   4.402   5.982   3.794 -1.7398 -0.5325 -1.4617
   39MOL   H21218528   4.400   6.226   3.705 -0.4597  0.8123 -0.6245
   39MOL   H21318529   4.281   6.123   3.622 -2.0284 -0.3921  0.4625
   39MOL   H21418530   4.047   6.440   3.809  2.0293  2.5308 -0.7265
   39MOL   H21518531   3.954   6.333   3.704  0.3627 -0.6313 -0.0056
   39MOL   H21618532   3.924   6.605   3.677 -1.4247 -1.9915  1.0691
   39MOL   H21718533   4.075   6.583   3.583  1.5149 -0.0320  2.3938
   39MOL   O21818534   3.891   6.579   3.403  0.2575 -0.6936  0.0401
   39MOL   C21918535   3.794   6.554   3.300  0.2725 -0.2337  0.0787
   39MOL   C22018536   3.670   6.642   3.307  0.4227  0.1400 -0.0087
   39MOL   C22118537   3.588   6.623   3.439 -0.3350 -0.3252  0.2021
   39MOL   C22218538   3.468   6.721   3.441 -0.3747  0.3365 -0.0847
   39MOL   O22318539   3.378   6.688   3.544 -0.0206 -0.3206 -0.0683
   39MOL   C22418540   3.276   6.764   3.576 -0.1390  0.1784 -0.2941
   39MOL   O22518541   3.245   6.865   3.518 -0.1134  0.2835 -0.0201
   39MOL   C22618542   3.179   6.701   3.674  0.2011  0.3742  0.3436
   39MOL   C22718543   3.145   6.794   3.791 -0.0051  0.1738  0.3042
   39MOL   C22818544   3.117   6.727   3.922 -0.5268  0.2297  0.6687
   39MOL   O22918545   3.004   6.719   3.953  0.0783 -0.3089 -0.8247
   39MOL   H23018546   3.852   6.584   3.213  1.9665 -0.7327  1.0226
   39MOL   H23118547   3.762   6.451   3.283 -0.3454 -0.0475  0.0993
   39MOL   H23218548   3.601   6.609   3.230 -0.6539 -0.4345  1.1694
   39MOL   H23318549   3.691   6.747   3.289 -0.0213  0.0855 -0.8594
   39MOL   H23418550   3.654   6.652   3.520 -0.9385  0.9347  0.2617
   39MOL   H23518551   3.561   6.519   3.454  1.1049 -0.6339  0.7521
   39MOL   H23618552   3.491   6.827   3.456 -1.5526  0.4537  0.9188
   39MOL   H23718553   3.412   6.717   3.347  0.0700 -1.8532 -0.2630
   39MOL   H23818554   3.228   6.615   3.719 -0.1456  0.9442  1.8808
   39MOL   H23918555   3.090   6.659   3.628  1.0144  1.0760 -1.9151
   39MOL   H24018556   3.233   6.857   3.804 -0.6544  1.5184 -1.5426
   39MOL   H24118557   3.061   6.860   3.770 -1.3972 -0.9902  2.0434
   39MOL   O24218558   3.233   6.690   3.986  0.0220 -0.1039  0.2758
   39MOL   C24318559   3.218   6.616   4.107  0.4576 -0.0239 -0.4719
   39MOL   C24418560   3.245   6.702   4.231 -0.0764 -0.2486  0.5872
   39MOL   C24518561   3.397   6.723   4.256 -0.5691 -0.8855 -0.2124
   39MOL   C24618562   3.426   6.834   4.348 -0.3436 -0.2848 -0.4235
   39MOL   O24718563   3.405   6.803   4.484 -0.4539 -0.4392 -0.0219
   39MOL   C24818564   3.512   6.841   4.572 -0.2648 -0.1913  0.4811
   39MOL   O24918565   3.627   6.875   4.545 -0.2464 -0.3682 -0.2608
   39MOL   C25018566   3.468   6.832   4.715  0.5917  0.2657  0.4813
   39MOL   C25118567   3.504   6.687   4.768  0.5780 -0.5748 -0.0413
   39MOL   C25218568   3.464   6.676   4.921 -0.4071  0.4336 -0.0434
   39MOL   O25318569   3.344   6.675   4.957 -0.2702  0.3504  0.6412
   39MOL   H25418570   3.119   6.571   4.113  0.7165 -0.4754  0.4021
   39MOL   H25518571   3.296   6.541   4.113  1.1750  0.8049  0.6517
   39MOL   H25618572   3.200   6.664   4.323 -0.0081 -1.8314 -0.0295
   39MOL   H25718573   3.212   6.806   4.218  1.3485  0.0696 -0.5734
   39MOL   H25818574   3.449   6.748   4.163  2.5605 -0.1380  1.6884
   39MOL   H25918575   3.431   6.628   4.296 -0.4879 -0.2593  1.2313
   39MOL   H26018576   3.524   6.868   4.315  0.8516 -2.3556  0.8606
   39MOL   H26118577   3.362   6.922   4.340  0.0524  0.0256 -0.2253
   39MOL   H26218578   3.361   6.848   4.718  0.6226  0.8209 -0.8275
   39MOL   H26318579   3.512   6.895   4.793 -0.1064  2.1222 -0.5826
   39MOL   H26418580   3.432   6.623   4.717 -0.5737  1.0902 -0.5475
   39MOL   H26518581   3.607   6.652   4.755 -0.2633 -3.3595  0.2834
   39MOL   O26618582   3.562   6.649   5.005  0.5902  0.0217  0.5655
   39MOL   C26718583   3.539   6.648   5.144  0.4383  0.7870  0.1313
   39MOL   C26818584   3.655   6.721   5.213  0.4348 -0.2503 -0.2884
   39MOL   C26918585   3.720   6.838   5.144 -0.6462  1.0410  0.3003
   39MOL   C27018586   3.830   6.908   5.218 -0.4202 -0.1743  0.9730
   39MOL   O27118587   3.953   6.836   5.228  0.3425  0.0142 -0.4660
   39MOL   C27218588   3.998   6.798   5.348 -0.2759  0.0183  0.2506
   39MOL   O27318589   3.939   6.821   5.453 -0.1073 -0.3071 -0.9130
   39MOL   C27418590   4.123   6.720   5.343 -0.5674  0.2983 -0.2819
   39MOL   C27518591   4.108   6.580   5.405 -0.1791 -0.5211  0.5069
   39MOL   C27618592   4.213   6.471   5.374 -0.9029  0.1589 -0.5603
   39MOL   O27718593   4.237   6.378   5.445  0.0672 -0.4877 -0.1934
   39MOL   H27818594   3.444   6.693   5.174  0.1061  0.3641 -0.2625
   39MOL   H27918595   3.555   6.547   5.181  0.7170  1.1052  0.8898
   39MOL   H28018596   3.746   6.664   5.233 -0.2549 -1.3195 -0.1518
   39MOL   H28118597   3.618   6.752   5.311  0.8087 -0.9731  0.0880
   39MOL   H28218598   3.638   6.900   5.107 -1.0875 -0.3837 -1.2361
   39MOL   H28318599   3.766   6.807   5.050  3.2265  2.4594  1.6528
   39MOL   H28418600   3.848   7.002   5.166 -2.6085  0.3031  1.0173
   39MOL   H28518601   3.790   6.931   5.317 -0.5629 -1.7696  1.2984
   39MOL   H28618602   4.207   6.772   5.388  1.4602 -1.2864 -2.0813
   39MOL   H28718603   4.150   6.701   5.239 -2.4936 -0.9880 -0.5735
   39MOL   H28818604   4.100   6.588   5.514  1.0682 -0.3708  0.5907
   39MOL   H28918605   4.014   6.546   5.362 -0.4042 -1.0957  1.4163
   39MOL   O29018606   4.268   6.485   5.251  0.0696 -0.6546 -0.2264
   39MOL   C29118607   4.350   6.384   5.187  0.2798 -0.4695 -0.3348
   39MOL   C29218608   4.405   6.439   5.058 -0.0523 -0.3408  0.8954
   39MOL   C29318609   4.508   6.331   5.002  0.0518  0.1172 -0.0599
   39MOL   C29418610   4.573   6.382   4.872  0.1547 -0.7388  0.1969
   39MOL   O29518611   4.484   6.361   4.765  0.1798 -0.6223 -0.5332
   39MOL   C29618612   4.408   6.466   4.719 -0.3182 -1.1297  0.1948
   39MOL   O29718613   4.436   6.587   4.743 -0.1261  0.0460 -0.2300
   39MOL   C29818614   4.290   6.435   4.625 -0.7576 -0.4819 -0.3032
   39MOL   C29918615   4.223   6.564   4.560  0.3823  0.4032 -0.2006
   39MOL   C30018616   4.204   6.549   4.410 -0.2753 -0.5492  0.1002
   39MOL   O30118617   4.239   6.635   4.324  0.5148 -0.3555  0.1370
   39MOL   H30218618   4.432   6.366   5.257  0.3847 -2.1838 -0.8657
   39MOL   H30318619   4.289   6.296   5.170 -2.0259  1.3021 -1.4009
   39MOL   H30418620   4.431   6.544   5.067  0.8738 -0.4397 -0.4081
   39MOL   H30518621   4.327   6.441   4.982 -0.9894  0.1990  1.8596
   39MOL   H30618622   4.452   6.238   4.997 -1.6709  1.1896 -1.4134
   39MOL   H30718623   4.586   6.303   5.073 -1.1028 -1.1664  0.7251
   39MOL   H30818624   4.623   6.479   4.878 -1.8604  0.2354  1.8726
   39MOL   H30918625   4.653   6.319   4.833  0.1845 -0.7153  0.2217
   39MOL   H31018626   4.217   6.380   4.685  1.6889 -1.5163  1.8137
   39MOL   H31118627   4.326   6.369   4.545  0.1862 -0.8046  0.3836
   39MOL   H31218628   4.123   6.571   4.603  0.3854 -2.4180  0.4018
   39MOL   H31318629   4.287   6.650   4.576  0.1411  0.6561 -0.5963
   39MOL   O31418630   4.125   6.438   4.378 -0.5250 -0.6891 -0.0276
   39MOL   C31518631   4.073   6.432   4.245  0.2809 -0.1387 -0.3545
   39MOL   C31618632   3.955   6.323   4.258  0.6934 -0.8224  0.0194
   39MOL   C31718633   4.002   6.183   4.266 -0.0500 -0.2182 -0.9005
   39MOL   C31818634   3.884   6.075   4.239 -0.9163 -0.5866  0.2535
   39MOL   O31918635   3.859   6.059   4.101  0.7206  0.2475  0.1964
   39MOL   C32018636   3.918   5.962   4.031  0.5231  0.1024 -0.0485
   39MOL   O32118637   3.997   5.880   4.073  0.3520  0.7187 -0.1571
   39MOL   C32218638   3.878   5.968   3.883  0.0171  0.6138 -0.7273
   39MOL   C32318639   3.933   5.864   3.801 -0.1717  0.0366  0.3458
   39MOL   C32418640   3.979   5.913   3.672 -0.2824 -0.5894  0.2058
   39MOL   O32518641   4.083   5.862   3.633  0.1010  0.4815  0.2563
   39MOL   H32618642   4.046   6.530   4.207 -1.6591 -1.1562 -1.6969
   39MOL   H32718643   4.158   6.394   4.188 -1.3894 -2.4904 -1.3806
   39MOL   H32818644   3.887   6.321   4.173  2.0689  0.3146 -1.1377
   39MOL   H32918645   3.891   6.336   4.346  1.4437  0.5978  0.3754
   39MOL   H33018646   4.045   6.174   4.366  0.7101  2.0351 -0.9892
   39MOL   H33118647   4.091   6.160   4.208  0.5982 -2.8511  1.0360
   39MOL   H33218648   3.887   5.982   4.296 -0.8031  0.3367  1.7670
   39MOL   H33318649   3.796   6.120   4.285  0.4571  2.4030  0.0610
   39MOL   H33418650   3.923   6.058   3.844 -0.6125  1.0525 -0.4549
   39MOL   H33518651   3.770   5.982   3.877  0.0819  0.1874 -3.3422
   39MOL   H33618652   4.021   5.823   3.851 -0.4179  0.8028  1.4378
   39MOL   H33718653   3.861   5.783   3.796 -2.2285  1.8354 -0.2491
   39MOL   O33818654   3.905   6.009   3.618  0.0309  0.2126  0.1194
   39MOL   C33918655   3.935   6.063   3.500  0.8457  0.4208 -0.3407
   39MOL   C34018656   3.814   6.053   3.404  0.5760  0.4939 -0.1982
   39MOL   C34118657   3.818   6.147   3.280 -0.3272  0.6450 -0.5007
   39MOL   C34218658   3.686   6.148   3.204  0.2309 -0.4163  0.5277
   39MOL   O34318659   3.703   6.233   3.089  0.3524  0.2995  0.0392
   39MOL   C34418660   3.752   6.185   2.971  0.4465 -0.5113 -0.3787
   39MOL   O34518661   3.763   6.072   2.942  0.2377  0.2396  0.0206
   39MOL   C34618662   3.806   6.303   2.887 -0.0420 -0.5071 -0.0987
   39MOL   C34718663   3.962   6.299   2.886 -0.1424  0.1432  0.0067
   39MOL   C34818664   4.019   6.362   3.010  0.0389  0.1205 -0.5999
   39MOL   O34918665   3.980   6.472   3.048  0.3062  0.0298 -0.0767
   39MOL   H35018666   3.967   6.167   3.513 -1.7746  0.9200  2.4036
   39MOL   H35118667   4.014   6.003   3.456  1.2648  0.3777  0.4625
   39MOL   H35218668   3.740   6.094   3.472  0.3682  2.4750 -1.5749
   39MOL   H35318669   3.800   5.950   3.371 -1.2485  0.7215 -0.1823
   39MOL   H35418670   3.894   6.111   3.211  0.7489 -1.6071  1.7933
   39MOL   H35518671   3.853   6.245   3.315  0.0165  0.3127  0.0905
   39MOL   H35618672   3.663   6.046   3.176  0.4891  0.3163 -2.5911
   39MOL   H35718673   3.599   6.179   3.261 -1.2265  0.0736 -1.8793
   39MOL   H35818674   3.777   6.396   2.935  0.3274 -0.4938  0.1079
   39MOL   H35918675   3.779   6.304   2.782  0.4358 -0.0441 -0.2183
   39MOL   H36018676   3.997   6.197   2.872 -3.0588 -0.9156  0.0577
   39MOL   H36118677   4.002   6.349   2.798  0.3236  1.8587  1.1519
   39MOL   O36218678   4.102   6.276   3.077  0.0947  0.8912  0.0816
   39MOL   C36318679   4.145   6.306   3.208 -0.4492  0.5951  0.0356
   39MOL   C36418680   4.286   6.257   3.236  0.1475 -0.0721 -0.2942
   39MOL   C36518681   4.276   6.108   3.278  0.0207 -0.4835 -0.5081
   39MOL   C36618682   4.407   6.059   3.345 -0.4772 -0.1020 -0.0501
   39MOL   O36718683   4.376   5.932   3.408  0.3157  0.1931  0.3589
   39MOL   C36818684   4.399   5.818   3.340  0.2994 -0.3277 -0.1368
   39MOL   O36918685   4.451   5.808   3.230  0.0826  0.2048  0.5369
   39MOL   C37018686   4.354   5.699   3.417 -0.1293  0.1069 -0.0570
   39MOL   C37118687   4.282   5.590   3.334  0.5366 -0.0538 -1.1432
   39MOL   C37218688   4.131   5.594   3.362 -0.2665  0.3011 -0.1785
   39MOL   O37318689   4.067   5.522   3.444  0.1598  0.0046  0.5955
   39MOL   H37418690   4.136   6.414   3.211 -0.3736  0.6300 -0.7755
   39MOL   H37518691   4.075   6.278   3.287 -0.2646  1.2924  0.4530
   39MOL   H37618692   4.334   6.304   3.322 -2.5896  3.3186 -0.4699
   39MOL   H37718693   4.353   6.278   3.152  2.2664 -1.4560  1.0225
   39MOL   H37818694   4.251   6.040   3.196  0.5898  0.1216 -1.1920
   39MOL   H37918695   4.196   6.093   3.350 -1.4599  0.2273 -1.9733
   39MOL   H38018696   4.496   6.051   3.283  0.2061 -0.5280  0.9646
   39MOL   H38118697   4.420   6.123   3.432 -1.4354  1.2911 -0.9073
   39MOL   H38218698   4.302   5.729   3.508  0.9800  0.1048  0.5757
   39MOL   H38318699   4.450   5.666   3.456 -0.1003  0.3867  0.1119
   39MOL   H38418700   4.296   5.598   3.227  1.9354  0.6447 -0.9183
   39MOL   H38518701   4.325   5.492   3.355  0.1573  0.0087 -0.0405
   39MOL   O38618702   4.077   5.692   3.283 -0.3034 -0.2960  0.4372
   39MOL   C38718703   3.941   5.716   3.280  0.2449  0.6882  0.5874
   39MOL   C38818704   3.875   5.620   3.186 -0.1097 -0.2108  0.5835
   39MOL   C38918705   3.887   5.664   3.041  0.1501  0.3624 -0.3746
   39MOL   C39018706   4.023   5.631   2.985  0.3996  0.2748 -0.2489
   39MOL   O39118707   4.041   5.494   2.961  0.1065  0.0336  0.3154
   39MOL   C39218708   4.068   5.452   2.830 -0.4940 -0.2023 -0.2103
   39MOL   O39318709   4.087   5.531   2.739 -0.2969 -0.3107  0.7197
   39MOL   C39418710   4.051   5.301   2.819 -0.0125  0.4313  0.4755
   39MOL   C39518711   4.151   5.234   2.722  0.0829  0.7100 -0.3624
   39MOL   C39618712   4.232   5.136   2.802  0.6700  0.0752  0.6531
   39MOL   O39718713   4.349   5.160   2.836 -0.1240 -0.4482 -0.4033
   39MOL   H39818714   3.891   5.704   3.376 -1.3189  0.1767 -0.2668
   39MOL   H39918715   3.923   5.816   3.239 -0.4651 -0.1002 -1.0963
   39MOL   H40018716   3.769   5.606   3.202 -0.0027 -0.2786  1.2349
   39MOL   H40118717   3.904   5.517   3.203  0.6030 -0.3592 -1.3516
   39MOL   H40218718   3.878   5.771   3.021 -2.5105  0.5926  1.6769
   39MOL   H40318719   3.808   5.618   2.982 -1.4538  0.8190  1.3540
   39MOL   H40418720   4.043   5.693   2.898  3.3620  0.4744  0.5123
   39MOL   H40518721   4.108   5.670   3.042 -2.2954  5.4179  0.5918
   39MOL   H40618722   3.953   5.283   2.777 -0.0587 -0.4624  0.9532
   39MOL   H40718723   4.049   5.260   2.920  1.6455  0.1561  0.4221
   39MOL   H40818724   4.098   5.184   2.640 -2.1806 -1.1528  2.1461
   39MOL   H40918725   4.221   5.303   2.675  1.3865  0.4072  1.0838
   39MOL   O41018726   4.167   5.021   2.838 -0.1156  0.0381 -0.1937
   39MOL   C41118727   4.233   4.936   2.931  0.4726 -0.1155 -0.0676
   39MOL   C41218728   4.182   4.799   2.905 -0.3676 -0.2458  0.1921
   39MOL   C41318729   4.256   4.719   2.795 -0.6549 -0.1665  0.1729
   39MOL   C41418730   4.232   4.570   2.783  0.8077  0.2078 -0.2935
   39MOL   O41518731   4.101   4.538   2.746  0.6071  0.3542  0.1706
   39MOL   C41618732   4.001   4.525   2.841 -0.0688 -0.3761  0.4626
   39MOL   O41718733   4.022   4.520   2.957  0.5428 -0.2003  0.1346
   39MOL   C41818734   3.867   4.511   2.786 -0.6669 -0.4228  0.4332
   39MOL   C41918735   3.804   4.651   2.750  0.1666 -0.2957 -0.2065
   39MOL   C42018736   3.691   4.690   2.847  0.0701  0.3009  0.6238
   39MOL   O42118737   3.574   4.679   2.816 -0.6646 -0.5565  0.0856
   39MOL   H42218738   4.340   4.948   2.919  0.3002  3.3765  1.2968
   39MOL   H42318739   4.211   4.972   3.032  2.8637 -0.9882  0.8057
   39MOL   H42418740   4.075   4.801   2.885 -0.7386  0.5534  2.0601
   39MOL   H42518741   4.188   4.741   2.998 -0.1481  0.6764  0.7639
   39MOL   H42618742   4.364   4.734   2.804 -0.7732  0.4976  0.4427
   39MOL   H42718743   4.227   4.760   2.699  0.6067  0.1555 -0.0759
   39MOL   H42818744   4.299   4.521   2.713  0.9369 -1.8191  1.1782
   39MOL   H42918745   4.252   4.527   2.881  1.2849 -1.1885 -0.9965
   39MOL   H43018746   3.798   4.447   2.841  0.7723 -2.0197  0.4233
   39MOL   H43118747   3.879   4.458   2.691 -1.9030 -2.8286  1.5886
   39MOL   H43218748   3.883   4.726   2.739  0.9731 -1.2118 -0.8351
   39MOL   H43318749   3.767   4.647   2.648 -1.2511 -1.4778  0.3317
   39MOL   O43418750   3.743   4.744   2.951 -0.1866  0.2488  0.2924
   39MOL   C43518751   3.656   4.795   3.048  0.5026  1.6574  0.1597
   39MOL   C43618752   3.591   4.677   3.126  0.2452 -0.0323 -0.0818
   39MOL   C43718753   3.509   4.727   3.243  0.4161  0.7158  0.7144
   39MOL   C43818754   3.426   4.617   3.316 -0.0788  0.2114  0.2710
   39MOL   O43918755   3.321   4.555   3.236  0.0059 -0.1587  0.0527
   39MOL   C44018756   3.241   4.462   3.286 -0.2715 -0.2218  0.7114
   39MOL   O44118757   3.230   4.421   3.400 -0.1606 -0.3383 -0.2691
   39MOL   C44218758   3.146   4.428   3.170 -0.7029 -0.0702 -0.6731
   39MOL   C44318759   3.062   4.549   3.127 -0.3228 -0.0994 -0.7565
   39MOL   C44418760   2.982   4.527   3.001  0.8425 -0.7082  0.0383
   39MOL   O44518761   2.882   4.595   2.976  0.2304 -0.1573 -0.0256
   39MOL   H44618762   3.712   4.838   3.131  0.9527  2.6544 -0.6396
   39MOL   H44718763   3.582   4.867   3.013 -2.8616 -1.4985  0.5531
   39MOL   H44818764   3.665   4.612   3.171 -0.2914 -0.5691  0.0272
   39MOL   H44918765   3.518   4.622   3.067  0.1157 -0.4756  0.4864
   39MOL   H45018766   3.444   4.806   3.205 -3.5273 -2.2588  0.9567
   39MOL   H45118767   3.570   4.764   3.326  0.8250 -0.4047  0.9160
   39MOL   H45218768   3.498   4.539   3.339  1.1352  1.2690  0.0880
   39MOL   H45318769   3.373   4.659   3.402  0.2429 -1.1929  1.1645
   39MOL   H45418770   3.074   4.349   3.194 -2.8905  1.7922 -0.8443
   39MOL   H45518771   3.202   4.389   3.085 -0.6047 -2.8458  0.6198
   39MOL   H45618772   3.003   4.579   3.214  0.2108  0.5087 -0.5998
   39MOL   H45718773   3.116   4.640   3.102 -0.5734  0.5298  0.9172
   39MOL   O45818774   3.046   4.460   2.911  0.0998 -0.4486  0.5115
   39MOL   C45918775   3.004   4.442   2.781  0.2050  0.1585 -0.5328
   39MOL   C46018776   3.123   4.422   2.683  0.4372 -0.0199 -0.5198
   39MOL   C46118777   3.196   4.560   2.653 -0.2457 -0.6156 -0.3826
   39MOL   C46218778   3.306   4.534   2.552 -0.7714 -0.5838 -0.2346
   39MOL   O46318779   3.270   4.493   2.419 -0.0403  0.4462 -0.3955
   39MOL   C46418780   3.362   4.430   2.344  0.0691  0.2436 -0.1377
   39MOL   O46518781   3.481   4.422   2.367 -0.4472  0.1259  0.8716
   39MOL   C46618782   3.311   4.370   2.210  1.0181 -0.1036  0.2393
   39MOL   C46718783   3.156   4.366   2.212  0.2868 -0.8764 -0.3000
   39MOL   C46818784   3.101   4.293   2.094 -0.1751  0.4504 -0.1996
   39MOL   O46918785   3.178   4.225   2.023 -0.2515 -0.6171  0.2104
   39MOL   H47018786   2.935   4.358   2.782  0.7570 -0.3235  2.7863
   39MOL   H47118787   2.956   4.534   2.749 -1.1979 -0.6494 -0.8021
   39MOL   H47218788   3.087   4.381   2.589 -1.2015 -1.3727  0.6721
   39MOL   H47318789   3.193   4.353   2.729 -0.0687 -0.5211 -0.4941
   39MOL   H47418790   3.238   4.604   2.744 -0.8722  0.1081 -0.4422
   39MOL   H47518791   3.129   4.627   2.600 -1.2790 -0.6568  0.8381
   39MOL   H47618792   3.367   4.624   2.541 -2.2439  0.2962 -1.4971
   39MOL   H47718793   3.367   4.451   2.589 -0.5504 -0.2490  0.1573
   39MOL   H47818794   3.356   4.271   2.205 -0.9522 -0.9247 -1.8063
   39MOL   H47918795   3.340   4.434   2.127  2.0304  0.1434  0.7741
   39MOL   H48018796   3.118   4.308   2.295  0.2777  1.7378  1.5816
   39MOL   H48118797   3.107   4.463   2.203 -3.3154 -2.6736 -0.5369
   39MOL   H48218798   2.994   4.284   2.074 -0.5911  1.0149  1.7123
   40MOL     O118799   2.942   5.813   2.540 -0.6473  0.4301 -0.2956
   40MOL     C218800   2.966   5.953   2.536 -0.0676  0.3883 -0.1651
   40MOL     C318801   3.031   5.999   2.409  0.3740  0.0591  0.4830
   40MOL     C418802   3.020   6.153   2.384 -0.2953  0.7358 -0.6605
   40MOL     C518803   3.100   6.195   2.262 -0.8085  0.5153 -0.1675
   40MOL     O618804   3.235   6.162   2.278 -0.8322  0.2072 -0.6554
   40MOL     C718805   3.330   6.246   2.320  0.3698  0.0345  0.6424
   40MOL     O818806   3.311   6.366   2.338  0.5344 -0.8063 -0.1170
   40MOL     C918807   3.473   6.191   2.310  0.7714 -0.0800 -0.4006
   40MOL    C1018808   3.579   6.286   2.354 -0.4970  0.1876 -0.8098
   40MOL    C1118809   3.703   6.198   2.372 -0.3251 -0.3030  0.2742
   40MOL    O1218810   3.772   6.169   2.277 -0.2105 -0.2910 -0.0888
   40MOL    H1318811   2.864   5.991   2.533 -0.9640 -1.8018  1.3228
   40MOL    H1418812   3.025   5.970   2.626  1.3336 -1.9944 -0.5792
   40MOL    H1518813   2.991   5.951   2.320 -1.7773  0.2997  1.2905
   40MOL    H1618814   3.137   5.976   2.418 -0.0746 -2.0887  0.5679
   40MOL    H1718815   3.049   6.210   2.472  2.0398 -2.5788  0.8114
   40MOL    H1818816   2.916   6.180   2.366 -0.8992 -0.7547  0.4879
   40MOL    H1918817   3.059   6.143   2.176 -0.3152 -0.4889  0.2049
   40MOL    H2018818   3.082   6.302   2.246 -0.0672  0.4658 -1.3654
   40MOL    H2118819   3.491   6.179   2.203 -0.5114  1.3004 -0.7940
   40MOL    H2218820   3.482   6.091   2.351 -2.0359  0.4524  1.6767
   40MOL    H2318821   3.585   6.371   2.285 -0.7821  2.1759  1.5676
   40MOL    H2418822   3.561   6.340   2.446  0.9201 -0.5912 -0.0546
   40MOL    H2518823   2.853   5.811   2.508 -0.5090  0.3488 -0.6890
   40MOL    O2618824   3.723   6.165   2.504  0.4049 -0.3305  0.2999
   40MOL    C2718825   3.827   6.087   2.543  0.3927  0.7753 -0.3803
   40MOL    C2818826   3.763   5.953   2.586  0.4058 -0.3090 -0.0687
   40MOL    C2918827   3.860   5.851   2.645  0.4752 -0.6280  0.5770
   40MOL    C3018828   3.800   5.708   2.643  0.1015  0.2405  1.0973
   40MOL    O3118829   3.824   5.647   2.513 -0.3636  1.2148  0.1996
   40MOL    C3218830   3.797   5.508   2.489  0.0315  0.0612 -0.3863
   40MOL    O3318831   3.748   5.435   2.578 -0.5785 -0.3565  0.1124
   40MOL    C3418832   3.826   5.463   2.350  0.5981 -0.3833  0.7864
   40MOL    C3518833   3.752   5.331   2.314 -0.0776 -0.2724 -0.4065
   40MOL    C3618834   3.689   5.331   2.175  1.3445 -0.0532 -0.3819
   40MOL    O3718835   3.684   5.438   2.112 -0.1160  0.4076 -0.3253
   40MOL    H3818836   3.902   6.079   2.463  1.0669  0.2039  0.2974
   40MOL    H3918837   3.874   6.131   2.631  0.4042  2.4937 -1.2181
   40MOL    H4018838   3.726   5.911   2.492 -0.2455  1.0199 -0.4226
   40MOL    H4118839   3.679   5.971   2.653 -0.6893 -0.6783 -1.3219
   40MOL    H4218840   3.885   5.876   2.748 -2.3146  1.5296  0.7870
   40MOL    H4318841   3.945   5.852   2.577 -2.6148  1.6628 -3.5066
   40MOL    H4418842   3.852   5.649   2.719  0.8685  2.6975  2.5252
   40MOL    H4518843   3.696   5.696   2.671 -0.0376 -1.2000  0.0545
   40MOL    H4618844   3.933   5.446   2.338  0.7184  0.3154  0.8554
   40MOL    H4718845   3.818   5.539   2.273 -0.1985 -0.8454  0.4067
   40MOL    H4818846   3.829   5.254   2.315  1.9605  1.7009  1.1189
   40MOL    H4918847   3.674   5.296   2.381  1.1204  0.3296  1.3265
   40MOL    O5018848   3.643   5.210   2.129 -0.9142  0.2187  0.9694
   40MOL    C5118849   3.594   5.208   1.996 -0.3665  0.5891 -0.3018
   40MOL    C5218850   3.472   5.295   1.959  0.2472 -0.5532 -0.1071
   40MOL    C5318851   3.361   5.310   2.063  0.6283  0.3816 -0.2111
   40MOL    C5418852   3.247   5.392   2.020 -0.4530  0.5613 -0.6308
   40MOL    O5518853   3.163   5.406   2.130  0.4218  0.0627 -0.3491
   40MOL    C5618854   3.031   5.416   2.101  0.2061  0.1145  0.1936
   40MOL    O5718855   2.970   5.404   1.994  0.5281  0.2178  0.2128
   40MOL    C5818856   2.945   5.462   2.226 -0.7214 -0.0257  0.4028
   40MOL    C5918857   2.933   5.614   2.239 -0.1019 -0.0405  0.1839
   40MOL    C6018858   2.790   5.661   2.220 -0.2262  0.5899  0.5339
   40MOL    O6118859   2.730   5.712   2.311 -0.5350  0.2486  0.0133
   40MOL    H6218860   3.673   5.226   1.923 -1.4439  2.8329 -0.9618
   40MOL    H6318861   3.568   5.102   1.988 -0.2614  0.5103  0.3513
   40MOL    H6418862   3.432   5.248   1.869 -1.5252  0.4482  0.1226
   40MOL    H6518863   3.510   5.393   1.931 -1.8798  0.3989  0.1828
   40MOL    H6618864   3.403   5.347   2.157  0.4164 -0.9501  0.4133
   40MOL    H6718865   3.317   5.213   2.086  0.4758  0.3218 -0.7596
   40MOL    H6818866   3.280   5.495   2.004  3.4288 -0.3787  0.6853
   40MOL    H6918867   3.209   5.351   1.927  0.3631 -3.5142  0.7549
   40MOL    H7018868   2.997   5.431   2.317 -0.7831 -0.5658  0.2583
   40MOL    H7118869   2.848   5.413   2.215 -0.6783 -0.3464  1.3982
   40MOL    H7218870   2.965   5.634   2.341  2.6709 -1.5658 -0.3287
   40MOL    H7318871   3.009   5.667   2.180 -0.8912 -0.4512 -1.2182
   40MOL    O7418872   2.756   5.642   2.094  0.9917 -0.5627  0.1987
   40MOL    C7518873   2.626   5.682   2.046 -0.3225  0.1115 -0.4188
   40MOL    C7618874   2.572   5.595   1.932  0.1614 -0.0370 -0.8372
   40MOL    C7718875   2.584   5.443   1.946  0.4482  0.0418  0.2511
   40MOL    C7818876   2.515   5.374   1.826  0.4356 -0.0659 -0.5260
   40MOL    O7918877   2.539   5.239   1.825  0.0626  0.1138  0.4251
   40MOL    C8018878   2.624   5.189   1.736  0.3439  0.1267  0.3884
   40MOL    O8118879   2.653   5.259   1.641  0.2989 -0.3154  0.0795
   40MOL    C8218880   2.650   5.042   1.752 -0.2410 -0.2204 -0.1350
   40MOL    C8318881   2.565   4.958   1.658 -0.2251 -0.0439  0.3339
   40MOL    C8418882   2.648   4.900   1.549 -0.5405  0.3840 -1.1318
   40MOL    O8518883   2.628   4.926   1.427  0.2344 -0.0774 -0.4880
   40MOL    H8618884   2.552   5.669   2.125 -2.2505 -1.7215 -2.4700
   40MOL    H8718885   2.620   5.785   2.013 -1.2130 -0.3654 -1.7888
   40MOL    H8818886   2.627   5.622   1.842  2.3457 -4.7559 -1.0611
   40MOL    H8918887   2.472   5.631   1.913  0.0252 -0.2839 -0.5947
   40MOL    H9018888   2.549   5.407   2.042 -0.4568  0.1105 -0.0456
   40MOL    H9118889   2.691   5.423   1.941  0.4684  0.4345 -1.1445
   40MOL    H9218890   2.407   5.391   1.827  0.6975  1.7267  2.1075
   40MOL    H9318891   2.540   5.422   1.731 -1.1564  0.6909 -0.5981
   40MOL    H9418892   2.623   5.009   1.852 -0.5465 -1.1100 -0.5108
   40MOL    H9518893   2.758   5.028   1.740 -0.2198 -1.9189  1.6923
   40MOL    H9618894   2.520   4.875   1.712  2.3087 -0.4067  2.0243
   40MOL    H9718895   2.485   5.024   1.624 -1.2556 -0.9323  0.9962
   40MOL    O9818896   2.739   4.799   1.596 -0.4687 -0.8666 -0.3058
   40MOL    C9918897   2.813   4.721   1.498 -0.1559 -0.3472 -0.4188
   40MOL   C10018898   2.733   4.616   1.421 -0.4853 -0.3114 -0.9490
   40MOL   C10118899   2.814   4.538   1.314 -0.1548  0.7174  0.1293
   40MOL   C10218900   2.888   4.625   1.216  0.3640  0.5347  0.9118
   40MOL   O10318901   2.799   4.719   1.145 -0.0592 -0.1203  0.4640
   40MOL   C10418902   2.843   4.817   1.068  0.2784 -0.4374  0.0019
   40MOL   O10518903   2.961   4.838   1.045 -0.1955 -0.1903 -0.3750
   40MOL   C10618904   2.736   4.909   1.001  0.0179 -0.4476  0.0361
   40MOL   C10718905   2.787   4.987   0.878  0.0491 -0.2080  0.2052
   40MOL   C10818906   2.747   4.937   0.744  0.7765 -0.1921 -0.4487
   40MOL   O10918907   2.688   4.832   0.728 -0.2843  0.1951 -0.0590
   40MOL   H11018908   2.865   4.792   1.434 -0.4941  0.6888  0.4383
   40MOL   H11118909   2.881   4.670   1.566  1.2975 -0.8929 -2.2476
   40MOL   H11218910   2.650   4.668   1.373 -0.8021 -0.9865 -1.1326
   40MOL   H11318911   2.699   4.540   1.491 -2.4143  2.8995  1.7230
   40MOL   H11418912   2.747   4.471   1.262  0.3578  0.1489  0.1969
   40MOL   H11518913   2.887   4.471   1.358  0.0445  0.9658  0.1800
   40MOL   H11618914   2.973   4.682   1.253 -0.9253  3.0921  0.0683
   40MOL   H11718915   2.938   4.564   1.141 -0.7067  1.2705 -0.4285
   40MOL   H11818916   2.709   4.973   1.086  2.1270  0.4449  0.0638
   40MOL   H11918917   2.653   4.840   0.985 -0.4503 -0.9752  4.1504
   40MOL   H12018918   2.747   5.088   0.885 -1.1992 -0.6740 -0.1787
   40MOL   H12118919   2.896   4.996   0.882  0.1048 -0.2359 -0.9457
   40MOL   O12218920   2.767   5.028   0.653  0.3011  0.0981  0.1608
   40MOL   C12318921   2.739   4.996   0.516 -0.1808 -0.2850  0.2686
   40MOL   C12418922   2.712   5.121   0.431  0.5795  0.0146 -0.7890
   40MOL   C12518923   2.578   5.178   0.480 -0.5751 -0.6680 -0.2504
   40MOL   C12618924   2.531   5.284   0.385  0.1454  0.2435 -0.0702
   40MOL   O12718925   2.482   5.211   0.275  0.0312 -0.8793 -0.4465
   40MOL   C12818926   2.385   5.262   0.199  0.0995 -0.4154 -0.0359
   40MOL   O12918927   2.321   5.365   0.224 -0.3141  0.2361  0.4239
   40MOL   C13018928   2.338   5.171   0.085 -0.2509 -0.1468 -0.4658
   40MOL   C13118929   2.413   5.205   7.829 -1.1276  0.2759  0.3775
   40MOL   C13218930   2.462   5.071   7.785  0.4983  0.1167 -0.0635
   40MOL   O13318931   2.387   4.986   7.739  0.4990  0.6900 -0.2082
   40MOL   H13418932   2.812   4.936   0.461 -1.3653 -1.4071 -0.0927
   40MOL   H13518933   2.644   4.944   0.520 -0.3704 -0.2020 -2.1291
   40MOL   H13618934   2.698   5.089   0.327 -0.4130  0.9140 -0.9363
   40MOL   H13718935   2.788   5.198   0.432  0.5466  0.0527 -1.1746
   40MOL   H13818936   2.577   5.211   0.584 -0.2335 -2.0261  0.2028
   40MOL   H13918937   2.505   5.097   0.488  0.9815 -1.8356  3.1374
   40MOL   H14018938   2.448   5.348   0.416 -0.5111 -0.1311 -1.0521
   40MOL   H14118939   2.604   5.361   0.361 -0.2125  1.0790  1.4349
   40MOL   H14218940   2.230   5.186   0.086 -0.4326 -1.2251  3.2362
   40MOL   H14318941   2.350   5.069   0.122 -0.5948 -0.0512 -0.0943
   40MOL   H14418942   2.343   5.245   7.756 -1.0886 -0.5880 -0.1350
   40MOL   H14518943   2.499   5.267   7.854  1.2032 -2.2228 -1.0935
   40MOL   O14618944   2.591   5.052   7.792  0.4926  0.6303 -0.2722
   40MOL   C14718945   2.651   4.937   7.736  0.1991  0.0848 -0.5156
   40MOL   C14818946   2.794   4.929   7.783  0.1279 -0.0879  0.2609
   40MOL   C14918947   2.804   4.899   0.056  0.3544  0.1156  0.1528
   40MOL   C15018948   2.779   4.757   0.096  0.2453  1.0170 -0.3321
   40MOL   O15118949   2.787   4.732   0.235 -0.6026  0.5821 -0.4573
   40MOL   C15218950   2.708   4.646   0.289 -0.0928  0.6144 -0.6491
   40MOL   O15318951   2.621   4.585   0.224  0.4162 -0.0581 -0.2093
   40MOL   C15418952   2.729   4.620   0.439 -0.6901 -0.3460 -0.8344
   40MOL   C15518953   2.868   4.568   0.463 -0.3077  0.5312  0.4161
   40MOL   C15618954   2.942   4.661   0.557 -0.1412 -0.3515  0.5248
   40MOL   O15718955   2.979   4.772   0.516 -0.1539 -0.1018 -0.0173
   40MOL   H15818956   2.594   4.851   7.771  0.2921  0.8689  1.6095
   40MOL   H15918957   2.646   4.961   7.630  4.6082 -0.0194 -0.8596
   40MOL   H16018958   2.857   5.012   7.751  0.0216 -0.7969 -1.8414
   40MOL   H16118959   2.845   4.851   7.726 -1.2015 -0.9327  0.2224
   40MOL   H16218960   2.730   4.966   0.101  1.1689  1.2572 -0.2052
   40MOL   H16318961   2.905   4.923   0.090  1.5696 -3.5096 -0.7022
   40MOL   H16418962   2.677   4.737   0.063 -0.0607  0.3892  0.9214
   40MOL   H16518963   2.845   4.691   0.040 -0.9080 -0.1631 -0.3219
   40MOL   H16618964   2.655   4.545   0.465 -0.3648 -1.1294 -2.1038
   40MOL   H16718965   2.709   4.707   0.502  0.4668 -1.8204  1.6560
   40MOL   H16818966   2.871   4.469   0.507  0.3051 -0.8807 -2.6260
   40MOL   H16918967   2.926   4.559   0.371 -0.4524 -3.0098  0.5987
   40MOL   O17018968   2.963   4.606   0.680 -0.0293 -0.2936  0.7303
   40MOL   C17118969   3.038   4.684   0.770 -1.0400  0.4968  0.2003
   40MOL   C17218970   3.183   4.615   0.793  0.0836 -0.1164 -0.0810
   40MOL   C17318971   3.174   4.466   0.842 -0.3356 -0.3011 -0.7680
   40MOL   C17418972   3.301   4.383   0.845 -0.4324 -0.3236  0.0810
   40MOL   O17518973   3.368   4.390   0.716  0.9444 -0.2485  0.7955
   40MOL   C17618974   3.352   4.308   0.614 -0.4705 -0.2935 -0.3819
   40MOL   O17718975   3.280   4.211   0.616 -0.2673 -0.3338 -0.4948
   40MOL   C17818976   3.427   4.355   0.487 -0.0857  0.7052 -0.2724
   40MOL   C17918977   3.335   4.377   0.364 -0.1332  1.1122 -0.1619
   40MOL   C18018978   3.375   4.511   0.300  0.2877 -0.0133  0.7012
   40MOL   O18118979   3.439   4.510   0.194 -0.5794 -0.6954  0.3030
   40MOL   H18218980   3.058   4.790   0.752  0.6845  0.4690  1.7867
   40MOL   H18318981   2.986   4.676   0.865  0.4216  1.5741  1.1272
   40MOL   H18418982   3.252   4.675   0.851  1.0125 -1.4188  0.1997
   40MOL   H18518983   3.233   4.614   0.696  1.0371  0.6461  0.4050
   40MOL   H18618984   3.112   4.415   0.768 -1.0705 -0.6644  0.1045
   40MOL   H18718985   3.121   4.442   0.934 -1.6859  0.8637 -1.2348
   40MOL   H18818986   3.368   4.416   0.924 -1.9959  0.2241  1.1870
   40MOL   H18918987   3.278   4.282   0.879 -1.8359 -0.9303 -2.5175
   40MOL   H19018988   3.504   4.283   0.461  0.3270  0.9166  0.3573
   40MOL   H19118989   3.483   4.445   0.513  1.9335  0.4430 -3.4630
   40MOL   H19218990   3.363   4.302   0.291 -0.3680  2.0522 -1.2244
   40MOL   H19318991   3.229   4.354   0.376  0.3359 -0.7571  0.6233
   40MOL   O19418992   3.342   4.614   0.376  0.3632  0.2409 -0.6271
   40MOL   C19518993   3.376   4.744   0.330  0.9932  0.1398 -0.1850
   40MOL   C19618994   3.515   4.790   0.372 -0.0695 -0.4348  0.1857
   40MOL   C19718995   3.537   4.780   0.523  0.7337  0.2388 -0.0199
   40MOL   C19818996   3.452   4.881   0.601  0.1143 -0.1271 -0.2626
   40MOL   O19918997   3.480   5.013   0.544 -0.3877  0.0472  0.3136
   40MOL   C20018998   3.587   5.090   0.597  0.6732 -0.0999  0.6641
   40MOL   O20118999   3.642   5.069   0.698 -0.1744 -0.2813 -0.5163
   40MOL   C20219000   3.623   5.208   0.511  0.7500 -0.0449  0.6087
   40MOL   C20319001   3.567   5.347   0.546  0.2138  0.6407 -0.1089
   40MOL   C20419002   3.465   5.401   0.452 -0.0097  0.0764  0.3635
   40MOL   O20519003   3.418   5.331   0.354 -0.3016  0.0135 -0.3184
   40MOL   H20619004   3.377   4.746   0.221  0.7317 -0.4200 -0.1973
   40MOL   H20719005   3.300   4.806   0.377  0.7667  0.6683 -1.2426
   40MOL   H20819006   3.551   4.888   0.339 -1.3704  0.1529  0.4636
   40MOL   H20919007   3.577   4.718   0.319  0.5359 -0.2227  0.6030
   40MOL   H21019008   3.643   4.786   0.549  1.3384 -1.1504 -1.9568
   40MOL   H21119009   3.513   4.676   0.545 -1.2988  0.2570 -1.9976
   40MOL   H21219010   3.345   4.867   0.587  0.1842 -1.9808  0.8644
   40MOL   H21319011   3.475   4.889   0.707  1.7778 -1.0069 -0.5280
   40MOL   H21419012   3.621   5.178   0.406 -0.6764 -1.1344  0.9221
   40MOL   H21519013   3.731   5.216   0.517  0.5002  2.8059  1.8844
   40MOL   H21619014   3.523   5.352   0.646 -1.3309  1.9894 -0.8237
   40MOL   H21719015   3.645   5.424   0.554 -1.5851  2.4790  0.1833
   40MOL   O21819016   3.428   5.527   0.479 -0.2033 -0.8539 -0.2462
   40MOL   C21919017   3.347   5.595   0.381 -0.3760  0.1538 -0.3204
   40MOL   C22019018   3.199   5.557   0.392  0.2509 -0.3242  0.1981
   40MOL   C22119019   3.129   5.635   0.505  1.0158 -0.2096  0.3588
   40MOL   C22219020   2.973   5.621   0.501  0.6843 -0.0762 -0.9364
   40MOL   O22319021   2.925   5.526   0.596 -0.2643  0.1917 -0.0994
   40MOL   C22419022   2.790   5.510   0.593  0.4714  0.2796 -0.3747
   40MOL   O22519023   2.721   5.550   0.502 -0.1442 -0.0527 -0.1704
   40MOL   C22619024   2.734   5.424   0.702 -0.4444  0.5976 -0.0022
   40MOL   C22719025   2.587   5.458   0.731  0.6534 -0.5243 -0.1825
   40MOL   C22819026   2.515   5.368   0.845  0.2180 -0.7424  0.0214
   40MOL   O22919027   2.596   5.292   0.907 -0.1734 -0.3708  0.1977
   40MOL   H23019028   3.362   5.700   0.404 -0.0963  0.0168  0.1259
   40MOL   H23119029   3.375   5.576   0.277  1.9805  0.4791  0.2379
   40MOL   H23219030   3.179   5.451   0.403  1.1783 -0.5313 -0.0469
   40MOL   H23319031   3.144   5.579   0.301  0.1707 -1.1847  0.0380
   40MOL   H23419032   3.139   5.741   0.479 -0.1734 -0.3173 -0.5752
   40MOL   H23519033   3.178   5.606   0.598 -0.2742  3.7641  2.4284
   40MOL   H23619034   2.916   5.714   0.505  0.8466  0.1169 -2.4921
   40MOL   H23719035   2.945   5.569   0.409 -1.1377 -1.4751  0.3669
   40MOL   H23819036   2.783   5.448   0.796  0.8165  3.7173 -1.3543
   40MOL   H23919037   2.753   5.321   0.673  1.9155  1.3368 -1.2658
   40MOL   H24019038   2.586   5.565   0.754  1.5973 -0.7784  1.0642
   40MOL   H24119039   2.513   5.464   0.651 -0.4102  0.4103  0.8298
   40MOL   O24219040   2.379   5.352   0.842  0.1122  0.2865  0.2887
   40MOL   C24319041   2.307   5.283   0.945 -0.8011  0.4265 -0.3428
   40MOL   C24419042   2.159   5.339   0.944 -0.9682 -0.0043 -0.3295
   40MOL   C24519043   2.139   5.484   0.995 -0.3398 -0.5448 -0.2405
   40MOL   C24619044   1.998   5.525   1.031  0.4883 -0.0496  0.0987
   40MOL   O24719045   2.017   5.659   1.061  0.1656  0.0727  0.5469
   40MOL   C24819046   1.912   5.741   1.057  0.2274 -0.3288  0.1957
   40MOL   O24919047   1.804   5.717   0.998 -0.8597  0.0768 -0.0059
   40MOL   C25019048   1.945   5.874   1.128 -0.4942 -0.4408  0.0013
   40MOL   C25119049   1.976   5.853   1.278 -0.2870 -0.0126  0.1574
   40MOL   C25219050   2.115   5.908   1.313  0.3572  0.2022 -1.0001
   40MOL   O25319051   2.127   5.977   1.416  0.0011 -0.1159 -0.4480
   40MOL   H25419052   2.302   5.181   0.907 -1.2572 -0.0007  0.8509
   40MOL   H25519053   2.352   5.290   1.044  0.9893  2.6257 -1.2656
   40MOL   H25619054   2.097   5.282   1.013 -0.8535 -0.6570 -0.7543
   40MOL   H25719055   2.122   5.333   0.841  0.3955 -1.5387 -0.7491
   40MOL   H25819056   2.189   5.542   0.918 -0.3280 -0.5541 -0.2396
   40MOL   H25919057   2.208   5.499   1.078 -0.2405 -0.6424 -0.3046
   40MOL   H26019058   1.932   5.532   0.944  0.4238  0.7935  0.2103
   40MOL   H26119059   1.953   5.466   1.111  1.7328 -0.1054  0.7646
   40MOL   H26219060   1.866   5.949   1.123  0.3018  0.5376  1.5609
   40MOL   H26319061   2.033   5.925   1.087  0.5708 -1.5647  0.8572
   40MOL   H26419062   1.902   5.891   1.349  0.7497  0.5916  0.9223
   40MOL   H26519063   1.986   5.746   1.297 -0.5824  0.1181  1.0836
   40MOL   O26619064   2.212   5.842   1.248 -0.1692 -0.3989 -0.3529
   40MOL   C26719065   2.340   5.830   1.301  0.0144 -0.9527 -0.2593
   40MOL   C26819066   2.430   5.948   1.247 -0.2965 -0.1518 -0.3278
   40MOL   C26919067   2.572   5.961   1.311  0.3629  0.9998  0.0018
   40MOL   C27019068   2.663   6.083   1.272  0.6121 -0.0211 -0.1499
   40MOL   O27119069   2.597   6.202   1.292  0.0014  0.6926 -0.2867
   40MOL   C27219070   2.583   6.259   1.409 -0.0520  0.3282 -0.0881
   40MOL   O27319071   2.618   6.209   1.518 -0.1261 -0.5128 -0.4968
   40MOL   C27419072   2.536   6.408   1.409 -0.1356 -0.3876  0.4183
   40MOL   C27519073   2.658   6.505   1.412  0.1270  0.6468 -0.6143
   40MOL   C27619074   2.630   6.630   1.492 -1.4041 -0.4121 -0.0517
   40MOL   O27719075   2.527   6.700   1.492  0.0978 -0.6523  0.1243
   40MOL   H27819076   2.326   5.835   1.409 -3.4105 -2.9767 -0.5539
   40MOL   H27919077   2.393   5.738   1.277  1.1900 -0.9282  2.1112
   40MOL   H28019078   2.379   6.044   1.262  1.1582  0.6142 -0.1962
   40MOL   H28119079   2.441   5.941   1.138  1.6889 -1.9272 -0.0495
   40MOL   H28219080   2.622   5.864   1.302 -1.4376 -0.0839  1.4551
   40MOL   H28319081   2.563   5.972   1.419  2.0225 -0.9356  0.3838
   40MOL   H28419082   2.756   6.084   1.329  2.0810  0.9274 -2.4596
   40MOL   H28519083   2.692   6.079   1.167 -1.3927 -0.0747 -0.7190
   40MOL   H28619084   2.474   6.415   1.498 -0.3119  1.0313  0.2014
   40MOL   H28719085   2.485   6.442   1.318  0.6035 -0.0107  0.1448
   40MOL   H28819086   2.741   6.452   1.459 -1.2091 -1.5296 -0.6413
   40MOL   H28919087   2.703   6.529   1.316 -0.3728  1.6882 -0.6003
   40MOL   O29019088   2.728   6.658   1.583  0.6411  0.4049  0.3712
   40MOL   C29119089   2.709   6.758   1.682 -0.8733  0.0355 -0.3225
   40MOL   C29219090   2.838   6.786   1.756 -0.0553 -0.0178 -0.0639
   40MOL   C29319091   2.949   6.871   1.688  0.7425  0.1438 -0.0820
   40MOL   C29419092   3.054   6.919   1.785 -0.4243  0.1787  0.1083
   40MOL   O29519093   3.001   7.008   1.878  0.2927 -0.2286  0.2437
   40MOL   C29619094   2.989   7.144   1.837  0.3337 -0.6039  0.0168
   40MOL   O29719095   3.011   7.186   1.723 -0.4693  0.2451  0.0126
   40MOL   C29819096   2.942   7.245   1.948 -1.0718  0.2675  0.1551
   40MOL   C29919097   2.792   7.252   1.962  0.2983  1.0902 -0.5670
   40MOL   C30019098   2.728   7.128   2.027  0.8535  0.8123  0.1337
   40MOL   O30119099   2.673   7.029   1.971  0.2442 -0.4291  0.2255
   40MOL   H30219100   2.665   6.849   1.640 -0.2301  0.9161  0.8690
   40MOL   H30319101   2.645   6.705   1.752 -1.3191 -0.3911 -1.0447
   40MOL   H30419102   2.887   6.694   1.789 -1.2019 -0.9723 -0.9707
   40MOL   H30519103   2.806   6.835   1.848  2.1821  0.0921  0.6853
   40MOL   H30619104   2.904   6.945   1.621 -1.7885 -2.3682 -1.2742
   40MOL   H30719105   2.994   6.804   1.615 -0.7362 -0.5012 -0.4305
   40MOL   H30819106   3.090   6.835   1.844  0.2961  0.1937 -0.3005
   40MOL   H30919107   3.140   6.962   1.733 -0.3733  0.2002  0.2089
   40MOL   H31019108   2.962   7.345   1.909 -1.3303  0.6766  1.0514
   40MOL   H31119109   2.991   7.254   2.045 -0.7937  2.3491 -0.1560
   40MOL   H31219110   2.748   7.334   2.018 -0.2190 -1.2553  2.5708
   40MOL   H31319111   2.748   7.266   1.863  0.3850 -0.0669 -0.7849
   40MOL   O31419112   2.738   7.137   2.160 -0.2183 -0.0956  0.2103
   40MOL   C31519113   2.699   7.034   2.249  0.2887 -0.7384 -0.0583
   40MOL   C31619114   2.699   7.092   2.393  0.0069  0.5767  0.2153
   40MOL   C31719115   2.700   6.983   2.502 -0.6240  0.2287 -0.6243
   40MOL   C31819116   2.579   6.895   2.500 -0.9741  0.0233 -0.1382
   40MOL   O31919117   2.572   6.805   2.615 -0.1996 -0.0239  0.3893
   40MOL   C32019118   2.446   6.756   2.652 -0.5943  0.5897  0.2126
   40MOL   O32119119   2.340   6.799   2.606 -0.0708  0.3944  0.3728
   40MOL   C32219120   2.453   6.682   2.787 -0.4183 -0.2145 -0.4555
   40MOL   C32319121   2.472   6.529   2.768 -0.3105  0.0762  0.5419
   40MOL   C32419122   2.336   6.465   2.758  0.2429  0.3643 -0.1956
   40MOL   O32519123   2.317   6.377   2.665  0.0130 -0.1891 -0.1975
   40MOL   H32619124   2.603   6.992   2.218  0.1936 -0.0101 -0.7602
   40MOL   H32719125   2.763   6.946   2.240  1.5527  0.0265  1.1995
   40MOL   H32819126   2.619   7.163   2.412 -0.3246 -0.2167  1.9633
   40MOL   H32919127   2.786   7.156   2.408  0.9588 -0.9374  1.4117
   40MOL   H33019128   2.694   7.033   2.598 -1.8008  0.2914 -0.7174
   40MOL   H33119129   2.786   6.917   2.511 -1.1520 -0.6651 -1.8069
   40MOL   H33219130   2.492   6.959   2.488 -1.2305 -0.4298 -0.7183
   40MOL   H33319131   2.603   6.833   2.413  1.2892 -0.1736  0.5938
   40MOL   H33419132   2.365   6.704   2.848 -0.5766 -0.7818 -0.4710
   40MOL   H33519133   2.537   6.718   2.845 -1.0182  0.2714  0.1058
   40MOL   H33619134   2.528   6.508   2.677 -0.3861 -0.5766  0.6417
   40MOL   H33719135   2.530   6.502   2.856 -0.1215  0.0998  0.4240
   40MOL   O33819136   2.252   6.505   2.853 -0.3862 -0.3922 -0.2446
   40MOL   C33919137   2.117   6.457   2.850  0.0915 -0.0437 -0.3170
   40MOL   C34019138   2.076   6.406   2.984 -0.1847  1.1279 -0.3149
   40MOL   C34119139   2.102   6.506   3.096 -0.4738  0.8484 -1.0537
   40MOL   C34219140   2.044   6.462   3.229  0.0270  0.2178  0.1190
   40MOL   O34319141   1.903   6.495   3.230  0.0119  0.0969 -0.0756
   40MOL   C34419142   1.810   6.416   3.272 -0.5059 -0.8899  0.5570
   40MOL   O34519143   1.826   6.315   3.338  0.6850  0.1869  0.0613
   40MOL   C34619144   1.678   6.463   3.225  0.0694 -0.0002  0.5690
   40MOL   C34719145   1.564   6.407   3.314 -0.6524 -0.3360 -0.4675
   40MOL   C34819146   1.540   6.511   3.423 -0.1947  0.0444  0.1389
   40MOL   O34919147   1.463   6.608   3.408  0.1239  0.4441 -0.2110
   40MOL   H35019148   2.057   6.542   2.820  1.0580  0.1597 -1.7319
   40MOL   H35119149   2.102   6.376   2.779  0.8466  0.2493 -0.8206
   40MOL   H35219150   2.114   6.308   3.011  0.2485  1.2143 -0.6150
   40MOL   H35319151   1.968   6.393   2.976 -0.1664  1.2692 -0.8123
   40MOL   H35419152   2.062   6.603   3.064 -2.7409  0.3159  0.1211
   40MOL   H35519153   2.211   6.514   3.107 -0.5892  0.9168  0.0128
   40MOL   H35619154   2.072   6.361   3.259  1.0077 -0.1377 -1.8525
   40MOL   H35719155   2.107   6.514   3.302 -0.4670 -0.3421  0.9450
   40MOL   H35819156   1.667   6.426   3.123  1.6948 -1.5377  0.9132
   40MOL   H35919157   1.672   6.571   3.224  2.9812  0.2158  0.7789
   40MOL   H36019158   1.469   6.401   3.262 -0.0111 -0.5951 -1.6110
   40MOL   H36119159   1.595   6.309   3.349  1.6378 -1.0934 -4.3358
   40MOL   O36219160   1.613   6.490   3.529  0.0822 -0.2269 -0.0407
   40MOL   C36319161   1.618   6.592   3.628  0.2675 -0.1382  0.1130
   40MOL   C36419162   1.768   6.640   3.632 -0.3105 -0.6887  0.0937
   40MOL   C36519163   1.792   6.719   3.505 -0.1066 -0.6052  0.7419
   40MOL   C36619164   1.932   6.777   3.499  0.7661  0.3656  0.5915
   40MOL   O36719165   1.955   6.829   3.374  0.8053 -0.2234  0.0141
   40MOL   C36819166   2.085   6.864   3.338  0.6190  0.6675 -0.0155
   40MOL   O36919167   2.188   6.847   3.401 -0.4188  0.5047 -0.2126
   40MOL   C37019168   2.097   6.927   3.204 -0.1912  0.2954 -0.0795
   40MOL   C37119169   2.226   6.891   3.130  0.4556 -0.5267  1.2863
   40MOL   C37219170   2.321   7.014   3.115 -0.4614  0.0910 -0.6999
   40MOL   O37319171   2.290   7.121   3.066 -0.0682 -0.1790  0.5257
   40MOL   H37419172   1.545   6.673   3.623  0.0594 -0.2367  1.2908
   40MOL   H37519173   1.609   6.540   3.724 -0.8025  0.9976  0.6456
   40MOL   H37619174   1.844   6.562   3.641  1.4177  1.1640  2.1907
   40MOL   H37719175   1.781   6.706   3.718  1.0118 -1.9761  0.8956
   40MOL   H37819176   1.723   6.803   3.499  0.1862 -0.4372 -0.3886
   40MOL   H37919177   1.782   6.657   3.416  1.7211  1.0744 -0.6728
   40MOL   H38019178   1.957   6.852   3.574  0.2298 -0.8705  2.0263
   40MOL   H38119179   2.000   6.696   3.526 -0.2230 -0.3946  0.8314
   40MOL   H38219180   2.084   7.034   3.217  0.4724  0.3375  0.2648
   40MOL   H38319181   2.008   6.890   3.153  0.0887 -0.1200 -0.2768
   40MOL   H38419182   2.277   6.800   3.161 -1.4964 -2.8004 -1.8684
   40MOL   H38519183   2.183   6.874   3.032  2.1813  2.0040  0.0474
   40MOL   O38619184   2.446   6.986   3.161 -0.2158  0.4057 -0.0448
   40MOL   C38719185   2.548   7.071   3.133 -0.7530  0.0389  0.4649
   40MOL   C38819186   2.676   6.995   3.106  0.0136 -0.2541 -0.3877
   40MOL   C38919187   2.651   6.903   2.983  0.6761 -0.1380 -0.4391
   40MOL   C39019188   2.785   6.853   2.928 -0.4192 -0.3561 -0.4139
   40MOL   O39119189   2.864   6.784   3.022  0.0450  0.0479  0.1992
   40MOL   C39219190   2.987   6.769   2.985 -0.9428 -0.8026 -0.4821
   40MOL   O39319191   3.040   6.826   2.889 -0.6813  0.0009  0.1962
   40MOL   C39419192   3.077   6.681   3.069  0.0858  0.3090  0.4785
   40MOL   C39519193   3.121   6.746   3.193  0.1120 -0.5787 -0.4169
   40MOL   C39619194   3.027   6.716   3.312  0.2482  0.0915 -0.1970
   40MOL   O39719195   2.997   6.595   3.342 -0.2235 -0.4981 -0.8084
   40MOL   H39819196   2.528   7.127   3.041  0.2757 -0.9995 -0.4084
   40MOL   H39919197   2.562   7.140   3.216 -0.3478  0.6907 -0.1377
   40MOL   H40019198   2.716   6.938   3.190  1.6539  0.2128 -0.8456
   40MOL   H40119199   2.755   7.065   3.082 -1.7595  1.1338 -2.3930
   40MOL   H40219200   2.597   6.955   2.903  0.7892 -0.5719 -0.7986
   40MOL   H40319201   2.591   6.817   3.012  2.7216 -1.1602  0.8813
   40MOL   H40419202   2.762   6.785   2.845  0.8723 -2.8706  1.2240
   40MOL   H40519203   2.826   6.942   2.880  0.1928 -0.1864  0.4216
   40MOL   H40619204   3.165   6.654   3.011 -1.4570 -1.1575 -1.2550
   40MOL   H40719205   3.031   6.584   3.087 -1.6184  1.3818  2.0910
   40MOL   H40819206   3.220   6.718   3.229  0.0190 -0.3773  0.0011
   40MOL   H40919207   3.111   6.855   3.188 -1.5094 -0.7074 -0.1221
   40MOL   O41019208   2.974   6.829   3.362 -0.2111  0.4302  0.2127
   40MOL   C41119209   2.874   6.815   3.458 -0.0461 -0.0553  0.0769
   40MOL   C41219210   2.871   6.954   3.531  0.6617  0.2433  0.0089
   40MOL   C41319211   2.810   7.061   3.448  0.7628 -0.5229  0.3670
   40MOL   C41419212   2.822   7.198   3.511  0.9016 -0.0295 -0.3066
   40MOL   O41519213   2.788   7.295   3.411 -0.6199  0.0549 -0.5375
   40MOL   C41619214   2.702   7.394   3.444  0.8093  0.1310 -0.4270
   40MOL   O41719215   2.648   7.408   3.556  0.1353  0.1307  0.6112
   40MOL   C41819216   2.685   7.499   3.334  0.0893  0.3421 -0.1866
   40MOL   C41919217   2.546   7.564   3.333 -0.9156  0.2727  0.1491
   40MOL   C42019218   2.448   7.468   3.265  0.6110 -0.6732 -1.1167
   40MOL   O42119219   2.482   7.401   3.168 -0.2835 -0.1416 -0.0955
   40MOL   H42219220   2.775   6.783   3.426  1.3711 -3.6930 -0.7994
   40MOL   H42319221   2.912   6.741   3.528 -0.3462 -0.9913 -0.7420
   40MOL   H42419222   2.978   6.972   3.540  0.5051  1.9701 -1.3868
   40MOL   H42519223   2.822   6.945   3.628  1.1108 -0.3594  0.1855
   40MOL   H42619224   2.708   7.027   3.431  0.4270 -0.3054  1.8727
   40MOL   H42719225   2.860   7.063   3.351 -0.3799 -0.8735 -0.2307
   40MOL   H42819226   2.753   7.205   3.595  1.1910  0.6650 -0.1219
   40MOL   H42919227   2.924   7.213   3.545  0.1893  0.6259  1.5880
   40MOL   H43019228   2.715   7.468   3.234  0.3465  2.2065 -0.7047
   40MOL   H43119229   2.755   7.581   3.347  1.4021 -0.6553 -0.8711
   40MOL   H43219230   2.496   7.579   3.429 -1.4771  1.1068 -0.2667
   40MOL   H43319231   2.539   7.656   3.276 -1.4712  0.0413 -0.1647
   40MOL   O43419232   2.325   7.478   3.312 -0.1635  0.2105 -0.3931
   40MOL   C43519233   2.219   7.395   3.271 -0.5341 -0.1494 -0.2131
   40MOL   C43619234   2.150   7.335   3.389  0.1122 -0.3803 -0.4890
   40MOL   C43719235   2.229   7.218   3.449 -0.1189  0.2160  0.8712
   40MOL   C43819236   2.182   7.171   3.588  0.4726  0.2995  0.2396
   40MOL   O43919237   2.042   7.130   3.582 -0.0861  0.2141  0.8034
   40MOL   C44019238   1.957   7.161   3.689 -0.6757 -0.6697  0.0426
   40MOL   O44119239   1.995   7.212   3.795 -0.6197  0.1711  0.2491
   40MOL   C44219240   1.804   7.133   3.665  0.5631 -0.1127 -0.2636
   40MOL   C44319241   1.739   7.236   3.571  0.3695  0.3319  0.3319
   40MOL   C44419242   1.748   7.195   3.429 -0.6665  0.8456  0.1883
   40MOL   O44519243   1.765   7.077   3.399  0.0959 -0.1844  0.1825
   40MOL   H44619244   2.145   7.462   3.228 -1.0457  0.4293  1.5652
   40MOL   H44719245   2.248   7.323   3.194  1.4235  0.8404 -0.4230
   40MOL   H44819246   2.053   7.292   3.363  0.2772 -1.5015  0.6926
   40MOL   H44919247   2.130   7.410   3.465  0.0577  0.5984 -1.4703
   40MOL   H45019248   2.336   7.242   3.444  0.4929 -2.6571 -1.3713
   40MOL   H45119249   2.214   7.133   3.382  1.5111  0.7642 -0.2306
   40MOL   H45219250   2.238   7.085   3.626  0.3750  0.0278 -0.2226
   40MOL   H45319251   2.202   7.253   3.657  0.2477  1.4383 -1.0480
   40MOL   H45419252   1.756   7.115   3.761  1.8263 -2.0028  0.0564
   40MOL   H45519253   1.812   7.028   3.635 -0.3543 -0.4223  0.5554
   40MOL   H45619254   1.635   7.243   3.603  0.5428  0.4993  0.8644
   40MOL   H45719255   1.774   7.339   3.581 -1.7069  1.1881 -0.8044
   40MOL   O45819256   1.740   7.298   3.341 -0.1954 -0.3386  0.3713
   40MOL   C45919257   1.752   7.268   3.203  0.5446 -0.5272  0.1946
   40MOL   C46019258   1.846   7.367   3.132  0.1013 -0.1183  0.1897
   40MOL   C46119259   1.916   7.311   3.010  0.2967  0.6986  0.3174
   40MOL   C46219260   1.972   7.420   2.912 -0.0032  0.5117 -0.1543
   40MOL   O46319261   2.070   7.502   2.970 -0.7216  0.1755 -0.0699
   40MOL   C46419262   2.149   7.572   2.882 -0.2606  0.0050 -0.0147
   40MOL   O46519263   2.120   7.584   2.765  0.0769  0.0331  0.5863
   40MOL   C46619264   2.267   7.641   2.947 -0.5688  0.8433  0.5647
   40MOL   C46719265   2.256   7.792   2.953  0.0080  0.7488 -0.5148
   40MOL   C46819266   2.227   7.839   3.092 -0.6769 -0.0298  0.2432
   40MOL   O46919267   2.316   7.842   3.173 -0.1519  0.0024 -0.3599
   40MOL   H47019268   1.793   7.171   3.176  2.7548  0.4387  0.0102
   40MOL   H47119269   1.652   7.267   3.158  0.6380  1.4523 -0.0984
   40MOL   H47219270   1.918   7.411   3.201 -1.1200 -0.7398  1.8820
   40MOL   H47319271   1.791   7.459   3.111 -0.2826 -0.2466  0.6268
   40MOL   H47419272   1.860   7.240   2.949  0.7648  1.6576 -1.2591
   40MOL   H47519273   1.996   7.244   3.042 -1.3627 -1.8911 -0.8283
   40MOL   H47619274   2.012   7.358   2.831  0.4564 -0.1128  0.5417
   40MOL   H47719275   1.902   7.496   2.876 -0.0703  0.8501  0.6729
   40MOL   H47819276   2.359   7.616   2.893 -2.0594 -0.6692 -1.3660
   40MOL   H47919277   2.290   7.603   3.046  1.3164 -1.0433 -0.5388
   40MOL   H48019278   2.345   7.839   2.910  0.4525  0.1496 -0.2617
   40MOL   H48119279   2.178   7.827   2.885  0.3903 -0.3370 -1.5401
   40MOL   H48219280   2.123   7.850   3.124 -0.8745  1.2669 -0.8286
   41MOL     O119281   0.259   0.167   5.426 -0.0720  0.7454 -0.1677
   41MOL     C219282   0.153   0.097   5.479 -1.1379 -0.1863  0.2061
   41MOL     C319283   0.179   7.826   5.489 -0.0343  0.7035  0.3740
   41MOL     C419284   0.286   7.783   5.586 -0.5967  0.1985  0.0031
   41MOL     C519285   0.236   7.785   5.727 -0.7153 -0.3250  0.7701
   41MOL     O619286   0.134   7.682   5.746  0.6342 -0.3830 -0.5952
   41MOL     C719287   0.139   7.601   5.861  0.2195 -0.3146 -0.2653
   41MOL     O819288   0.195   7.620   5.967  0.0313 -0.0783 -0.2885
   41MOL     C919289   0.077   7.465   5.838  0.4255  1.2470  0.4396
   41MOL    C1019290   0.163   7.390   5.741 -0.2329  0.4709  0.2791
   41MOL    C1119291   0.250   7.279   5.813 -0.1975  0.3340  0.1530
   41MOL    O1219292   0.370   7.296   5.840 -0.0756 -0.2395 -0.1452
   41MOL    H1319293   0.114   0.139   5.572 -0.1600  0.0295  0.5265
   41MOL    H1419294   0.064   0.122   5.421  0.1984  0.2457 -1.6864
   41MOL    H1519295   0.212   7.789   5.392  0.8795  1.6593  0.3207
   41MOL    H1619296   0.081   7.777   5.490  0.5435 -0.4792 -0.2840
   41MOL    H1719297   0.374   7.846   5.576 -0.8919  0.8765  1.5354
   41MOL    H1819298   0.322   7.682   5.565 -1.5588 -0.2711  0.5621
   41MOL    H1919299   0.323   7.779   5.793 -0.0056 -1.6728 -0.2824
   41MOL    H2019300   0.204   0.009   5.760 -1.8585 -0.4508  0.0519
   41MOL    H2119301   7.851   7.469   5.795  1.0997  2.5431 -1.0560
   41MOL    H2219302   0.057   7.415   5.932  0.0934  3.3565  1.5292
   41MOL    H2319303   0.104   7.342   5.663  2.0844  0.6052 -1.6108
   41MOL    H2419304   0.235   7.455   5.691 -0.2784  1.1601  1.1092
   41MOL    H2519305   0.274   0.146   5.334 -1.0876 -1.2861  0.1001
   41MOL    O2619306   0.175   7.181   5.857 -0.2680  0.2855 -0.0421
   41MOL    C2719307   0.229   7.085   5.945  0.1017  1.1000 -0.0984
   41MOL    C2819308   0.241   6.949   5.860 -0.2501 -0.7233 -0.1664
   41MOL    C2919309   0.109   6.872   5.845  0.1000 -0.0543 -0.3012
   41MOL    C3019310   0.098   6.786   5.722  0.2265 -0.4015 -0.1508
   41MOL    O3119311   0.196   6.677   5.732  0.1189  0.3087 -0.0717
   41MOL    C3219312   0.159   6.543   5.731  0.1854  0.1368  0.5849
   41MOL    O3319313   0.044   6.504   5.710  0.2280 -0.4978  0.1531
   41MOL    C3419314   0.276   6.445   5.749  0.2141  0.4069 -0.1226
   41MOL    C3519315   0.300   6.356   5.631 -0.1200  0.0664 -0.2613
   41MOL    C3619316   0.411   6.408   5.542  0.6145  0.4726 -0.2720
   41MOL    O3719317   0.515   6.346   5.534  0.0586  0.1566 -0.0984
   41MOL    H3819318   0.329   7.111   5.979  0.2892 -1.6939  1.6937
   41MOL    H3919319   0.159   7.073   6.027 -0.3130  2.2231 -0.2859
   41MOL    H4019320   0.320   6.891   5.908  1.4247  2.8224  1.5618
   41MOL    H4119321   0.285   6.978   5.765 -0.6989  0.2683 -0.0835
   41MOL    H4219322   0.034   6.949   5.830  0.8939  0.7452 -0.2153
   41MOL    H4319323   0.095   6.817   5.938 -1.6691  0.3105 -0.3386
   41MOL    H4419324   0.003   6.733   5.716 -0.9650  1.5481  1.0476
   41MOL    H4519325   0.103   6.834   5.624  0.9812 -1.2591 -0.5334
   41MOL    H4619326   0.239   6.394   5.837 -2.2049 -1.3193 -2.0751
   41MOL    H4719327   0.364   6.505   5.774  0.2101  0.2622  0.2422
   41MOL    H4819328   0.325   6.258   5.671  1.7015 -0.2142 -2.0384
   41MOL    H4919329   0.211   6.339   5.571 -0.9833  2.4120  0.2891
   41MOL    O5019330   0.384   6.529   5.478  0.8444  0.0536 -0.1193
   41MOL    C5119331   0.477   6.593   5.395  0.2558  0.7422  0.0054
   41MOL    C5219332   0.429   6.742   5.370  0.2289  0.4796 -0.2339
   41MOL    C5319333   0.418   6.838   5.497 -0.1365 -0.6039 -0.2852
   41MOL    C5419334   0.549   6.871   5.580 -0.1038  0.2349 -0.5858
   41MOL    O5519335   0.573   6.764   5.677 -0.1659  0.1957  0.0481
   41MOL    C5619336   0.674   6.686   5.660  0.3194  0.1139  0.2602
   41MOL    O5719337   0.755   6.701   5.571 -0.0773 -0.5403 -0.4948
   41MOL    C5819338   0.678   6.569   5.750  0.7836  0.0302  0.3255
   41MOL    C5919339   0.766   6.583   5.872  0.2470 -0.6606  0.7808
   41MOL    C6019340   0.898   6.510   5.860  0.2546  0.4542 -0.3993
   41MOL    O6119341   1.004   6.564   5.878 -0.5163 -0.7605 -0.7341
   41MOL    H6219342   0.573   6.583   5.445 -0.7211  0.9343  2.0070
   41MOL    H6319343   0.472   6.544   5.298 -0.4047 -2.9578  1.8162
   41MOL    H6419344   0.323   6.741   5.346 -0.2645 -1.2951  1.8741
   41MOL    H6519345   0.483   6.788   5.287 -0.2818  0.8079 -0.3819
   41MOL    H6619346   0.355   6.785   5.569 -0.4797  2.2514  1.5976
   41MOL    H6719347   0.363   6.930   5.475  1.0398  0.3946  0.8277
   41MOL    H6819348   0.634   6.886   5.513  1.4996 -2.7961  0.6836
   41MOL    H6919349   0.530   6.964   5.634  1.4968 -1.5734  3.2971
   41MOL    H7019350   0.683   6.474   5.696  2.2629  0.1100  0.3036
   41MOL    H7119351   0.574   6.580   5.782  0.8093 -0.7950  0.7146
   41MOL    H7219352   0.766   6.691   5.889 -0.2054 -0.5926  0.3581
   41MOL    H7319353   0.711   6.539   5.955  0.0518  0.1303  1.0845
   41MOL    O7419354   0.882   6.379   5.834 -0.1965 -0.0423 -0.0045
   41MOL    C7519355   0.993   6.299   5.788 -0.7272 -0.0745 -0.0068
   41MOL    C7619356   0.958   6.147   5.800  0.6601  0.9130  0.1265
   41MOL    C7719357   0.833   6.093   5.725 -0.0898  0.7890  0.3207
   41MOL    C7819358   0.704   6.156   5.774 -0.4194  0.0870  0.0546
   41MOL    O7919359   0.691   6.149   5.914  0.1261 -0.4196 -0.1961
   41MOL    C8019360   0.571   6.166   5.974 -0.4478 -0.0469  0.6798
   41MOL    O8119361   0.471   6.211   5.919  0.1529 -0.5254 -0.1386
   41MOL    C8219362   0.573   6.125   6.122 -0.6013 -0.0163  0.6387
   41MOL    C8319363   0.559   6.248   6.209  0.2898  0.8466 -0.1176
   41MOL    C8419364   0.673   6.348   6.229  0.4266 -0.4498  0.7407
   41MOL    O8519365   0.770   6.349   6.155  0.0981  0.5037 -0.0610
   41MOL    H8619366   1.020   6.342   5.691  2.5138  0.9786  1.2899
   41MOL    H8719367   1.086   6.317   5.842 -0.6794  0.0504 -0.1308
   41MOL    H8819368   0.940   6.124   5.905  2.8507  0.2719  0.3882
   41MOL    H8919369   1.044   6.085   5.775 -1.3162 -1.4860 -0.9811
   41MOL    H9019370   0.823   5.986   5.744  1.8286  1.2294  4.2594
   41MOL    H9119371   0.832   6.104   5.616 -0.3558  0.5063  0.2951
   41MOL    H9219372   0.702   6.257   5.732 -0.7233 -0.2600 -0.7742
   41MOL    H9319373   0.623   6.099   5.729 -2.4091  1.9280  1.2411
   41MOL    H9419374   0.662   6.068   6.147  0.1751  0.9569  0.1444
   41MOL    H9519375   0.491   6.060   6.151 -1.0884 -0.1624 -0.9728
   41MOL    H9619376   0.458   6.286   6.195  1.0709  2.6892 -0.7637
   41MOL    H9719377   0.544   6.206   6.309 -0.0354 -1.1571 -0.9798
   41MOL    O9819378   0.640   6.438   6.318  0.1280 -0.0281  0.5926
   41MOL    C9919379   0.726   6.543   6.339  0.1275 -0.2668  0.4020
   41MOL   C10019380   0.680   6.640   6.454 -0.1262  0.0747  0.2561
   41MOL   C10119381   0.682   6.566   6.584 -0.1334  0.1114 -0.8077
   41MOL   C10219382   0.611   6.646   6.696  0.6461  0.0163 -0.1205
   41MOL   O10319383   0.665   6.777   6.712 -0.0676 -0.3770 -0.2314
   41MOL   C10419384   0.751   6.801   6.807 -0.6783  0.2207 -0.3580
   41MOL   O10519385   0.794   6.717   6.885 -0.2191  0.5057 -0.7678
   41MOL   C10619386   0.780   6.945   6.807 -0.5039  0.6256  0.4687
   41MOL   C10719387   0.869   6.992   6.690 -1.0704 -0.8282 -0.4924
   41MOL   C10819388   1.009   7.029   6.738 -0.2964 -0.5120  0.7136
   41MOL   O10919389   1.040   7.146   6.742  0.0545 -0.3062 -0.0905
   41MOL   H11019390   0.826   6.510   6.365  0.4115 -0.0230 -0.3738
   41MOL   H11119391   0.728   6.596   6.244  0.5005  1.4818  1.3625
   41MOL   H11219392   0.583   6.679   6.425  0.1476 -0.5972 -1.6370
   41MOL   H11319393   0.743   6.729   6.450  1.3403 -0.9667 -0.2510
   41MOL   H11419394   0.778   6.533   6.625 -0.4755 -0.0637 -0.1415
   41MOL   H11519395   0.624   6.475   6.570 -0.1110 -0.2340  1.1287
   41MOL   H11619396   0.504   6.645   6.675  0.7746 -2.2419 -0.7065
   41MOL   H11719397   0.614   6.598   6.794  0.1785  0.5600  0.1733
   41MOL   H11819398   0.836   6.968   6.898 -0.1775 -0.3942  0.5264
   41MOL   H11919399   0.684   6.991   6.831 -1.3240 -0.9950  0.3026
   41MOL   H12019400   0.872   6.915   6.613 -1.0516 -0.6374 -0.6846
   41MOL   H12119401   0.833   7.077   6.632 -1.5928 -1.5418 -1.2158
   41MOL   O12219402   1.087   6.934   6.769 -0.1607 -0.3892  0.2907
   41MOL   C12319403   1.207   6.948   6.838 -0.3460  0.2717  0.1950
   41MOL   C12419404   1.195   6.893   6.977 -0.2198  0.0131  0.5874
   41MOL   C12519405   1.163   6.742   6.986  0.2111  0.1989 -0.6034
   41MOL   C12619406   1.158   6.693   7.138 -1.1562  0.2248  0.5462
   41MOL   O12719407   1.035   6.736   7.200 -0.1185 -0.4850 -0.2149
   41MOL   C12819408   0.937   6.646   7.202 -0.1544  0.2661  0.6066
   41MOL   O12919409   0.938   6.533   7.159  0.2712 -0.3758  0.0597
   41MOL   C13019410   0.815   6.694   7.277  0.1320  0.4792  0.0616
   41MOL   C13119411   0.740   6.814   7.213 -0.2785  0.0069  0.1895
   41MOL   C13219412   0.589   6.793   7.203  0.1746  0.2266  0.0339
   41MOL   O13319413   0.526   6.747   7.294  0.7676  0.3703  0.3438
   41MOL   H13419414   1.281   6.884   6.789 -1.1359  0.4490 -1.2632
   41MOL   H13519415   1.247   7.049   6.838 -1.9825  0.9598  2.3211
   41MOL   H13619416   1.123   6.949   7.037  0.6431  1.5264  0.2370
   41MOL   H13719417   1.286   6.902   7.036  0.6509 -2.3303 -0.3257
   41MOL   H13819418   1.243   6.679   6.947  1.0094  0.9948 -0.2684
   41MOL   H13919419   1.074   6.718   6.928  1.0203  0.0367 -1.7955
   41MOL   H14019420   1.186   6.588   7.139 -2.5119 -0.1452  0.4678
   41MOL   H14119421   1.240   6.748   7.183  1.3985 -2.2576 -0.9363
   41MOL   H14219422   0.852   6.726   7.374 -0.4612 -1.0902  0.8237
   41MOL   H14319423   0.746   6.611   7.289  0.3441  0.3072  0.0861
   41MOL   H14419424   0.756   6.905   7.270 -1.1914  0.0779  0.3514
   41MOL   H14519425   0.776   6.823   7.110  1.1422 -2.5685  0.4307
   41MOL   O14619426   0.537   6.826   7.090  0.3079 -0.2926  0.1369
   41MOL   C14719427   0.396   6.813   7.059  0.2234 -0.9511 -0.5356
   41MOL   C14819428   0.360   6.818   6.907  0.6379  0.1267 -0.6180
   41MOL   C14919429   0.211   6.858   6.875  0.4580 -0.4131  0.1184
   41MOL   C15019430   0.183   6.822   6.724 -0.0919  0.1370 -0.4307
   41MOL   O15119431   0.189   6.678   6.699  0.4205 -0.1582 -0.0326
   41MOL   C15219432   0.253   6.624   6.595  0.6317 -0.0606  0.7291
   41MOL   O15319433   0.325   6.680   6.513  0.2948  0.4773 -0.2569
   41MOL   C15419434   0.240   6.470   6.592 -0.0216 -0.2456  0.0056
   41MOL   C15519435   0.282   6.411   6.721 -0.0839  0.4306  0.9855
   41MOL   C15619436   0.411   6.328   6.702 -0.7803 -0.3389  0.0123
   41MOL   O15719437   0.442   6.263   6.604 -0.1623 -0.2964 -0.5823
   41MOL   H15819438   0.334   6.735   7.104 -3.7411  1.3353 -1.7564
   41MOL   H15919439   0.347   6.897   7.107  1.2100 -1.7606  1.9856
   41MOL   H16019440   0.403   6.731   6.856 -1.3386 -1.1843 -0.1317
   41MOL   H16119441   0.413   6.897   6.855 -0.2817  0.3396 -1.2379
   41MOL   H16219442   0.179   6.961   6.886  0.2099 -0.5847  1.0237
   41MOL   H16319443   0.144   6.808   6.945 -0.1869 -0.7390 -0.7122
   41MOL   H16419444   0.092   6.873   6.693  0.2828  0.1947 -1.4585
   41MOL   H16519445   0.259   6.864   6.657 -1.8185 -0.2038 -2.6712
   41MOL   H16619446   0.303   6.433   6.510 -0.0142  0.4126 -0.2852
   41MOL   H16719447   0.138   6.465   6.554  0.2671 -1.5744 -0.6729
   41MOL   H16819448   0.285   6.481   6.805 -1.4438  1.8742 -0.1356
   41MOL   H16919449   0.197   6.354   6.757  1.5078 -0.9944  2.5604
   41MOL   O17019450   0.493   6.342   6.798  0.0464  0.5423 -0.5134
   41MOL   C17119451   0.619   6.277   6.800  0.1877 -0.8059 -0.1569
   41MOL   C17219452   0.663   6.244   6.944 -0.5228 -0.6629 -0.5254
   41MOL   C17319453   0.716   6.356   7.033 -0.2881  0.0273 -0.0291
   41MOL   C17419454   0.613   6.469   7.064  0.3631  0.0327 -0.0030
   41MOL   O17519455   0.528   6.427   7.174 -0.4675 -0.6228 -0.8192
   41MOL   C17619456   0.396   6.445   7.179  0.1529 -0.0758  0.2259
   41MOL   O17719457   0.331   6.508   7.092  0.2631 -0.4244  0.0218
   41MOL   C17819458   0.340   6.394   7.313 -0.0696  0.7860  0.0717
   41MOL   C17919459   0.203   6.442   7.342  0.2573  0.4890  0.1491
   41MOL   C18019460   0.171   6.403   7.488 -0.3045 -0.4690  0.3969
   41MOL   O18119461   0.252   6.437   7.575  0.0651  0.4255  0.3284
   41MOL   H18219462   0.625   6.186   6.740  0.1886 -0.3706 -0.8207
   41MOL   H18319463   0.698   6.334   6.751  1.7002 -0.6513  2.3426
   41MOL   H18419464   0.732   6.160   6.934  0.8225  0.2800  0.6561
   41MOL   H18519465   0.583   6.203   7.006 -1.2568 -0.1410 -1.1114
   41MOL   H18619466   0.798   6.404   6.979 -0.6498  0.7404  0.0511
   41MOL   H18719467   0.768   6.316   7.120 -0.3295  1.2551  0.5826
   41MOL   H18819468   0.658   6.559   7.105  1.0334 -0.6237  0.7216
   41MOL   H18919469   0.552   6.498   6.978 -0.8120 -1.8974  0.1527
   41MOL   H19019470   0.404   6.423   7.397  1.9027 -3.7032  0.2847
   41MOL   H19119471   0.344   6.285   7.314 -1.7217  0.6899 -2.0920
   41MOL   H19219472   0.207   6.551   7.330 -0.9456  0.5018 -0.2145
   41MOL   H19319473   0.126   6.416   7.269  0.2485  0.8366  0.0313
   41MOL   O19419474   0.058   6.327   7.492 -0.7467  0.2146  0.2807
   41MOL   C19519475   0.020   6.256   7.608  0.4487  0.8245 -0.1036
   41MOL   C19619476   0.066   6.113   7.599 -0.1404 -0.5868  0.3521
   41MOL   C19719477   7.852   6.032   7.504 -0.3906 -0.4828 -0.3331
   41MOL   C19819478   0.030   5.893   7.463 -0.3286  0.1948  0.6538
   41MOL   O19919479   7.874   5.851   7.325 -0.1686  0.2649 -0.4727
   41MOL   C20019480   7.746   5.829   7.288 -0.5719 -0.0214  0.2777
   41MOL   O20119481   7.656   5.850   7.360  0.2969 -0.2132  0.5556
   41MOL   C20219482   7.737   5.770   7.150  0.6395 -1.1290  0.2728
   41MOL   C20319483   7.707   5.614   7.165 -0.0796  0.1905 -0.6144
   41MOL   C20419484   7.827   5.523   7.163  0.0568 -0.0937  0.1414
   41MOL   O20519485   0.043   5.536   7.245  0.0101  0.4903  0.0037
   41MOL   H20619486   0.067   6.305   7.694 -0.3873 -1.7398  1.8714
   41MOL   H20719487   7.789   6.252   7.631  0.8092 -1.2589  1.2985
   41MOL   H20819488   0.064   6.064   7.697 -2.9280 -1.1787  0.0263
   41MOL   H20919489   0.172   6.113   7.571 -0.3936 -2.1405 -0.6919
   41MOL   H21019490   7.839   6.093   7.414 -1.1261 -0.5921 -0.3070
   41MOL   H21119491   7.758   6.024   7.558 -0.7915  0.3258 -0.8898
   41MOL   H21219492   0.138   5.897   7.477 -0.2793  0.1862  0.2722
   41MOL   H21319493   7.871   5.813   7.529 -1.8514 -0.3898 -0.8052
   41MOL   H21419494   7.826   5.774   7.087  1.9421  1.0860  2.1807
   41MOL   H21519495   7.653   5.817   7.099 -0.4373 -3.1824  0.0863
   41MOL   H21619496   7.662   5.600   7.263  3.0276  1.8273  1.1293
   41MOL   H21719497   7.636   5.588   7.086 -0.3839  0.0107 -0.2788
   41MOL   O21819498   7.817   5.436   7.062 -0.0509 -0.5970 -0.2066
   41MOL   C21919499   0.048   5.341   7.049  0.5861  0.1408  0.0942
   41MOL   C22019500   0.034   5.278   6.910 -0.0388  0.1077  0.5423
   41MOL   C22119501   0.145   5.179   6.862  0.3775  0.1655 -0.5907
   41MOL   C22219502   0.123   5.044   6.944  0.3706  0.6038 -0.1220
   41MOL   O22319503   0.223   4.945   6.920  0.1100 -0.3324  0.2575
   41MOL   C22419504   0.239   4.847   7.008 -0.0671 -0.3922 -1.0461
   41MOL   O22519505   0.171   4.831   7.107 -0.3692  0.1374 -0.0526
   41MOL   C22619506   0.364   4.761   6.973  0.5893 -0.3092 -0.7266
   41MOL   C22719507   0.329   4.635   6.884 -0.7820 -0.2698  0.0733
   41MOL   C22819508   0.339   4.507   6.975  0.3570  0.1263 -0.3659
   41MOL   O22919509   0.426   4.491   7.052 -0.5787 -0.3319 -0.2744
   41MOL   H23019510   0.142   5.392   7.065  1.4419 -1.6101  0.8222
   41MOL   H23119511   0.047   5.270   7.132 -1.7220 -0.2215 -0.1928
   41MOL   H23219512   0.033   5.360   6.839  2.9783  0.4749  0.8397
   41MOL   H23319513   7.812   5.230   6.891  0.6774 -1.4331  0.6496
   41MOL   H23419514   0.245   5.218   6.881  0.9495 -0.4735 -2.2042
   41MOL   H23519515   0.142   5.160   6.755  1.1366 -1.7198 -0.3071
   41MOL   H23619516   0.147   5.069   7.048 -0.3918 -2.2891  0.7850
   41MOL   H23719517   0.022   5.004   6.944  1.6911 -2.9990  1.5409
   41MOL   H23819518   0.400   4.718   7.067 -1.5064 -2.2332 -0.7655
   41MOL   H23919519   0.429   4.830   6.919  0.4897  0.5298  0.2148
   41MOL   H24019520   0.228   4.649   6.846  0.0097 -0.6282 -2.1899
   41MOL   H24119521   0.395   4.623   6.798  0.1776 -1.7832  0.9926
   41MOL   O24219522   0.245   4.411   6.958 -0.4359  0.6953  0.3092
   41MOL   C24319523   0.243   4.306   7.047  0.2892  0.3057  0.6435
   41MOL   C24419524   0.126   4.202   7.027 -0.3629  0.1942 -0.0529
   41MOL   C24519525   0.100   4.103   7.142 -0.0917 -0.7142  0.0922
   41MOL   C24619526   0.185   3.980   7.138 -0.1356 -0.1346 -0.4052
   41MOL   O24719527   0.320   4.022   7.152  0.5148  0.0675 -0.0205
   41MOL   C24819528   0.417   3.930   7.132  0.1386  0.5459 -0.2897
   41MOL   O24919529   0.397   3.811   7.102 -0.5307  0.4984 -0.6022
   41MOL   C25019530   0.557   3.991   7.149  0.6148  0.0753  0.2879
   41MOL   C25119531   0.683   3.903   7.109  0.5359 -0.0093 -0.3807
   41MOL   C25219532   0.748   3.950   6.972  0.4972 -0.0510  0.5494
   41MOL   O25319533   0.857   4.013   6.963  0.6259 -0.3401  0.5664
   41MOL   H25419534   0.339   4.255   7.045 -0.1134 -0.4586  0.2909
   41MOL   H25519535   0.240   4.348   7.148 -2.2416  2.6438 -0.3463
   41MOL   H25619536   0.146   4.151   6.933  0.0747  0.4046 -0.0785
   41MOL   H25719537   0.029   4.248   7.013 -1.7833 -3.5549 -3.6049
   41MOL   H25819538   7.869   4.080   7.130 -0.5866  2.3895 -2.4543
   41MOL   H25919539   0.125   4.153   7.236  0.1685  1.3593 -1.0367
   41MOL   H26019540   0.169   3.918   7.226 -2.8278 -0.2604 -0.9198
   41MOL   H26119541   0.177   3.911   7.054  2.7069 -1.7040  0.5737
   41MOL   H26219542   0.569   4.020   7.253 -1.4755  1.3462  0.1953
   41MOL   H26319543   0.544   4.085   7.096  0.0881  0.7360  1.5910
   41MOL   H26419544   0.752   3.920   7.192  1.1889 -0.1718 -0.8874
   41MOL   H26519545   0.654   3.799   7.117  1.9458 -0.4090 -0.4035
   41MOL   O26619546   0.673   3.913   6.865  0.9097  0.5002  0.3379
   41MOL   C26719547   0.717   3.946   6.734  0.5402 -0.4878 -0.2255
   41MOL   C26819548   0.675   4.086   6.700  0.1680 -0.4195 -0.2993
   41MOL   C26919549   0.533   4.133   6.740  0.0309  0.6077  0.2551
   41MOL   C27019550   0.504   4.276   6.695  1.1423  0.1780  0.4594
   41MOL   O27119551   0.362   4.295   6.693 -0.3019 -0.0056 -0.2590
   41MOL   C27219552   0.314   4.389   6.615 -0.2426 -0.4667  0.5634
   41MOL   O27319553   0.374   4.481   6.553  0.2503 -0.3180 -0.0532
   41MOL   C27419554   0.160   4.381   6.578  0.6854  0.0753 -0.1036
   41MOL   C27519555   0.140   4.241   6.518 -0.1929 -0.1478 -0.3072
   41MOL   C27619556   0.093   4.146   6.623  0.0234 -0.9849  0.6673
   41MOL   O27719557   7.874   4.179   6.698 -0.1840  0.0914  0.1871
   41MOL   H27819558   0.826   3.951   6.737  0.6054 -1.8069 -0.1548
   41MOL   H27919559   0.666   3.889   6.657 -1.7621  2.3174 -0.8591
   41MOL   H28019560   0.702   4.107   6.597  2.2317  0.0962  0.3124
   41MOL   H28119561   0.747   4.158   6.741 -0.3343  0.6546 -1.2697
   41MOL   H28219562   0.519   4.124   6.847 -0.6713 -2.2513 -0.0563
   41MOL   H28319563   0.456   4.064   6.706  0.9743 -0.4094  0.1672
   41MOL   H28419564   0.543   4.352   6.762 -0.9529  0.5626  1.2846
   41MOL   H28519565   0.532   4.290   6.590  2.2555  1.3384  0.8952
   41MOL   H28619566   0.133   4.464   6.513  3.5645 -0.6112 -2.3355
   41MOL   H28719567   0.108   4.404   6.671 -0.6872 -1.5783 -0.4469
   41MOL   H28819568   0.075   4.237   6.431 -1.9518  0.0776  0.9635
   41MOL   H28919569   0.231   4.200   6.476 -1.0977 -2.4297 -0.1132
   41MOL   O29019570   0.176   4.041   6.639  0.4635 -0.1220  0.1048
   41MOL   C29119571   0.161   3.941   6.745  0.0973  0.0432 -0.2290
   41MOL   C29219572   0.192   3.801   6.684 -0.2685  0.4135 -0.5748
   41MOL   C29319573   0.344   3.773   6.688 -0.3667 -0.1554  0.3264
   41MOL   C29419574   0.380   3.625   6.686 -0.2704 -0.0999 -0.4945
   41MOL   O29519575   0.509   3.600   6.724 -0.1211 -0.4033 -0.3692
   41MOL   C29619576   0.611   3.608   6.644  0.7333  0.2139  0.0802
   41MOL   O29719577   0.615   3.654   6.528 -0.3216  0.8026 -0.1733
   41MOL   C29819578   0.737   3.561   6.711 -0.0616 -0.2143 -0.2206
   41MOL   C29919579   0.771   3.409   6.704  0.0265  0.3313  0.3346
   41MOL   C30019580   0.693   3.328   6.808 -0.0082 -0.4060 -0.2195
   41MOL   O30119581   0.636   3.373   6.899 -0.0145 -0.7944  0.2453
   41MOL   H30219582   0.223   3.949   6.834 -0.7987  1.2602  0.3120
   41MOL   H30319583   0.059   3.946   6.782  0.5522 -1.3301  1.2425
   41MOL   H30419584   0.145   3.785   6.587 -0.6478 -2.0239 -0.0140
   41MOL   H30519585   0.137   3.732   6.747 -1.0744  1.1097 -0.4981
   41MOL   H30619586   0.386   3.816   6.779 -2.6420  0.9181  0.9156
   41MOL   H30719587   0.408   3.818   6.612 -0.1594  0.0321  0.6083
   41MOL   H30819588   0.321   3.586   6.768  0.8408  3.1260  1.9753
   41MOL   H30919589   0.369   3.570   6.593  1.9343 -3.1287  0.9525
   41MOL   H31019590   0.753   3.599   6.812  2.6461 -0.4746 -0.5148
   41MOL   H31119591   0.816   3.601   6.648 -0.6103  2.3090  0.6184
   41MOL   H31219592   0.752   3.368   6.605  2.4810 -1.0275  0.3962
   41MOL   H31319593   0.878   3.393   6.718  0.3341  1.5537 -0.5456
   41MOL   O31419594   0.694   3.197   6.792  0.1894  0.1075  0.3407
   41MOL   C31519595   0.622   3.103   6.875  0.2612  0.2806  0.2106
   41MOL   C31619596   0.686   3.079   7.014 -0.1076  0.0689  0.9686
   41MOL   C31719597   0.815   2.992   7.026 -0.3158  0.5722  0.4163
   41MOL   C31819598   0.851   2.970   7.176 -0.1414  0.4112  0.3306
   41MOL   O31919599   0.980   2.917   7.182 -0.0828  0.0894  0.3986
   41MOL   C32019600   1.007   2.791   7.160 -0.7819 -0.0212  0.5831
   41MOL   O32119601   0.921   2.711   7.135 -0.1933  0.7229 -0.4453
   41MOL   C32219602   1.151   2.761   7.192 -0.3170 -0.4594  0.2757
   41MOL   C32319603   1.245   2.870   7.144  0.0208  0.4176 -0.3284
   41MOL   C32419604   1.390   2.829   7.169  0.3345 -0.6626  0.0626
   41MOL   O32519605   1.424   2.721   7.221  0.2167  0.4589  0.6094
   41MOL   H32619606   0.522   3.139   6.901 -0.7968 -1.6927 -0.9898
   41MOL   H32719607   0.610   3.005   6.829 -0.4930  0.6329 -0.3522
   41MOL   H32819608   0.613   3.019   7.068  0.0551 -0.1572  0.9361
   41MOL   H32919609   0.697   3.172   7.069 -0.0293  1.0547 -0.6797
   41MOL   H33019610   0.907   3.043   7.000  0.7393 -1.0323  0.9804
   41MOL   H33119611   0.800   2.892   6.985 -2.5431  0.9200  0.2947
   41MOL   H33219612   0.859   3.068   7.223  0.0423 -0.0308  1.2226
   41MOL   H33319613   0.785   2.910   7.239  1.6310 -0.7805  1.0774
   41MOL   H33419614   1.171   2.672   7.134 -0.3050 -0.3321  0.0843
   41MOL   H33519615   1.165   2.749   7.300  0.5052 -0.6064  0.1529
   41MOL   H33619616   1.238   2.896   7.038  1.3280  2.1198 -0.0195
   41MOL   H33719617   1.236   2.962   7.202 -0.3359 -0.1195  0.4845
   41MOL   O33819618   1.464   2.913   7.106 -0.6033  0.1146  0.2410
   41MOL   C33919619   1.605   2.888   7.106  0.1827 -0.5164 -0.3818
   41MOL   C34019620   1.684   3.015   7.089  0.2668 -0.1657 -0.2079
   41MOL   C34119621   1.657   3.110   6.968  0.5300  0.2338 -0.2450
   41MOL   C34219622   1.739   3.236   6.981 -0.2445 -0.1101  0.1828
   41MOL   O34319623   1.673   3.334   6.907  0.4911  0.4078 -0.3186
   41MOL   C34419624   1.642   3.456   6.962  0.6578  0.0105  0.0849
   41MOL   O34519625   1.659   3.495   7.079 -0.1453 -0.9620 -0.2666
   41MOL   C34619626   1.593   3.561   6.859 -0.3223  0.5624  0.6842
   41MOL   C34719627   1.602   3.707   6.905 -0.4135 -0.9056  0.3748
   41MOL   C34819628   1.734   3.766   6.864  0.6644  0.5581 -0.6210
   41MOL   O34919629   1.805   3.826   6.946 -0.0292 -0.4168 -0.0407
   41MOL   H35019630   1.648   2.837   7.192  2.1814 -0.9998 -1.6224
   41MOL   H35119631   1.634   2.822   7.025 -2.1312 -1.5024 -0.4438
   41MOL   H35219632   1.790   2.991   7.086 -0.0328 -1.3742 -2.7604
   41MOL   H35319633   1.679   3.075   7.180  4.1325 -0.0644  0.0213
   41MOL   H35419634   1.550   3.129   6.963 -0.2817 -3.3602  1.7879
   41MOL   H35519635   1.689   3.062   6.876 -0.7498  0.7894 -0.9947
   41MOL   H35619636   1.741   3.270   7.084 -2.1632  0.8535 -0.0764
   41MOL   H35719637   1.840   3.219   6.944 -1.0981 -2.1647 -1.2797
   41MOL   H35819638   1.501   3.525   6.812  1.2510 -0.9617 -1.3267
   41MOL   H35919639   1.648   3.552   6.765 -0.4852 -0.6741  0.6872
   41MOL   H36019640   1.525   3.768   6.858  2.7188  2.7980 -0.2017
   41MOL   H36119641   1.592   3.731   7.011  0.7377  0.1369  0.2650
   41MOL   O36219642   1.762   3.755   6.733 -0.2019 -0.8167 -0.1065
   41MOL   C36319643   1.893   3.797   6.693 -0.7827  0.5953  0.5664
   41MOL   C36419644   1.888   3.899   6.579  0.1996  0.2152  0.5846
   41MOL   C36519645   1.832   3.843   6.452 -0.2282  0.3505 -0.1538
   41MOL   C36619646   1.914   3.749   6.373  0.2420  0.4779  0.8296
   41MOL   O36719647   1.830   3.709   6.261  0.1914  0.6787  0.0926
   41MOL   C36819648   1.893   3.620   6.184 -0.0824 -0.1085  0.2693
   41MOL   O36919649   2.013   3.591   6.194  0.0880  0.9196  0.6536
   41MOL   C37019650   1.801   3.576   6.076  0.1754 -0.2220  0.1720
   41MOL   C37119651   1.725   3.445   6.093 -0.4314  0.2760  0.1427
   41MOL   C37219652   1.611   3.430   5.994 -0.0912  0.2123  0.1441
   41MOL   O37319653   1.599   3.502   5.890  0.1728 -0.0236  0.5207
   41MOL   H37419654   1.953   3.837   6.774 -0.6820  1.8830 -0.1294
   41MOL   H37519655   1.944   3.708   6.658 -1.5932  0.6108 -0.6945
   41MOL   H37619656   1.986   3.944   6.567 -0.9687  2.5196 -0.7306
   41MOL   H37719657   1.833   3.988   6.610 -0.0008  1.0279 -1.9929
   41MOL   H37819658   1.808   3.934   6.397  0.2377 -0.8175 -2.3481
   41MOL   H37919659   1.739   3.789   6.468  0.9922 -1.7900 -0.0816
   41MOL   H38019660   2.007   3.800   6.347  0.0827  0.3698  0.0473
   41MOL   H38119661   1.938   3.660   6.431  0.7163 -0.1668 -0.3356
   41MOL   H38219662   1.856   3.564   5.983  0.5227  0.1985  0.3245
   41MOL   H38319663   1.723   3.653   6.078 -1.5865 -1.8088 -3.0964
   41MOL   H38419664   1.789   3.359   6.073 -1.3328  0.1311 -2.2466
   41MOL   H38519665   1.679   3.441   6.192  0.5496  2.0253  0.6953
   41MOL   O38619666   1.520   3.331   6.031  0.7461  0.0214  0.1145
   41MOL   C38719667   1.390   3.319   5.980  0.2441 -0.5239  0.3213
   41MOL   C38819668   1.387   3.201   5.881  0.2286  0.0694  0.0603
   41MOL   C38919669   1.244   3.169   5.844  0.0102 -0.9746  0.4510
   41MOL   C39019670   1.213   3.048   5.758  0.6201 -0.1780  0.3454
   41MOL   O39119671   1.251   3.100   5.629 -0.2368  0.0722 -0.2729
   41MOL   C39219672   1.254   3.013   5.522  0.1522 -0.2647 -0.6906
   41MOL   O39319673   1.209   2.902   5.522 -0.2124 -0.1227 -0.5999
   41MOL   C39419674   1.328   3.075   5.406  0.3690 -0.4448 -0.2535
   41MOL   C39519675   1.470   3.044   5.434 -0.3119  0.0535  0.4322
   41MOL   C39619676   1.548   3.174   5.474 -0.4936 -0.0393  0.1482
   41MOL   O39719677   1.557   3.276   5.398  0.0271 -0.2633 -0.4297
   41MOL   H39819678   1.321   3.289   6.060  2.4321 -1.8411  1.7786
   41MOL   H39919679   1.354   3.412   5.936 -0.5073 -0.9087  0.1137
   41MOL   H40019680   1.430   3.116   5.936  1.7739  0.5236 -0.4164
   41MOL   H40119681   1.447   3.222   5.793 -0.9958 -0.8694 -1.0145
   41MOL   H40219682   1.199   3.256   5.796  1.4704 -0.1045  0.6275
   41MOL   H40319683   1.190   3.155   5.937  1.2536  1.0400  1.5079
   41MOL   H40419684   1.267   2.964   5.801 -0.2705 -1.1690 -0.4415
   41MOL   H40519685   1.108   3.017   5.757  0.3063  0.8755 -0.9959
   41MOL   H40619686   1.304   3.181   5.399  1.2156  0.0065  2.8152
   41MOL   H40719687   1.301   3.027   5.312 -1.2023 -0.3450  0.1290
   41MOL   H40819688   1.480   2.974   5.518 -3.6137 -0.9270  0.0655
   41MOL   H40919689   1.520   3.016   5.342 -1.0397 -0.2240  0.1184
   41MOL   O41019690   1.604   3.164   5.585  0.2231  0.0975  0.3823
   41MOL   C41119691   1.710   3.250   5.627 -0.3051  0.1516 -0.4159
   41MOL   C41219692   1.765   3.183   5.760  0.0127 -0.2807  0.2041
   41MOL   C41319693   1.866   3.076   5.740 -0.1270 -0.2426 -0.4203
   41MOL   C41419694   1.885   2.986   5.868 -0.3890 -0.1844 -0.1543
   41MOL   O41519695   1.985   2.895   5.828  0.3817  0.4641  0.1358
   41MOL   C41619696   2.007   2.783   5.903  0.2666  0.1426 -0.3116
   41MOL   O41719697   1.975   2.765   6.021 -0.3277  0.1613  0.6885
   41MOL   C41819698   2.082   2.676   5.818  0.1285  0.1307 -0.0688
   41MOL   C41919699   2.118   2.553   5.886  0.1159 -0.6604  0.1178
   41MOL   C42019700   2.030   2.438   5.868  0.7177 -0.3240 -0.7644
   41MOL   O42119701   2.049   2.375   5.766  0.1969  0.1920 -0.1860
   41MOL   H42219702   1.776   3.272   5.543 -1.3508  1.8391 -0.8199
   41MOL   H42319703   1.666   3.348   5.644 -0.5663  0.1244 -0.9230
   41MOL   H42419704   1.682   3.130   5.808  0.1212 -0.1368  0.5529
   41MOL   H42519705   1.802   3.256   5.832 -0.0578 -0.2067  0.1652
   41MOL   H42619706   1.963   3.117   5.709  0.1683 -0.8176 -0.2546
   41MOL   H42719707   1.834   3.011   5.659  1.2648 -1.9851  0.4014
   41MOL   H42819708   1.913   3.051   5.951 -0.3641  0.6134 -0.7804
   41MOL   H42919709   1.793   2.933   5.892  0.0638 -0.9901 -0.1904
   41MOL   H43019710   2.174   2.728   5.789  0.5749 -0.4588  0.2817
   41MOL   H43119711   2.029   2.655   5.725 -0.3065 -0.4826  0.3187
   41MOL   H43219712   2.220   2.527   5.858  0.3023  2.0903 -1.9358
   41MOL   H43319713   2.137   2.567   5.993 -1.4818  0.8732  0.2297
   41MOL   O43419714   1.933   2.423   5.955 -0.1880 -0.1627 -0.4299
   41MOL   C43519715   1.824   2.333   5.924 -0.1260  0.1816 -1.2969
   41MOL   C43619716   1.761   2.250   6.036  0.6687 -0.0426 -0.1752
   41MOL   C43719717   1.850   2.141   6.085 -0.6376  0.7906  0.8590
   41MOL   C43819718   1.812   2.072   6.218  0.2760 -0.5253  0.0269
   41MOL   O43919719   1.695   1.998   6.203  0.3231 -0.2637 -0.0808
   41MOL   C44019720   1.574   2.051   6.230 -0.7730 -0.2878  0.0961
   41MOL   O44119721   1.554   2.164   6.264  0.1309  0.0972 -0.7531
   41MOL   C44219722   1.453   1.964   6.200 -0.5029  0.5435  0.0604
   41MOL   C44319723   1.341   1.991   6.296 -0.8863 -0.2176 -0.1403
   41MOL   C44419724   1.230   1.883   6.273 -0.2088 -0.0895 -0.5601
   41MOL   O44519725   1.242   1.775   6.327  0.6574  0.2296 -0.1709
   41MOL   H44619726   1.749   2.389   5.868 -1.5751 -0.7830 -0.3394
   41MOL   H44719727   1.854   2.253   5.857 -1.8658  0.9628 -3.0682
   41MOL   H44819728   1.669   2.198   6.008  1.6008 -1.0411 -1.4079
   41MOL   H44919729   1.733   2.325   6.110 -1.3052  0.7744 -1.7029
   41MOL   H45019730   1.950   2.181   6.102  0.4970 -0.5574 -2.3209
   41MOL   H45119731   1.858   2.059   6.013  0.3792  0.0357  1.8159
   41MOL   H45219732   1.885   1.997   6.250 -1.1932 -1.0359  2.3649
   41MOL   H45319733   1.813   2.148   6.296 -0.6919  1.0108 -1.4354
   41MOL   H45419734   1.489   1.862   6.206  0.2357  0.8382  0.7248
   41MOL   H45519735   1.424   1.962   6.095 -1.2731  0.0299  0.2781
   41MOL   H45619736   1.372   1.986   6.400 -0.3118 -1.1999 -0.3493
   41MOL   H45719737   1.293   2.085   6.268 -2.1664 -1.7915 -3.5135
   41MOL   O45819738   1.135   1.917   6.185  0.1459 -0.3836  0.2801
   41MOL   C45919739   1.019   1.834   6.157 -0.7008 -0.2589  0.1312
   41MOL   C46019740   0.927   1.902   6.058 -0.6759  0.6854 -0.1207
   41MOL   C46119741   0.837   2.002   6.123  0.1366 -0.4795 -0.2146
   41MOL   C46219742   0.712   2.034   6.032 -0.0769  0.0479 -0.6116
   41MOL   O46319743   0.627   1.922   6.036  0.0940 -0.1856  0.2177
   41MOL   C46419744   0.494   1.935   6.062 -0.0179  0.3805  0.6832
   41MOL   O46519745   0.435   2.040   6.078 -0.2022 -0.1471  0.4806
   41MOL   C46619746   0.417   1.805   6.041 -0.1118  0.3622  0.1818
   41MOL   C46719747   0.321   1.794   5.922  0.2711 -0.0168  0.3961
   41MOL   C46819748   0.190   1.855   5.957 -0.0104  0.2340 -0.6409
   41MOL   O46919749   0.124   1.805   6.048 -0.0989  0.3639  0.5865
   41MOL   H47019750   1.054   1.736   6.124 -1.6471  0.0416 -1.7729
   41MOL   H47119751   0.977   1.819   6.257  0.6056  1.2049  0.9313
   41MOL   H47219752   0.861   1.819   6.032  0.2789  0.0972 -0.6916
   41MOL   H47319753   0.985   1.942   5.974 -0.1707  0.1750 -0.0185
   41MOL   H47419754   0.885   2.097   6.146 -1.4869 -0.3484  3.0356
   41MOL   H47519755   0.801   1.973   6.222  0.0456  0.4560  0.0375
   41MOL   H47619756   0.675   2.133   6.058  1.4020  0.3647  0.3526
   41MOL   H47719757   0.752   2.028   5.931  1.3172 -1.1118  0.0058
   41MOL   H47819758   0.361   1.784   6.132 -1.8883  0.5344 -0.8526
   41MOL   H47919759   0.484   1.719   6.040  0.6104  0.9138  0.6066
   41MOL   H48019760   0.358   1.833   5.828 -2.0444 -0.4197 -0.7157
   41MOL   H48119761   0.307   1.688   5.902 -1.6034  0.1438  0.7837
   41MOL   H48219762   0.162   1.950   5.911 -0.5714 -0.2549 -1.3221
   42MOL     O119763   6.289   5.957   4.755 -0.4895  0.0973  0.2630
   42MOL     C219764   6.376   6.029   4.680  0.1840  0.5502 -0.1383
   42MOL     C319765   6.314   6.044   4.534 -0.2203  0.5872 -0.1129
   42MOL     C419766   6.346   5.920   4.443  0.0101  0.0516 -0.3437
   42MOL     C519767   6.314   5.952   4.289  0.2547  0.0566  0.3982
   42MOL     O619768   6.329   5.836   4.214  0.2041  0.6053  0.0188
   42MOL     C719769   6.238   5.796   4.127 -0.3787  0.1819  0.0916
   42MOL     O819770   6.125   5.836   4.119 -0.2162 -0.3439  0.3426
   42MOL     C919771   6.285   5.681   4.039  0.1455  0.6882 -0.6541
   42MOL    C1019772   6.207   5.671   3.909  0.4945 -0.4946  0.4674
   42MOL    C1119773   6.192   5.527   3.858 -0.1988 -0.6571 -0.7489
   42MOL    O1219774   6.183   5.436   3.933  0.8128  0.1214  0.2097
   42MOL    H1319775   6.385   6.127   4.727 -1.6666  0.1189  1.2163
   42MOL    H1419776   6.474   5.984   4.662  0.0713  0.8228 -1.4945
   42MOL    H1519777   6.366   6.131   4.495  2.4144 -0.4033  1.1216
   42MOL    H1619778   6.205   6.047   4.540 -0.2979  0.2283 -1.2407
   42MOL    H1719779   6.284   5.839   4.483  1.4084 -1.5251 -1.3310
   42MOL    H1819780   6.446   5.879   4.448 -0.3234 -0.8079 -0.8007
   42MOL    H1919781   6.220   6.000   4.262 -0.1951  0.2542  2.2512
   42MOL    H2019782   6.390   6.016   4.244  0.5410 -0.5233  0.0544
   42MOL    H2119783   6.297   5.589   4.096 -1.6755  1.2322  0.6456
   42MOL    H2219784   6.386   5.690   3.999  1.2542  1.8482  2.2794
   42MOL    H2319785   6.107   5.714   3.912 -0.8251 -3.5097  1.3015
   42MOL    H2419786   6.265   5.738   3.845  0.1064  0.1603  0.7889
   42MOL    H2519787   6.313   5.949   4.846 -2.0948 -2.2593  0.5357
   42MOL    O2619788   6.176   5.526   3.717  0.3474  0.0473  0.0827
   42MOL    C2719789   6.138   5.404   3.658 -0.2840 -0.2355  0.1526
   42MOL    C2819790   6.017   5.439   3.577 -0.5304  0.8755  0.9967
   42MOL    C2919791   6.053   5.501   3.436 -0.1491 -0.6671 -1.1085
   42MOL    C3019792   5.938   5.537   3.344 -0.0071 -0.3239  0.1787
   42MOL    O3119793   5.867   5.630   3.418  0.0803 -0.6866 -0.3554
   42MOL    C3219794   5.754   5.683   3.374  0.5308  0.3654  0.1058
   42MOL    O3319795   5.708   5.677   3.261  0.6822 -0.4894 -0.0287
   42MOL    C3419796   5.677   5.758   3.483  0.4641  0.1798 -0.1120
   42MOL    C3519797   5.531   5.708   3.501  0.0465  0.4300  0.2360
   42MOL    C3619798   5.521   5.604   3.614  0.9015 -0.7370 -0.4269
   42MOL    O3719799   5.456   5.498   3.607  0.0647  0.0017 -0.1528
   42MOL    H3819800   6.212   5.354   3.595 -0.0370 -1.3742  1.3268
   42MOL    H3919801   6.110   5.325   3.728  0.4982 -1.6457 -1.0971
   42MOL    H4019802   5.950   5.502   3.634 -1.5914  0.6519  0.0129
   42MOL    H4119803   5.962   5.348   3.554 -0.0873  0.7655  0.3497
   42MOL    H4219804   6.108   5.421   3.387 -1.6405 -1.5733 -1.3282
   42MOL    H4319805   6.119   5.588   3.440  0.2108 -1.0103  2.1139
   42MOL    H4419806   5.971   5.567   3.244 -1.5011 -1.7595 -0.7784
   42MOL    H4519807   5.869   5.454   3.325 -0.0410  0.1111 -1.6767
   42MOL    H4619808   5.679   5.864   3.457 -0.2659  0.0161 -0.8703
   42MOL    H4719809   5.729   5.761   3.579 -1.5209 -0.2020  1.0048
   42MOL    H4819810   5.466   5.790   3.527  0.5300  0.5625  1.0505
   42MOL    H4919811   5.496   5.670   3.405  0.5162  2.0404 -0.5965
   42MOL    O5019812   5.559   5.652   3.730  0.5932 -0.1483  0.2870
   42MOL    C5119813   5.537   5.584   3.855 -0.4464  0.3049  0.3027
   42MOL    C5219814   5.645   5.614   3.955 -0.2660 -0.7414  0.2295
   42MOL    C5319815   5.790   5.576   3.914  0.2456 -0.4268 -0.3899
   42MOL    C5419816   5.817   5.428   3.912  0.7569  0.5969  0.2868
   42MOL    O5519817   5.745   5.376   3.800  0.2000 -0.3296  0.1661
   42MOL    C5619818   5.748   5.245   3.770 -0.2067  0.3266  0.3724
   42MOL    O5719819   5.821   5.160   3.829  0.0993 -0.9306  0.6145
   42MOL    C5819820   5.660   5.218   3.654  0.1621 -0.5039 -0.1080
   42MOL    C5919821   5.635   5.061   3.640  0.2089 -0.1263  0.0318
   42MOL    C6019822   5.578   5.031   3.503  0.5340 -1.3572  0.7421
   42MOL    O6119823   5.654   5.025   3.409 -0.1992  0.3895  0.0909
   42MOL    H6219824   5.441   5.618   3.892 -0.7589  2.3490 -2.2302
   42MOL    H6319825   5.530   5.476   3.840 -1.7883  0.3750  0.3575
   42MOL    H6419826   5.617   5.574   4.052  1.8262  0.8197  1.5181
   42MOL    H6519827   5.636   5.723   3.957  2.2268 -0.4775 -0.8009
   42MOL    H6619828   5.858   5.610   3.991  0.1218 -0.0875 -0.4301
   42MOL    H6719829   5.809   5.633   3.823  0.9497  1.4958  0.9396
   42MOL    H6819830   5.919   5.392   3.900  0.1722 -0.4416 -1.7901
   42MOL    H6919831   5.776   5.382   4.002 -1.0220 -0.2011 -0.9113
   42MOL    H7019832   5.715   5.250   3.565  1.3491 -1.1035  0.3897
   42MOL    H7119833   5.562   5.264   3.662  1.7993  3.1614  0.1144
   42MOL    H7219834   5.726   5.003   3.656 -0.5557 -1.7278 -1.2972
   42MOL    H7319835   5.552   5.037   3.707  0.7167  3.2094  1.9788
   42MOL    O7419836   5.446   5.019   3.502  0.1706  0.2088  0.3830
   42MOL    C7519837   5.382   5.026   3.374 -0.4603  0.3615 -0.2501
   42MOL    C7619838   5.229   5.027   3.383  0.4606 -0.0995 -0.5958
   42MOL    C7719839   5.165   5.042   3.250 -0.2899  0.9500  0.3195
   42MOL    C7819840   5.017   5.029   3.263  0.3126  0.0703 -0.3354
   42MOL    O7919841   4.966   5.102   3.373 -0.3392 -0.0155 -0.0169
   42MOL    C8019842   4.846   5.069   3.421 -0.1610 -0.4091  0.2793
   42MOL    O8119843   4.787   4.962   3.402  0.0866 -0.0734 -0.6201
   42MOL    C8219844   4.804   5.170   3.527 -0.4567 -0.4678 -0.5839
   42MOL    C8319845   4.714   5.116   3.631  0.2314  0.6584  0.1369
   42MOL    C8419846   4.566   5.136   3.598  0.6201 -0.1295 -0.8199
   42MOL    O8519847   4.521   5.172   3.491  0.3606  0.1439  0.2710
   42MOL    H8619848   5.409   5.117   3.320  1.4534  0.2231  0.4279
   42MOL    H8719849   5.410   4.939   3.315  4.0881  1.5973 -0.1047
   42MOL    H8819850   5.198   5.109   3.449  0.1821 -2.4899  2.3452
   42MOL    H8919851   5.199   4.935   3.433 -0.3516  1.7672  2.4871
   42MOL    H9019852   5.211   4.971   3.182 -2.1609  0.4678 -0.4614
   42MOL    H9119853   5.184   5.145   3.218  1.8642  0.2866 -0.6660
   42MOL    H9219854   4.966   5.055   3.170 -0.1951 -0.1146 -0.1133
   42MOL    H9319855   5.005   4.922   3.282  0.7087  0.1906  0.5875
   42MOL    H9419856   4.757   5.256   3.478  0.6027  1.1146  1.0847
   42MOL    H9519857   4.899   5.207   3.566 -0.0856  1.0271 -2.7538
   42MOL    H9619858   4.730   5.008   3.639 -0.1077  0.1892 -4.3917
   42MOL    H9719859   4.736   5.161   3.728 -1.9974  0.5024  0.7474
   42MOL    O9819860   4.486   5.113   3.711 -0.5210  0.1111 -0.4279
   42MOL    C9919861   4.344   5.152   3.712  0.5079 -0.0507  0.4073
   42MOL   C10019862   4.248   5.092   3.603  0.1397  0.1693  0.3198
   42MOL   C10119863   4.090   5.125   3.624  0.7695  0.7517 -0.4938
   42MOL   C10219864   3.981   5.031   3.579 -0.4215 -0.2562 -0.8945
   42MOL   O10319865   4.016   5.020   3.447  0.0698 -0.7223 -0.1237
   42MOL   C10419866   3.950   4.926   3.368  0.0968 -0.2369 -0.2954
   42MOL   O10519867   3.857   4.851   3.406  0.2203  0.0032 -0.4477
   42MOL   C10619868   4.003   4.919   3.225 -0.4964 -0.1531 -0.4404
   42MOL   C10719869   3.965   5.051   3.146  0.6009 -0.0345  0.0762
   42MOL   C10819870   4.038   5.182   3.186  0.2808 -0.3921 -0.0644
   42MOL   O10919871   3.973   5.261   3.254  0.3015 -0.2532  0.3499
   42MOL   H11019872   4.296   5.125   3.806 -1.2286  0.2172 -0.3717
   42MOL   H11119873   4.337   5.260   3.698 -1.9430  0.0827  2.3557
   42MOL   H11219874   4.262   4.984   3.605  1.0865  0.3010  1.7525
   42MOL   H11319875   4.272   5.119   3.500 -2.2474  2.3353  0.2805
   42MOL   H11419876   4.072   5.229   3.598  0.8773  0.3809 -2.1254
   42MOL   H11519877   4.076   5.124   3.732 -0.7782  0.2115 -0.6883
   42MOL   H11619878   3.993   4.934   3.628 -0.8250 -0.9819 -2.1894
   42MOL   H11719879   3.880   5.068   3.595 -0.4967 -0.4183 -0.9903
   42MOL   H11819880   3.961   4.831   3.176  1.0229 -1.9004  1.2795
   42MOL   H11919881   4.111   4.907   3.236 -0.2328 -0.0540 -2.7028
   42MOL   H12019882   3.993   5.043   3.041  1.1740  2.1060  0.0413
   42MOL   H12119883   3.857   5.057   3.153  0.6044  1.0335 -0.6525
   42MOL   O12219884   4.168   5.176   3.161  0.1530 -0.7971 -0.4634
   42MOL   C12319885   4.246   5.281   3.201 -0.1989 -0.3442  0.6772
   42MOL   C12419886   4.393   5.278   3.149 -0.0136 -0.0718 -0.3717
   42MOL   C12519887   4.448   5.145   3.176  0.0826 -0.3782 -0.0288
   42MOL   C12619888   4.603   5.133   3.141 -0.3828 -0.1509  0.4591
   42MOL   O12719889   4.678   5.245   3.195  0.2723 -0.2417 -0.0751
   42MOL   C12819890   4.780   5.281   3.125 -0.4539 -0.1212 -0.4532
   42MOL   O12919891   4.824   5.225   3.027  0.0659  0.1059 -0.1989
   42MOL   C13019892   4.849   5.412   3.178 -0.4426 -0.2104 -0.2796
   42MOL   C13119893   4.747   5.534   3.189 -0.1784 -0.6174  0.4809
   42MOL   C13219894   4.712   5.570   3.329  0.2867 -0.0084  0.9521
   42MOL   O13319895   4.629   5.502   3.388  0.5117 -0.5040 -0.9065
   42MOL   H13419896   4.203   5.378   3.179 -0.5575 -0.7726 -0.5217
   42MOL   H13519897   4.260   5.275   3.309  0.2013 -0.1715  0.6365
   42MOL   H13619898   4.446   5.365   3.189 -0.1065 -0.8644  1.5668
   42MOL   H13719899   4.393   5.315   3.047 -0.3773  0.4263 -0.1931
   42MOL   H13819900   4.405   5.074   3.106 -2.3028 -0.0373  1.0688
   42MOL   H13919901   4.430   5.100   3.274 -1.2230  0.9162  0.3288
   42MOL   H14019902   4.643   5.037   3.173 -1.1168 -1.1026 -1.4585
   42MOL   H14119903   4.611   5.124   3.033 -0.1684 -0.0736  0.4681
   42MOL   H14219904   4.930   5.436   3.110 -0.6861  1.9152  0.1577
   42MOL   H14319905   4.889   5.417   3.279 -0.4480  1.3435 -0.3519
   42MOL   H14419906   4.806   5.617   3.152  1.3059 -1.1519  1.6072
   42MOL   H14519907   4.664   5.525   3.119  2.4105 -3.7954 -2.3152
   42MOL   O14619908   4.781   5.669   3.379 -0.3829  0.1634 -0.1480
   42MOL   C14719909   4.763   5.701   3.511  0.5052  0.5677  0.0587
   42MOL   C14819910   4.770   5.856   3.532  0.1630  0.2539 -0.3342
   42MOL   C14919911   4.902   5.924   3.494  0.1178  0.0345 -0.2220
   42MOL   C15019912   4.916   6.065   3.543  0.1870 -0.0059 -0.0898
   42MOL   O15119913   4.801   6.139   3.498 -0.5326  0.2138 -0.1092
   42MOL   C15219914   4.788   6.264   3.533 -1.3291  0.0910  0.1761
   42MOL   O15319915   4.865   6.323   3.606 -0.5038  0.3318 -0.1685
   42MOL   C15419916   4.669   6.336   3.477 -0.4463  0.4541  0.3324
   42MOL   C15519917   4.566   6.380   3.582  0.4616  0.8553 -0.4839
   42MOL   C15619918   4.545   6.529   3.590  0.0451 -0.4177 -0.6074
   42MOL   O15719919   4.433   6.581   3.606  0.5233 -0.2339  0.5232
   42MOL   H15819920   4.659   5.695   3.541  1.1319  0.5645  2.3276
   42MOL   H15919921   4.821   5.640   3.580  2.4400  1.2723 -0.8984
   42MOL   H16019922   4.743   5.875   3.636 -0.3908 -0.0479 -0.4239
   42MOL   H16119923   4.694   5.898   3.465  1.2443  2.1866 -0.3824
   42MOL   H16219924   4.922   5.926   3.387  2.6454  2.0293  0.2488
   42MOL   H16319925   4.984   5.860   3.527 -0.2779 -0.4026 -0.0737
   42MOL   H16419926   4.921   6.077   3.651 -1.6414  0.2135 -0.0176
   42MOL   H16519927   5.015   6.105   3.522  0.3875  1.3628  3.1927
   42MOL   H16619928   4.618   6.286   3.394 -0.9314  1.4021  0.0440
   42MOL   H16719929   4.706   6.426   3.426  1.4145  0.9637  2.5162
   42MOL   H16819930   4.476   6.324   3.555  1.8716 -2.8198  1.9258
   42MOL   H16919931   4.601   6.351   3.682  0.4792 -0.5134 -0.8676
   42MOL   O17019932   4.662   6.592   3.584 -0.3600  0.1021 -0.1483
   42MOL   C17119933   4.671   6.731   3.611 -0.2207  0.6531  0.3717
   42MOL   C17219934   4.808   6.766   3.651  0.3325  0.1477  0.2174
   42MOL   C17319935   4.836   6.735   3.799  0.8155 -0.0041 -0.4306
   42MOL   C17419936   4.984   6.742   3.848 -0.4673  0.0275 -0.2560
   42MOL   O17519937   5.020   6.874   3.877  0.3374 -0.2764 -0.0892
   42MOL   C17619938   5.146   6.898   3.932  0.2632  0.6977  0.2400
   42MOL   O17719939   5.226   6.813   3.964 -0.0211  0.1589 -0.4493
   42MOL   C17819940   5.182   7.048   3.923 -0.2371 -0.4348 -0.1470
   42MOL   C17919941   5.329   7.063   3.874 -0.3127  0.5242  0.2031
   42MOL   C18019942   5.372   7.195   3.814  0.7886  0.0514 -0.3386
   42MOL   O18119943   5.367   7.297   3.880 -0.5448  0.0643  0.0740
   42MOL   H18219944   4.645   6.787   3.521 -2.6363 -0.9573  0.0141
   42MOL   H18319945   4.599   6.760   3.688  1.1396 -1.3744  2.4832
   42MOL   H18419946   4.799   6.873   3.632 -2.5446 -0.1630 -0.3563
   42MOL   H18519947   4.872   6.721   3.575 -0.1453 -1.9449  1.0137
   42MOL   H18619948   4.814   6.629   3.813 -1.6703  0.6406  0.8896
   42MOL   H18719949   4.779   6.807   3.858  0.0963  0.6200 -1.8848
   42MOL   H18819950   4.992   6.682   3.939 -1.4579 -0.1579 -0.2791
   42MOL   H18919951   5.059   6.697   3.784 -1.4983 -1.3333 -0.5303
   42MOL   H19019952   5.160   7.092   4.020  2.3649 -0.0445  0.3018
   42MOL   H19119953   5.112   7.097   3.856  0.5323 -1.3042 -1.6182
   42MOL   H19219954   5.391   7.054   3.963  0.2168  1.1730 -0.1004
   42MOL   H19319955   5.373   6.982   3.816 -3.3607  0.4853 -2.2317
   42MOL   O19419956   5.413   7.186   3.686 -0.0701  0.3396 -0.0091
   42MOL   C19519957   5.490   7.290   3.635  0.0284 -0.0994 -0.1981
   42MOL   C19619958   5.491   7.301   3.481 -0.2146  0.2959 -0.2068
   42MOL   C19719959   5.576   7.419   3.429 -0.3462  0.3151 -0.0449
   42MOL   C19819960   5.595   7.424   3.276  0.1437  0.0076 -0.2048
   42MOL   O19919961   5.712   7.502   3.251  0.0069 -0.3473  0.2339
   42MOL   C20019962   5.741   7.538   3.118 -0.7599 -0.1068  1.0825
   42MOL   O20119963   5.681   7.511   3.016 -0.2253  0.5739  0.0761
   42MOL   C20219964   5.864   7.628   3.112 -0.3820  0.1137 -0.5835
   42MOL   C20319965   5.836   7.787   3.114  0.1766  0.1851  0.2561
   42MOL   C20419966   5.685   7.833   3.110 -0.2570  0.0055  0.8243
   42MOL   O20519967   5.644   0.030   3.018 -0.1152  0.4648  0.5126
   42MOL   H20619968   5.440   7.382   3.665  0.8031  0.5111 -0.7783
   42MOL   H20719969   5.585   7.283   3.687 -0.1816 -1.8792 -0.0259
   42MOL   H20819970   5.393   7.305   3.434  0.0054  1.5616 -0.5809
   42MOL   H20919971   5.531   7.205   3.450  3.2906  0.4466  3.5021
   42MOL   H21019972   5.682   7.411   3.453 -0.3540 -3.0062 -0.8768
   42MOL   H21119973   5.541   7.514   3.471  1.2037  0.7573  0.2861
   42MOL   H21219974   5.619   7.327   3.231 -0.1745  0.9578 -2.4841
   42MOL   H21319975   5.512   7.468   3.222 -0.2837  1.6327  1.7162
   42MOL   H21419976   5.899   7.604   3.011  1.8369 -0.3114  0.2493
   42MOL   H21519977   5.943   7.602   3.183 -0.0699 -0.3157 -1.0805
   42MOL   H21619978   5.865   7.812   3.216 -0.5085 -2.9946  1.2856
   42MOL   H21719979   5.909   7.831   3.047 -0.7397  0.1785 -0.7751
   42MOL   O21819980   5.610   7.799   3.219  0.7203  0.3080 -0.4322
   42MOL   C21919981   5.465   7.820   3.231  0.0346 -0.6070  0.2398
   42MOL   C22019982   5.428   0.019   3.358  0.2356  0.1916  0.1343
   42MOL   C22119983   5.468   7.822   3.487 -0.4956 -0.1142  0.7060
   42MOL   C22219984   5.401   0.007   3.617  0.2753 -0.5269 -0.7781
   42MOL   O22319985   5.430   7.810   3.741 -0.1360 -0.0430 -0.4621
   42MOL   C22419986   5.387   7.688   3.770 -0.5604 -0.6733  0.1760
   42MOL   O22519987   5.314   7.617   3.697  0.2077 -0.0679 -0.5016
   42MOL   C22619988   5.437   7.630   3.902  0.9035 -0.0047 -0.3915
   42MOL   C22719989   5.589   7.658   3.923 -0.1113 -0.0379  0.2959
   42MOL   C22819990   5.676   7.534   3.889  0.7480  0.0361 -0.1786
   42MOL   O22919991   5.694   7.502   3.773 -0.2121 -0.6580  0.1725
   42MOL   H23019992   5.425   0.003   3.148  1.3918  0.9426  0.6218
   42MOL   H23119993   5.433   7.716   3.231  0.4705 -0.7505  1.1249
   42MOL   H23219994   5.319   0.028   3.362  0.3167  0.7280  1.2918
   42MOL   H23319995   5.470   0.119   3.357  1.8208 -0.4487  0.3967
   42MOL   H23419996   5.576   7.832   3.498 -0.3911  0.7708 -0.9689
   42MOL   H23519997   5.446   7.716   3.490 -0.3589 -0.1428  0.6974
   42MOL   H23619998   5.429   0.111   3.628  0.0923 -0.6516  0.9470
   42MOL   H23719999   5.293   7.870   3.605  0.3229 -1.3454 -0.4284
   42MOL   H23820000   5.420   7.522   3.909 -4.5936  0.8413  1.7420
   42MOL   H23920001   5.381   7.686   3.976  0.5304 -0.7342 -0.1162
   42MOL   H24020002   5.635   7.738   3.865  0.3837 -0.2581  0.3772
   42MOL   H24120003   5.598   7.691   4.026  0.2115  0.5301  0.0879
   42MOL   O24220004   5.729   7.470   3.993  0.0223  0.5566  0.4432
   42MOL   C24320005   5.827   7.372   3.982 -0.2522  0.2902 -0.4865
   42MOL   C24420006   5.796   7.222   4.006  0.0608 -0.1986  0.0457
   42MOL   C24520007   5.706   7.162   3.892 -0.4902  0.1107 -0.2473
   42MOL   C24620008   5.713   7.009   3.898 -0.0711 -0.0617 -0.7975
   42MOL   O24720009   5.630   6.949   3.798 -0.0536  0.4678  0.0839
   42MOL   C24820010   5.682   6.887   3.695 -0.2923  0.8020 -0.0012
   42MOL   O24920011   5.803   6.883   3.677  0.1670  0.0296 -0.2779
   42MOL   C25020012   5.577   6.810   3.619  0.2242  0.3227  0.2621
   42MOL   C25120013   5.500   6.698   3.696  0.1165  0.6249 -0.3196
   42MOL   C25220014   5.586   6.593   3.763  0.5449 -0.3116 -0.2451
   42MOL   O25320015   5.570   6.575   3.883 -0.4463  0.3174 -0.2739
   42MOL   H25420016   5.873   7.380   3.883  1.2293  2.4289  0.3513
   42MOL   H25520017   5.900   7.402   4.057 -0.5990  0.8648 -0.3778
   42MOL   H25620018   5.746   7.218   4.102 -0.9564 -1.4449 -0.5167
   42MOL   H25720019   5.883   7.158   4.017 -1.3529 -2.4298 -1.3646
   42MOL   H25820020   5.745   7.204   3.799  0.2390 -0.4601 -0.2053
   42MOL   H25920021   5.607   7.204   3.905 -1.2848 -2.4246  2.4629
   42MOL   H26020022   5.816   6.973   3.903  0.2810  0.4712 -3.4680
   42MOL   H26120023   5.669   6.979   3.993 -0.0452 -0.8785 -1.0371
   42MOL   H26220024   5.616   6.774   3.523  3.1729 -1.3194  1.9723
   42MOL   H26320025   5.496   6.874   3.585  0.3966  0.0553 -0.6868
   42MOL   H26420026   5.421   6.730   3.764 -0.1324 -1.0640  0.2100
   42MOL   H26520027   5.437   6.642   3.627 -1.3018 -0.2109  1.6349
   42MOL   O26620028   5.671   6.529   3.683 -0.0067 -0.0452 -0.1634
   42MOL   C26720029   5.778   6.443   3.740 -0.2957  0.8846 -0.5267
   42MOL   C26820030   5.901   6.513   3.810 -0.0213 -0.8173  0.3613
   42MOL   C26920031   5.984   6.616   3.729  1.1797 -0.5277 -0.0346
   42MOL   C27020032   6.123   6.573   3.672  0.1707 -0.3177 -0.5248
   42MOL   O27120033   6.207   6.526   3.774 -0.0800  0.5347 -0.0749
   42MOL   C27220034   6.304   6.597   3.823 -0.6653  0.5180  0.0067
   42MOL   O27320035   6.334   6.708   3.787  0.1355 -0.0425  0.5101
   42MOL   C27420036   6.397   6.519   3.919  0.0733 -0.2146  0.6807
   42MOL   C27520037   6.307   6.509   4.045  0.2575  0.7863 -0.0495
   42MOL   C27620038   6.288   6.367   4.089  0.6076  0.1854 -0.3631
   42MOL   O27720039   6.323   6.323   4.199  0.5797  0.4530 -0.1181
   42MOL   H27820040   5.738   6.380   3.819 -0.6280  1.1169 -0.5081
   42MOL   H27920041   5.820   6.379   3.662 -1.6054 -0.7013  0.0247
   42MOL   H28020042   5.973   6.455   3.868  1.2953 -0.6017 -1.0144
   42MOL   H28120043   5.852   6.572   3.887  0.6147  2.0491 -1.3264
   42MOL   H28220044   5.992   6.699   3.799 -0.4576  0.4425 -0.9682
   42MOL   H28320045   5.926   6.646   3.641  3.7132  2.1145 -0.8899
   42MOL   H28420046   6.121   6.488   3.604 -1.5373  1.3496 -2.6667
   42MOL   H28520047   6.177   6.648   3.614 -0.3735  1.4686  1.2262
   42MOL   H28620048   6.493   6.567   3.940 -0.2757  0.2913  1.1444
   42MOL   H28720049   6.415   6.421   3.875 -0.6858 -0.4522  0.9004
   42MOL   H28820050   6.350   6.557   4.133 -2.5066  2.4598  0.4389
   42MOL   H28920051   6.206   6.547   4.042 -0.2091 -0.2488  1.7755
   42MOL   O29020052   6.226   6.292   3.994  0.1143 -0.5514 -0.0049
   42MOL   C29120053   6.208   6.153   4.016  0.5776 -0.4564 -0.2539
   42MOL   C29220054   6.162   6.086   3.883 -0.1147  0.1370 -0.0730
   42MOL   C29320055   6.265   6.079   3.768 -0.7668  0.3897  0.1211
   42MOL   C29420056   6.233   5.974   3.665 -0.3387  0.2048  0.0515
   42MOL   O29520057   6.109   6.015   3.613  0.0822 -0.5329 -0.2422
   42MOL   C29620058   6.061   5.964   3.503  0.2765 -0.1424  0.0581
   42MOL   O29720059   6.102   5.869   3.444 -0.3319 -0.6138 -0.0582
   42MOL   C29820060   5.941   6.042   3.461 -0.5243  0.5024 -0.5925
   42MOL   C29920061   5.985   6.148   3.364  0.0511  0.1361 -0.4783
   42MOL   C30020062   5.899   6.280   3.382 -0.2061 -0.9753  0.3071
   42MOL   O30120063   5.946   6.376   3.442 -0.7283 -0.2202 -0.2721
   42MOL   H30220064   6.286   6.100   4.070 -0.0933 -0.8300  0.3580
   42MOL   H30320065   6.123   6.145   4.085  1.9285  0.1967  1.5077
   42MOL   H30420066   6.073   6.137   3.846 -0.6854  0.6425  1.9125
   42MOL   H30520067   6.122   5.988   3.911  3.2872 -0.8833  1.4254
   42MOL   H30620068   6.360   6.047   3.811 -2.1286  0.1246  3.0767
   42MOL   H30720069   6.279   6.178   3.725  1.9248  0.5842  1.3234
   42MOL   H30820070   6.311   5.966   3.588  0.2689  2.0895  0.4653
   42MOL   H30920071   6.215   5.875   3.707 -0.8850 -0.6270 -2.0525
   42MOL   H31020072   5.895   6.068   3.556  2.4709 -0.4073  1.1576
   42MOL   H31120073   5.863   5.972   3.431  0.8692 -1.9799  1.4075
   42MOL   H31220074   6.086   6.175   3.394  0.3403  0.8155 -2.0085
   42MOL   H31320075   5.984   6.117   3.259 -3.6658  0.5327 -0.6261
   42MOL   O31420076   5.790   6.278   3.312  0.2687  0.1248  0.1736
   42MOL   C31520077   5.704   6.389   3.308 -0.2294 -0.1013  0.2443
   42MOL   C31620078   5.588   6.375   3.409 -1.1475 -0.2908 -0.3503
   42MOL   C31720079   5.466   6.281   3.374 -0.3075 -0.4891  0.2563
   42MOL   C31820080   5.379   6.253   3.497 -0.1233 -0.2760 -0.4722
   42MOL   O31920081   5.311   6.366   3.548 -0.5543  0.0502  0.7065
   42MOL   C32020082   5.231   6.357   3.656 -0.0097 -0.1381 -0.2591
   42MOL   O32120083   5.212   6.257   3.720 -0.0611 -0.3954 -0.2008
   42MOL   C32220084   5.149   6.482   3.672 -1.0002 -0.2752 -0.6585
   42MOL   C32320085   5.100   6.528   3.537 -0.0362  0.2600 -0.7120
   42MOL   C32420086   5.173   6.654   3.496  0.0459 -0.4393 -0.0903
   42MOL   O32520087   5.269   6.645   3.419  0.5016  0.4143 -0.3228
   42MOL   H32620088   5.758   6.480   3.332 -0.4979  0.0833  0.1586
   42MOL   H32720089   5.652   6.397   3.213  0.4494  0.8176 -0.0551
   42MOL   H32820090   5.550   6.474   3.432 -2.2293 -1.1722  1.7984
   42MOL   H32920091   5.629   6.329   3.499 -1.9946  1.0526  0.7310
   42MOL   H33020092   5.509   6.186   3.344  1.4070 -0.0095  1.1808
   42MOL   H33120093   5.407   6.320   3.291 -1.3095 -1.1823  0.6275
   42MOL   H33220094   5.297   6.187   3.469 -0.0225 -0.3092 -0.6941
   42MOL   H33320095   5.434   6.207   3.579 -0.4800  0.6996  0.3276
   42MOL   H33420096   5.210   6.556   3.723  2.2493 -2.4217 -1.2980
   42MOL   H33520097   5.062   6.454   3.733 -1.7747  0.3311 -1.4710
   42MOL   H33620098   5.116   6.461   3.452 -0.0556  1.8311 -1.9978
   42MOL   H33720099   4.994   6.548   3.548  0.0013 -0.4231  1.0073
   42MOL   O33820100   5.119   6.764   3.549 -0.3483  0.0471 -0.0663
   42MOL   C33920101   5.185   6.888   3.527  0.4464 -0.0935  0.4752
   42MOL   C34020102   5.147   6.942   3.393 -0.1761 -0.2680  0.1640
   42MOL   C34120103   5.219   7.068   3.361  0.6713  0.7836  0.2490
   42MOL   C34220104   5.206   7.104   3.217 -0.0999 -0.2544  0.9675
   42MOL   O34320105   5.223   7.244   3.204  0.2331  0.0825  0.0817
   42MOL   C34420106   5.264   7.296   3.094  0.0734 -0.0190  0.1547
   42MOL   O34520107   5.283   7.232   2.992  0.2913 -0.2869 -0.0698
   42MOL   C34620108   5.263   7.448   3.101  0.0385 -0.5876  0.3860
   42MOL   C34720109   5.131   7.508   3.057  0.2805  0.3209  0.0161
   42MOL   C34820110   5.129   7.651   3.015  0.3449  0.5460  1.2518
   42MOL   O34920111   5.231   7.723   3.031  0.1710  0.6626  0.7382
   42MOL   H35020112   5.181   6.960   3.609 -1.1634  1.1483 -0.6773
   42MOL   H35120113   5.292   6.867   3.530 -0.0393 -2.9693 -0.9411
   42MOL   H35220114   5.039   6.954   3.380 -0.3131 -1.8354 -0.2855
   42MOL   H35320115   5.169   6.865   3.319 -1.6666 -0.3918 -0.1772
   42MOL   H35420116   5.322   7.069   3.398  1.0048  1.5880 -0.6530
   42MOL   H35520117   5.173   7.134   3.435  0.0033  0.6175 -0.0171
   42MOL   H35620118   5.278   7.046   3.159 -0.0060 -1.6118  2.3980
   42MOL   H35720119   5.101   7.084   3.196  0.1004 -0.4267  0.1071
   42MOL   H35820120   5.344   7.484   3.038 -2.3514  1.3391 -1.7307
   42MOL   H35920121   5.277   7.486   3.202 -1.2441 -0.3945  0.5053
   42MOL   H36020122   5.097   7.448   2.972 -0.6751  1.7691 -0.6380
   42MOL   H36120123   5.069   7.496   3.146 -0.8765  1.1620 -0.6671
   42MOL   O36220124   4.998   7.687   2.964 -0.6691  1.1078 -0.5043
   42MOL   C36320125   4.978   7.823   2.919 -0.4886  0.3784 -0.3255
   42MOL   C36420126   4.825   7.842   2.886 -0.1648 -0.0487 -0.1120
   42MOL   C36520127   4.793   0.064   2.765 -1.3840 -0.4376 -0.3035
   42MOL   C36620128   4.836   0.211   2.774 -0.6963  0.0050  1.2528
   42MOL   O36720129   4.752   0.283   2.858 -0.3832  0.5993 -0.2982
   42MOL   C36820130   4.785   0.309   2.990  0.6098 -0.2085 -0.4873
   42MOL   O36920131   4.889   0.286   3.044  0.0631 -0.0193 -0.2686
   42MOL   C37020132   4.670   0.377   3.062  0.0691 -0.5867 -0.1463
   42MOL   C37120133   4.549   0.289   3.079  0.9766 -0.1805  0.5080
   42MOL   C37220134   4.551   0.200   3.207 -0.4022 -0.7172  0.1520
   42MOL   O37320135   4.546   0.253   3.319 -0.0820  0.4407 -0.6694
   42MOL   H37420136   5.022   0.025   2.984  0.8365 -0.0156 -0.7442
   42MOL   H37520137   5.039   7.833   2.829 -2.5316 -1.7415 -2.0039
   42MOL   H37620138   4.773   7.873   2.977 -1.3242 -0.7912 -0.5073
   42MOL   H37720139   4.783   7.743   2.865 -0.7452  0.3762 -0.9753
   42MOL   H37820140   4.688   0.055   2.739 -1.9087  0.9777  1.1768
   42MOL   H37920141   4.854   0.016   2.689  0.6668 -1.7317  2.0829
   42MOL   H38020142   4.937   0.203   2.813 -0.6041  1.1781  1.2554
   42MOL   H38120143   4.829   0.247   2.672 -0.5775 -0.5833  1.0344
   42MOL   H38220144   4.642   0.458   2.995 -0.9992  0.0901  1.0956
   42MOL   H38320145   4.706   0.422   3.154 -0.3115  1.6465 -1.0667
   42MOL   H38420146   4.458   0.349   3.084 -0.2948 -2.0227  0.1015
   42MOL   H38520147   4.526   0.222   2.996 -3.3430  2.1008 -0.2978
   42MOL   O38620148   4.552   0.078   3.176  0.1950  0.8589  0.4681
   42MOL   C38720149   4.545   7.852   3.276  0.5401  0.0207 -0.2226
   42MOL   C38820150   4.642   7.733   3.252 -0.0492 -1.3216  0.1980
   42MOL   C38920151   4.580   7.620   3.169 -0.1436  0.0412  0.5944
   42MOL   C39020152   4.674   7.494   3.156 -0.1225 -0.9077  0.1235
   42MOL   O39120153   4.713   7.447   3.288 -0.5134 -0.0631  0.7508
   42MOL   C39220154   4.798   7.344   3.295 -0.1488  0.5799  1.0942
   42MOL   O39320155   4.819   7.261   3.207 -0.7625 -0.1832  0.0729
   42MOL   C39420156   4.851   7.317   3.435  0.4151  0.3030 -0.5530
   42MOL   C39520157   4.996   7.377   3.454 -0.1653  0.7483 -0.2076
   42MOL   C39620158   4.982   7.508   3.524 -0.3694  0.1202 -0.5952
   42MOL   O39720159   4.963   7.515   3.646 -0.0536  0.3235  0.3853
   42MOL   H39820160   4.562   0.019   3.375 -0.0019  0.0979 -0.1584
   42MOL   H39920161   4.441   7.819   3.283  0.1020  1.5219  0.7225
   42MOL   H40020162   4.685   7.684   3.339  0.0517 -2.9933 -0.7618
   42MOL   H40120163   4.726   7.763   3.190  1.4444 -0.4431  2.5863
   42MOL   H40220164   4.551   7.663   3.074 -1.7021 -0.2332  0.9286
   42MOL   H40320165   4.488   7.584   3.215  0.5493 -1.7531  0.6389
   42MOL   H40420166   4.619   7.417   3.101 -2.1219  1.0848 -0.7155
   42MOL   H40520167   4.764   7.527   3.105  0.4693 -0.3581  1.4869
   42MOL   H40620168   4.866   7.209   3.443  0.5246  0.4254  0.9955
   42MOL   H40720169   4.776   7.351   3.505  2.0985  2.6421  0.1578
   42MOL   H40820170   5.070   7.315   3.504  0.1419 -0.1607 -1.7512
   42MOL   H40920171   5.036   7.400   3.355 -2.0137 -1.0344 -1.4033
   42MOL   O41020172   4.990   7.610   3.442 -0.1536 -0.4747  0.0645
   42MOL   C41120173   5.001   7.738   3.506  0.5453  0.9139 -0.5931
   42MOL   C41220174   5.008   7.848   3.396 -0.3844  0.5819 -0.1823
   42MOL   C41320175   5.000   0.102   3.474 -0.3777  1.0251  0.0252
   42MOL   C41420176   4.992   0.227   3.385  0.1233 -0.0608  0.0172
   42MOL   O41520177   4.997   0.345   3.468 -0.0833  0.2135 -0.4602
   42MOL   C41620178   5.119   0.393   3.499 -0.2836 -0.4918  0.6551
   42MOL   O41720179   5.225   0.340   3.476 -0.0398 -0.0750  0.4747
   42MOL   C41820180   5.113   0.523   3.583 -0.9418 -0.5121  0.4022
   42MOL   C41920181   5.099   0.490   3.733 -0.0968 -0.6428  0.6169
   42MOL   C42020182   5.059   0.605   3.815  0.2675 -0.9081 -0.1567
   42MOL   O42120183   5.132   0.657   3.901  0.2778 -0.5336  0.4462
   42MOL   H42220184   4.909   7.766   3.557 -0.5059 -1.9965 -0.7994
   42MOL   H42320185   5.087   7.743   3.572 -0.1734 -0.4081  0.4706
   42MOL   H42420186   4.930   7.834   3.321  0.1339 -2.4777 -0.2118
   42MOL   H42520187   5.106   7.842   3.350 -0.0932 -2.6214  0.6997
   42MOL   H42620188   5.082   0.100   3.546  1.1978  0.5739 -1.7658
   42MOL   H42720189   4.913   0.110   3.540  0.0482 -1.5965  0.9530
   42MOL   H42820190   5.074   0.215   3.313  0.3633 -2.5245  0.6754
   42MOL   H42920191   4.895   0.211   3.337  0.3958 -2.4475  0.2370
   42MOL   H43020192   5.039   0.595   3.548  0.4141 -1.0452 -3.8397
   42MOL   H43120193   5.211   0.568   3.572 -1.4903  0.7872  0.6949
   42MOL   H43220194   5.017   0.420   3.747 -1.8815  1.0382 -1.0270
   42MOL   H43320195   5.182   0.431   3.773 -0.3414 -1.2969  0.1637
   42MOL   O43420196   4.930   0.636   3.788 -0.5094 -0.4007  0.0492
   42MOL   C43520197   4.869   0.742   3.851 -0.2101 -0.0352 -0.3314
   42MOL   C43620198   4.809   0.699   3.988 -0.5421 -0.1774 -0.2783
   42MOL   C43720199   4.774   0.820   4.076  0.0656  0.7220 -0.7334
   42MOL   C43820200   4.659   0.908   4.013 -0.3157  0.4778  0.1210
   42MOL   O43920201   4.539   0.843   4.011  0.5905  0.1931  0.3093
   42MOL   C44020202   4.462   0.837   4.120  0.0381  0.4688 -0.8053
   42MOL   O44120203   4.475   0.892   4.231  0.0257 -0.4215 -0.2276
   42MOL   C44220204   4.354   0.725   4.104 -0.1760 -0.1486 -0.6111
   42MOL   C44320205   4.417   0.601   4.034  0.7365  0.2811 -0.8438
   42MOL   C44420206   4.448   0.479   4.126  0.7348  0.3430  0.2754
   42MOL   O44520207   4.395   0.466   4.235  0.0628 -0.2550 -0.4890
   42MOL   H44620208   4.940   0.822   3.866  0.1357 -0.2828 -0.6338
   42MOL   H44720209   4.789   0.784   3.790 -2.1395 -1.5545  1.0683
   42MOL   H44820210   4.859   0.612   4.033  4.0172  3.3901  2.0975
   42MOL   H44920211   4.715   0.653   3.959  0.2018 -3.1105  1.6971
   42MOL   H45020212   4.867   0.876   4.084 -0.3311  1.2208  0.4396
   42MOL   H45120213   4.748   0.790   4.177  0.7254  0.8060 -0.5378
   42MOL   H45220214   4.652   1.004   4.063  0.1366 -0.4278  2.0033
   42MOL   H45320215   4.690   0.940   3.914  0.1865 -0.8335 -0.1593
   42MOL   H45420216   4.263   0.767   4.061  0.1103  1.3147  0.1878
   42MOL   H45520217   4.318   0.704   4.205  1.0003 -0.9815 -0.3591
   42MOL   H45620218   4.338   0.556   3.975  0.9207  1.1701 -1.7765
   42MOL   H45720219   4.506   0.625   3.976  2.1759 -1.4122  0.5769
   42MOL   O45820220   4.539   0.394   4.060  0.1245  0.4765 -0.5563
   42MOL   C45920221   4.593   0.289   4.127 -0.6227  0.0195 -0.4703
   42MOL   C46020222   4.536   0.155   4.089  0.5270  0.6325 -0.4383
   42MOL   C46120223   4.391   0.129   4.128  0.6673 -0.3734 -0.5412
   42MOL   C46220224   4.349   7.862   4.090 -0.3042 -0.0677  0.2678
   42MOL   O46320225   4.434   7.769   4.139 -0.2816  0.2169  0.3879
   42MOL   C46420226   4.423   7.642   4.095  0.1115 -0.4066  0.0135
   42MOL   O46520227   4.325   7.599   4.034  0.2046 -0.0300  0.4556
   42MOL   C46620228   4.545   7.559   4.133 -0.3761  0.2787 -0.0876
   42MOL   C46720229   4.505   7.449   4.235 -0.5019  0.4094 -0.1170
   42MOL   C46820230   4.599   7.327   4.234 -0.2513 -0.1754  1.0295
   42MOL   O46920231   4.718   7.335   4.268  0.1601 -0.1680 -0.3569
   42MOL   H47020232   4.701   0.288   4.108  0.1021  1.5467  3.0848
   42MOL   H47120233   4.585   0.300   4.235 -1.5831  0.1096 -0.5481
   42MOL   H47220234   4.599   0.075   4.129 -1.5461  0.7014  3.2348
   42MOL   H47320235   4.543   0.150   3.981  1.5715  0.6984 -0.3729
   42MOL   H47420236   4.333   0.207   4.079 -0.3552 -1.1627 -0.6018
   42MOL   H47520237   4.367   0.154   4.231  0.2149 -0.3293 -0.6581
   42MOL   H47620238   4.243   7.840   4.096 -0.7627  1.8205 -0.4933
   42MOL   H47720239   4.359   7.858   3.981 -1.2636  0.3920  0.1600
   42MOL   H47820240   4.608   7.630   4.187 -2.2500  1.0950  1.0803
   42MOL   H47920241   4.589   7.520   4.041 -1.7923 -1.2312 -0.1602
   42MOL   H48020242   4.507   7.490   4.335 -0.7629 -0.6757  0.3465
   42MOL   H48120243   4.406   7.411   4.209 -0.5929  0.8764 -0.4369
   42MOL   H48220244   4.540   7.243   4.196 -0.5464  0.9864 -1.1579
   43MOL     O120245   0.556   0.092   7.132 -0.1436  0.1845 -0.5839
   43MOL     C220246   0.557   7.847   7.208 -0.5689  0.0554 -0.3211
   43MOL     C320247   0.618   7.736   7.125 -0.1064  0.5177  0.6905
   43MOL     C420248   0.547   7.668   7.004 -0.4419 -0.8005 -0.5313
   43MOL     C520249   0.420   7.579   7.033  0.4643 -0.5256 -1.0443
   43MOL     O620250   0.396   7.513   6.914 -0.1225  0.0671 -0.6919
   43MOL     C720251   0.322   7.572   6.815  0.5049  0.1198 -0.6279
   43MOL     O820252   0.282   7.689   6.815 -0.1435  0.5677 -0.3559
   43MOL     C920253   0.311   7.483   6.693 -0.2133 -0.6001 -0.3357
   43MOL    C1020254   0.243   7.355   6.716 -0.0473  0.3482  0.4177
   43MOL    C1120255   0.332   7.234   6.735 -0.1133  0.7916 -0.5530
   43MOL    O1220256   0.328   7.162   6.841  0.1249 -0.3293  0.1414
   43MOL    H1320257   0.630   7.868   7.286 -1.6001  0.5116  0.5283
   43MOL    H1420258   0.460   7.824   7.253  0.4672 -0.5349  1.6664
   43MOL    H1520259   0.652   7.654   7.188 -3.0590  0.0085  1.7022
   43MOL    H1620260   0.712   7.776   7.086 -0.2505  0.9552  0.7970
   43MOL    H1720261   0.623   7.612   6.949 -0.1555 -1.0127  0.0752
   43MOL    H1820262   0.518   7.751   6.940  1.0483 -0.2331 -0.4983
   43MOL    H1920263   0.443   7.500   7.103 -0.6862 -1.7584 -2.0334
   43MOL    H2020264   0.345   7.647   7.073  1.6838  0.7274 -0.8433
   43MOL    H2120265   0.412   7.466   6.658  0.1668  3.1891 -1.3662
   43MOL    H2220266   0.260   7.535   6.612 -0.9676  0.0603  0.5466
   43MOL    H2320267   0.181   7.369   6.805 -0.2402 -1.6607  0.6362
   43MOL    H2420268   0.176   7.330   6.633 -0.1347  0.8467  0.3395
   43MOL    H2520269   0.482   0.094   7.074 -0.2726 -1.1028 -0.4801
   43MOL    O2620270   0.422   7.223   6.628  0.2326  0.0136 -0.6592
   43MOL    C2720271   0.525   7.126   6.646 -1.4770 -0.2324 -0.4063
   43MOL    C2820272   0.572   7.082   6.501 -0.1349 -0.2650 -0.2045
   43MOL    C2920273   0.476   6.973   6.435  0.1360 -0.5714 -0.2266
   43MOL    C3020274   0.494   6.949   6.280 -0.0171 -0.4724 -0.6300
   43MOL    O3120275   0.408   6.850   6.222  0.3856  0.0365  0.3648
   43MOL    C3220276   0.446   6.785   6.116 -0.4697 -0.0546  0.3780
   43MOL    O3320277   0.556   6.790   6.065 -0.5970  0.1530 -0.8001
   43MOL    C3420278   0.336   6.692   6.062 -0.3337 -0.1415  0.3915
   43MOL    C3520279   0.355   6.541   6.108 -0.0020  0.0800 -0.5150
   43MOL    C3620280   0.226   6.470   6.154 -0.8104  0.8392 -0.2078
   43MOL    O3720281   0.230   6.388   6.248 -0.2039 -0.0414 -0.2876
   43MOL    H3820282   0.610   7.168   6.700 -2.1355  0.0009  0.4655
   43MOL    H3920283   0.490   7.038   6.700  0.6721 -0.9810 -0.1584
   43MOL    H4020284   0.670   7.034   6.496 -0.5337 -1.0535 -0.7335
   43MOL    H4120285   0.571   7.176   6.446 -0.8823  2.0073  3.5227
   43MOL    H4220286   0.379   7.022   6.452 -0.4524 -1.6429 -0.4371
   43MOL    H4320287   0.478   6.876   6.485  0.2989  0.0832  1.0856
   43MOL    H4420288   0.485   7.044   6.227  0.8288  1.9065  3.2861
   43MOL    H4520289   0.598   6.920   6.273  0.2330 -0.1804  1.6105
   43MOL    H4620290   0.349   6.703   5.955  1.1835  1.4998  0.7184
   43MOL    H4720291   0.238   6.737   6.077 -0.4597 -0.1369 -0.4348
   43MOL    H4820292   0.405   6.489   6.026  0.3386 -1.3823  0.6030
   43MOL    H4920293   0.434   6.543   6.184 -0.9615  0.4837  0.4801
   43MOL    O5020294   0.126   6.493   6.071 -0.4477 -0.4553  0.5688
   43MOL    C5120295   7.871   6.440   6.100  0.6568 -0.2438 -0.2012
   43MOL    C5220296   7.822   6.334   6.001  0.0159  0.3628  0.0682
   43MOL    C5320297   0.034   6.202   6.001 -0.2757 -0.2498 -0.4260
   43MOL    C5420298   7.869   6.092   5.919 -0.3825  0.3644  0.1944
   43MOL    O5520299   0.020   6.122   5.779 -0.0617 -0.1737  0.5292
   43MOL    C5620300   7.866   6.021   5.689  0.2126  0.1116 -0.9483
   43MOL    O5720301   7.848   5.900   5.708 -0.0952 -0.1525 -0.0148
   43MOL    C5820302   7.865   6.079   5.546  0.3239 -0.8790  0.5789
   43MOL    C5920303   7.757   6.181   5.513 -0.4892 -0.3676 -0.5941
   43MOL    C6020304   7.654   6.151   5.404 -0.5285 -0.0577  0.0752
   43MOL    O6120305   7.681   6.113   5.293 -1.0438 -0.5838 -0.3070
   43MOL    H6220306   7.861   6.398   6.200  2.7215  0.8117  0.4760
   43MOL    H6320307   7.802   6.524   6.108 -1.4985 -2.1318  1.9300
   43MOL    H6420308   7.816   6.379   5.902  2.5139 -0.4071 -0.4657
   43MOL    H6520309   7.721   6.312   6.035 -0.5375  2.6449 -0.0014
   43MOL    H6620310   0.027   6.152   6.097 -3.8096  2.4267  0.8370
   43MOL    H6720311   0.141   6.223   5.996 -0.5016  2.0288  2.9530
   43MOL    H6820312   0.050   6.002   5.941 -1.3444  0.0346  1.3347
   43MOL    H6920313   7.765   6.068   5.942 -0.1865 -1.7110 -0.9842
   43MOL    H7020314   7.863   5.999   5.471 -1.2512  1.7867 -2.3563
   43MOL    H7120315   0.089   6.119   5.525 -2.0451  4.2506 -1.5053
   43MOL    H7220316   7.708   6.209   5.606 -1.2856  1.5442 -1.5520
   43MOL    H7320317   7.807   6.267   5.469 -0.0549 -0.4626 -0.2857
   43MOL    O7420318   7.539   6.184   5.452  0.2857  0.1619  0.1626
   43MOL    C7520319   7.423   6.161   5.373 -0.3377  0.5716  0.5408
   43MOL    C7620320   7.402   6.274   5.270 -0.3237  0.4034 -0.6892
   43MOL    C7720321   7.417   6.420   5.327  0.3584  0.3461  0.3841
   43MOL    C7820322   7.335   6.436   5.456  0.3040  0.7452  0.2621
   43MOL    O7920323   7.201   6.396   5.422 -0.1031 -0.6678 -0.0081
   43MOL    C8020324   7.104   6.413   5.519  0.1493 -0.3068 -0.4038
   43MOL    O8120325   7.119   6.457   5.630 -0.3633 -0.3298 -0.3245
   43MOL    C8220326   6.965   6.359   5.479 -0.2753 -0.2144  0.1413
   43MOL    C8320327   6.967   6.207   5.442 -1.0362  0.7892 -0.2550
   43MOL    C8420328   6.986   6.189   5.288  0.8157  0.1006 -0.6273
   43MOL    O8520329   6.982   6.274   5.204  0.0512 -0.2391 -0.1421
   43MOL    H8620330   7.431   6.064   5.324  1.4991  0.6680  0.6122
   43MOL    H8720331   7.344   6.162   5.448 -0.3010  1.6944  0.5696
   43MOL    H8820332   7.305   6.251   5.227  1.4843 -2.5819 -3.3960
   43MOL    H8920333   7.473   6.257   5.189 -1.1281  1.3862 -1.6229
   43MOL    H9020334   7.378   6.499   5.263  0.8971 -0.5528 -1.0876
   43MOL    H9120335   7.521   6.452   5.333  0.7919 -1.1767  1.3070
   43MOL    H9220336   7.372   6.367   5.531 -0.6731 -1.0026 -0.8129
   43MOL    H9320337   7.345   6.541   5.483  3.1092  0.4018  0.6748
   43MOL    H9420338   6.926   6.425   5.401 -0.8066  1.4055  1.7420
   43MOL    H9520339   6.901   6.373   5.566  0.2420  0.2672  0.4506
   43MOL    H9620340   7.044   6.164   5.507 -3.2802  0.7243  2.4271
   43MOL    H9720341   6.873   6.164   5.477 -1.1729 -1.7021 -3.4679
   43MOL    O9820342   6.995   6.055   5.260  0.5521 -0.4177 -0.1778
   43MOL    C9920343   7.012   6.027   5.129  0.1734 -0.1445  0.5269
   43MOL   C10020344   7.025   5.879   5.114 -0.3165 -0.2452 -0.3402
   43MOL   C10120345   7.157   5.822   5.168 -0.1813  0.0271  0.8593
   43MOL   C10220346   7.155   5.669   5.187  0.4062  0.0302 -0.2248
   43MOL   O10320347   7.042   5.631   5.259 -0.1543 -0.3520  0.7357
   43MOL   C10420348   7.035   5.522   5.331  0.1905  0.2476  0.0217
   43MOL   O10520349   7.127   5.444   5.350  0.1758 -0.4013  0.0931
   43MOL   C10620350   6.890   5.497   5.383  0.7907 -0.4804  0.0506
   43MOL   C10720351   6.864   5.344   5.421  0.3042 -0.1979 -0.3990
   43MOL   C10820352   6.805   5.253   5.309 -0.5167 -0.6426 -0.1857
   43MOL   O10920353   6.725   5.296   5.225  0.4920 -0.1432  0.0853
   43MOL   H11020354   6.928   6.066   5.072  0.8305 -0.8856 -0.9763
   43MOL   H11120355   7.099   6.081   5.090  2.8884 -3.1680  2.1690
   43MOL   H11220356   7.015   5.858   5.007 -2.1434  0.2366 -0.2719
   43MOL   H11320357   6.937   5.840   5.164  0.0980  1.0811  1.4637
   43MOL   H11420358   7.186   5.877   5.258 -2.8599  0.4282  1.5244
   43MOL   H11520359   7.227   5.843   5.087 -1.4023  1.3320  0.1293
   43MOL   H11620360   7.149   5.640   5.082  2.7644  1.2289 -0.7210
   43MOL   H11720361   7.245   5.619   5.221 -0.1521 -1.0931 -0.3979
   43MOL   H11820362   6.815   5.542   5.318  3.4413  2.1120 -1.3339
   43MOL   H11920363   6.882   5.556   5.474 -1.5074 -2.5314  1.2379
   43MOL   H12020364   6.954   5.295   5.458 -0.1292 -0.6079  0.1225
   43MOL   H12120365   6.798   5.340   5.508  2.2209 -3.1994  0.9979
   43MOL   O12220366   6.824   5.126   5.332 -0.1337  0.3540 -0.0325
   43MOL   C12320367   6.764   5.028   5.242 -0.4788 -0.1956  0.5978
   43MOL   C12420368   6.832   4.887   5.258 -0.0925  0.3613  0.7734
   43MOL   C12520369   6.792   4.808   5.382 -0.0764 -0.0112 -0.5820
   43MOL   C12620370   6.891   4.688   5.393 -0.0090  0.4287  0.4971
   43MOL   O12720371   6.902   4.617   5.273  0.3194  0.0225  0.1316
   43MOL   C12820372   6.988   4.516   5.259  0.0659  0.4710  0.0615
   43MOL   O12920373   7.056   4.468   5.353  0.2636  0.1349 -1.2499
   43MOL   C13020374   6.991   4.462   5.120 -0.0184  0.0944 -0.1133
   43MOL   C13120375   7.070   4.332   5.113 -0.3355  0.1343  0.3073
   43MOL   C13220376   7.008   4.218   5.026 -0.3473 -0.0569  0.1545
   43MOL   O13320377   7.024   4.098   5.058 -0.4480 -0.0783  0.2413
   43MOL   H13420378   6.658   5.011   5.256 -0.3639 -1.1455  0.3383
   43MOL   H13520379   6.765   5.060   5.137  2.5610  1.4001  1.0659
   43MOL   H13620380   6.940   4.899   5.269 -0.0141  0.4829 -0.1038
   43MOL   H13720381   6.807   4.834   5.166  1.8069 -0.0832  0.4953
   43MOL   H13820382   6.688   4.776   5.379 -0.1547  0.1207  0.6665
   43MOL   H13920383   6.811   4.861   5.475  0.6732  1.1954 -1.4114
   43MOL   H14020384   6.985   4.732   5.427 -1.0260  2.7307  0.4384
   43MOL   H14120385   6.852   4.623   5.471 -2.2552  0.9970 -0.1221
   43MOL   H14220386   7.026   4.541   5.053 -0.7945 -1.4658 -2.4447
   43MOL   H14320387   6.888   4.452   5.086 -0.6741  0.5007  1.7314
   43MOL   H14420388   7.177   4.338   5.088 -0.4867  0.6058 -0.2374
   43MOL   H14520389   7.068   4.277   5.207 -0.5453  3.5209  2.3760
   43MOL   O14620390   6.961   4.267   4.907 -0.1210  0.5322  0.3049
   43MOL   C14720391   6.936   4.167   4.809  0.8919 -0.5218  0.3744
   43MOL   C14820392   6.814   4.191   4.720  0.1079 -0.7327 -0.3359
   43MOL   C14920393   6.682   4.169   4.801  0.3088 -0.1220  0.1270
   43MOL   C15020394   6.562   4.188   4.703  0.3789  0.1769 -0.3977
   43MOL   O15120395   6.450   4.169   4.782  0.1227 -0.1661  0.2905
   43MOL   C15220396   6.329   4.145   4.712  0.4661  0.1397 -0.3633
   43MOL   O15320397   6.318   4.098   4.594  0.1288 -0.3317  0.5490
   43MOL   C15420398   6.214   4.188   4.797  0.5660 -0.6505 -0.3548
   43MOL   C15520399   6.077   4.215   4.719 -0.0924 -0.0301 -0.5610
   43MOL   C15620400   5.978   4.102   4.737 -0.6526 -0.0202 -0.8285
   43MOL   O15720401   5.980   3.996   4.680 -0.0597  0.0041 -0.1407
   43MOL   H15820402   7.027   4.157   4.751  0.5362  1.0056 -0.4839
   43MOL   H15920403   6.903   4.074   4.855 -2.2607  1.1735  1.7172
   43MOL   H16020404   6.812   4.117   4.640  1.7937 -0.7323 -0.3948
   43MOL   H16120405   6.818   4.285   4.666 -3.4852  0.7799  1.8740
   43MOL   H16220406   6.675   4.243   4.881 -0.8511 -0.6591  0.5413
   43MOL   H16320407   6.677   4.074   4.854  1.4326  0.3410  1.0809
   43MOL   H16420408   6.556   4.284   4.653  0.3898  0.7241  0.6538
   43MOL   H16520409   6.567   4.111   4.626 -0.9956 -1.9573  1.5697
   43MOL   H16620410   6.243   4.283   4.842  0.3495 -0.2568 -1.0307
   43MOL   H16720411   6.200   4.112   4.874 -2.9146  1.1981  0.9528
   43MOL   H16820412   6.028   4.303   4.761 -0.5200 -0.9615  0.9406
   43MOL   H16920413   6.096   4.221   4.612 -1.6444 -1.5726 -0.9386
   43MOL   O17020414   5.880   4.135   4.835 -0.1933 -0.5542  0.2466
   43MOL   C17120415   5.802   4.039   4.897  0.2103 -0.7385  0.2582
   43MOL   C17220416   5.834   4.045   5.049 -0.2224 -0.4690 -0.3975
   43MOL   C17320417   5.980   4.037   5.106 -0.9182  0.8943  0.2582
   43MOL   C17420418   6.047   4.173   5.104 -0.1237  0.2208 -0.0701
   43MOL   O17520419   6.166   4.167   5.179 -0.2302  0.4321 -0.1425
   43MOL   C17620420   6.275   4.237   5.155 -0.1802  0.5138 -0.4397
   43MOL   O17720421   6.272   4.329   5.070  0.2948 -0.0109 -0.4390
   43MOL   C17820422   6.398   4.211   5.231 -0.0926 -0.1917 -0.7752
   43MOL   C17920423   6.509   4.145   5.154  0.1753  0.2425 -0.2036
   43MOL   C18020424   6.638   4.132   5.242  0.3234  0.2907 -0.6062
   43MOL   O18120425   6.735   4.198   5.209 -0.4182 -0.4680  0.5608
   43MOL   H18220426   5.698   4.069   4.881  1.3695  2.5064 -1.4475
   43MOL   H18320427   5.815   3.944   4.845 -3.2202  0.3592 -2.8740
   43MOL   H18420428   5.774   3.968   5.099  1.1409 -1.6091 -0.4917
   43MOL   H18520429   5.805   4.138   5.098 -1.7408 -1.0365 -0.1679
   43MOL   H18620430   6.032   3.951   5.063 -1.5804  0.4365  0.3578
   43MOL   H18720431   5.977   4.015   5.213  0.7256 -0.1369  0.1192
   43MOL   H18820432   6.069   4.195   5.000  1.4508 -0.9006 -0.0103
   43MOL   H18920433   5.983   4.256   5.132  0.0399  0.5431 -0.6427
   43MOL   H19020434   6.374   4.155   5.321 -0.8234 -1.7814 -1.9348
   43MOL   H19120435   6.439   4.304   5.269  0.5141  0.0040 -1.9080
   43MOL   H19220436   6.499   4.047   5.107 -0.9334  2.1818 -4.2708
   43MOL   H19320437   6.528   4.218   5.075 -0.2322  2.4107  1.6582
   43MOL   O19420438   6.618   4.065   5.357  0.5001  0.0425  0.2766
   43MOL   C19520439   6.710   4.088   5.467  0.2701 -0.1725 -0.6265
   43MOL   C19620440   6.681   4.209   5.562 -0.1037  0.0461 -0.2506
   43MOL   C19720441   6.699   4.355   5.510 -0.4411  0.7798  0.0459
   43MOL   C19820442   6.672   4.455   5.620  0.4929 -0.2604  0.6619
   43MOL   O19920443   6.754   4.435   5.736 -0.8528  0.1135 -0.2432
   43MOL   C20020444   6.847   4.521   5.767  0.0965  0.0565 -0.1496
   43MOL   O20120445   6.862   4.628   5.708 -0.0900  0.0454 -0.0440
   43MOL   C20220446   6.931   4.484   5.887 -0.1777  0.3379  0.7214
   43MOL   C20320447   6.891   4.568   6.010 -0.1014 -0.2559 -0.5181
   43MOL   C20420448   6.743   4.563   6.050  0.5149 -0.3413  0.0921
   43MOL   O20520449   6.653   4.610   5.983  0.2240  0.0886  0.2453
   43MOL   H20620450   6.716   4.002   5.534  1.5576  2.2411  2.5092
   43MOL   H20720451   6.806   4.099   5.416  0.4939 -0.9119 -0.3573
   43MOL   H20820452   6.747   4.193   5.647 -0.6048  2.5002  0.6334
   43MOL   H20920453   6.588   4.204   5.618 -0.0070 -1.5477 -0.2018
   43MOL   H21020454   6.640   4.373   5.420  0.1877 -0.5626 -0.6449
   43MOL   H21120455   6.803   4.374   5.486 -0.3591  0.5002  0.1840
   43MOL   H21220456   6.678   4.560   5.591  1.1637 -0.1407  1.2258
   43MOL   H21320457   6.569   4.454   5.657  0.7787  2.0594  1.6231
   43MOL   H21420458   7.033   4.516   5.867 -0.6844  1.1740 -0.6923
   43MOL   H21520459   6.929   4.378   5.909 -1.1551  0.0700 -0.5615
   43MOL   H21620460   6.955   4.563   6.097 -1.9913 -1.5036  0.8480
   43MOL   H21720461   6.906   4.671   5.977 -0.4524  0.1300  0.4934
   43MOL   O21820462   6.728   4.510   6.170  0.8217  0.4352  0.2545
   43MOL   C21920463   6.602   4.514   6.238 -0.0167 -0.3782 -0.6766
   43MOL   C22020464   6.616   4.474   6.385  0.0005 -0.3276  0.1058
   43MOL   C22120465   6.483   4.441   6.451  0.8621 -0.7827 -0.4185
   43MOL   C22220466   6.487   4.434   6.607  0.0038 -0.4525 -0.0846
   43MOL   O22320467   6.582   4.334   6.641  0.3001  0.7629  0.2377
   43MOL   C22420468   6.558   4.254   6.749 -0.5899  0.6109  0.0187
   43MOL   O22520469   6.454   4.258   6.811  0.7397 -0.4747 -0.0992
   43MOL   C22620470   6.665   4.152   6.780  0.1333 -0.5521 -0.0254
   43MOL   C22720471   6.631   4.018   6.709 -0.9980 -0.1128 -0.5483
   43MOL   C22820472   6.643   4.020   6.559  0.3055 -0.3512  0.3540
   43MOL   O22920473   6.570   4.080   6.484  0.2048  0.2203  0.1684
   43MOL   H23020474   6.579   4.620   6.229  2.7005  0.3498  0.4904
   43MOL   H23120475   6.531   4.452   6.182 -0.2704 -2.0001  1.4007
   43MOL   H23220476   6.664   4.560   6.432  1.4450 -1.2807  0.4235
   43MOL   H23320477   6.685   4.390   6.395 -2.3687 -2.1394  1.7675
   43MOL   H23420478   6.454   4.341   6.420  0.2483 -0.5976 -0.4591
   43MOL   H23520479   6.401   4.507   6.419  0.2226 -1.9054 -1.1288
   43MOL   H23620480   6.512   4.523   6.665 -0.1334 -1.1976  1.1366
   43MOL   H23720481   6.389   4.421   6.653 -0.5646 -0.7367 -1.3444
   43MOL   H23820482   6.681   4.150   6.888 -3.3445 -0.0351  0.5694
   43MOL   H23920483   6.756   4.182   6.728  0.7721 -2.4353 -0.0342
   43MOL   H24020484   6.700   3.945   6.752  0.7364  0.8092 -1.7229
   43MOL   H24120485   6.527   3.997   6.735 -0.1689 -2.1944  1.3332
   43MOL   O24220486   6.749   3.950   6.519 -0.6940  0.5718  0.3821
   43MOL   C24320487   6.781   3.951   6.382  0.0146  0.0113  0.3326
   43MOL   C24420488   6.874   3.832   6.351 -0.5587 -0.3013  0.3102
   43MOL   C24520489   6.915   3.829   6.202  0.2753 -0.0381  0.0666
   43MOL   C24620490   7.007   3.709   6.172  0.5192 -0.2391 -0.1396
   43MOL   O24720491   7.137   3.725   6.232  0.4487  0.2754  0.3517
   43MOL   C24820492   7.233   3.651   6.178 -0.4993  0.5148  0.4869
   43MOL   O24920493   7.217   3.553   6.107  0.2089  0.3366 -0.0191
   43MOL   C25020494   7.374   3.689   6.226  0.5804 -0.1269  0.1417
   43MOL   C25120495   7.489   3.621   6.150 -0.0627  0.1582 -0.6460
   43MOL   C25220496   7.611   3.576   6.239 -0.2166 -0.3302  0.4138
   43MOL   O25320497   7.614   3.590   6.363 -0.0858  0.4287 -0.2496
   43MOL   H25420498   6.694   3.956   6.316 -0.8300 -0.7369  1.3910
   43MOL   H25520499   6.853   4.030   6.361 -1.1312  1.0650  0.2903
   43MOL   H25620500   6.839   3.732   6.376 -0.7542 -0.2562  0.2185
   43MOL   H25720501   6.959   3.848   6.417 -0.8001 -0.9405  0.7803
   43MOL   H25820502   6.968   3.918   6.167 -0.6435  1.2005  1.7218
   43MOL   H25920503   6.831   3.810   6.135 -0.9906 -0.0172  1.6007
   43MOL   H26020504   6.966   3.611   6.195 -1.1384  0.3666 -0.4617
   43MOL   H26120505   7.021   3.713   6.064 -3.4784  0.4923 -0.6991
   43MOL   H26220506   7.393   3.659   6.329  0.9164 -2.9898 -0.6880
   43MOL   H26320507   7.379   3.796   6.206  2.1725  0.3729  2.9762
   43MOL   H26420508   7.457   3.524   6.111  0.7723 -0.3347 -0.1435
   43MOL   H26520509   7.520   3.682   6.066  2.3335 -0.0897  0.0007
   43MOL   O26620510   7.705   3.527   6.158  0.0923 -0.0264 -0.0365
   43MOL   C26720511   7.823   3.476   6.211  0.1483  0.0234 -0.4475
   43MOL   C26820512   0.053   3.456   6.104 -0.2027 -0.0885  0.1614
   43MOL   C26920513   0.025   3.363   5.984  0.6431 -0.0678 -0.8080
   43MOL   C27020514   7.860   3.214   6.018  0.2798 -0.0381 -0.8936
   43MOL   O27120515   0.092   3.146   6.067  0.0062  0.6470  0.3623
   43MOL   C27220516   0.061   3.049   6.155  0.1575  0.0979 -0.1768
   43MOL   O27320517   7.820   3.021   6.192 -0.0944 -0.7503 -0.0324
   43MOL   C27420518   0.188   2.986   6.215  0.3605 -0.3133 -0.4073
   43MOL   C27520519   0.150   2.875   6.320 -0.1058 -0.2369 -0.1248
   43MOL   C27620520   0.257   2.767   6.313 -0.4675 -0.1750  0.4087
   43MOL   O27720521   0.350   2.760   6.228  0.2569 -0.4167 -0.0753
   43MOL   H27820522   7.855   3.543   6.291 -1.5549 -1.5737  1.6695
   43MOL   H27920523   7.798   3.379   6.256 -0.8516  0.5345  0.1085
   43MOL   H28020524   0.140   3.418   6.158 -0.2108 -2.1702 -1.2076
   43MOL   H28120525   0.079   3.552   6.060 -0.5576 -0.1545 -0.1947
   43MOL   H28220526   0.109   3.360   5.915 -0.4389  1.3579 -2.1984
   43MOL   H28320527   7.816   3.406   5.930  0.1223 -1.2105 -0.9311
   43MOL   H28420528   7.778   3.228   6.088 -0.8299 -0.2129 -2.1439
   43MOL   H28520529   7.821   3.162   5.931 -0.4760  2.4820 -2.1098
   43MOL   H28620530   0.243   3.052   6.282  1.8828 -1.0785 -0.8872
   43MOL   H28720531   0.256   2.947   6.139  0.5064 -5.0050  1.9427
   43MOL   H28820532   0.159   2.927   6.415 -0.5754 -2.3701  1.1222
   43MOL   H28920533   0.050   2.833   6.313  1.1110 -3.5006  1.0316
   43MOL   O29020534   0.235   2.681   6.406 -0.0632 -0.0365 -0.1276
   43MOL   C29120535   0.299   2.551   6.394  0.2287 -0.0927  0.9610
   43MOL   C29220536   0.232   2.445   6.480  0.1042  0.6834 -0.1586
   43MOL   C29320537   0.275   2.459   6.625 -0.1889  0.0445 -0.1527
   43MOL   C29420538   0.203   2.357   6.722  0.2691  0.0864 -1.3626
   43MOL   O29520539   0.250   2.366   6.852 -0.3651  0.1441  0.1652
   43MOL   C29620540   0.175   2.340   6.961  0.8717  0.2124  0.7477
   43MOL   O29720541   0.063   2.299   6.962  0.0507  0.0415  0.1876
   43MOL   C29820542   0.254   2.373   7.091 -0.1775 -0.8005 -0.1912
   43MOL   C29920543   0.243   2.258   7.194  0.0347  0.4639 -0.2373
   43MOL   C30020544   0.199   2.312   7.330 -0.7169 -0.0573  0.2852
   43MOL   O30120545   0.279   2.367   7.407  0.5046  0.0449 -0.0189
   43MOL   H30220546   0.285   2.517   6.292  0.4949  0.2068  0.8224
   43MOL   H30320547   0.408   2.559   6.397  0.3831 -1.6499 -0.2872
   43MOL   H30420548   0.253   2.343   6.447  1.9165  1.0638 -0.2181
   43MOL   H30520549   0.123   2.447   6.480  0.0520 -1.1441  1.0661
   43MOL   H30620550   0.253   2.561   6.656 -2.0816 -0.1897 -0.6335
   43MOL   H30720551   0.382   2.440   6.627 -0.0489  0.8110 -0.1377
   43MOL   H30820552   0.095   2.370   6.721  0.4153  1.4000 -1.3202
   43MOL   H30920553   0.230   2.256   6.690 -1.7706 -0.4454 -1.4459
   43MOL   H31020554   0.213   2.468   7.127  1.7137 -0.5392  1.3897
   43MOL   H31120555   0.359   2.388   7.066 -0.2086 -0.2218  0.0109
   43MOL   H31220556   0.170   2.191   7.149 -0.3520  0.1759  0.7904
   43MOL   H31320557   0.340   2.212   7.212 -0.1522  0.1077 -0.1463
   43MOL   O31420558   0.066   2.301   7.351  0.0446 -0.0866 -0.4722
   43MOL   C31520559   0.005   2.382   7.448  0.6474  0.3324 -0.1272
   43MOL   C31620560   7.832   2.291   7.563 -0.0008 -0.2844 -0.5002
   43MOL   C31720561   7.722   2.343   7.657  0.4133 -1.1228 -0.0852
   43MOL   C31820562   7.696   2.258   7.784 -0.1325 -0.1889  0.6140
   43MOL   O31920563   7.653   2.342   0.016 -0.1838 -0.0637 -0.2015
   43MOL   C32020564   7.520   2.353   0.038 -0.6615 -0.0608 -0.1661
   43MOL   O32120565   7.430   2.320   7.836 -0.1841  0.0355 -0.3690
   43MOL   C32220566   7.498   2.425   0.169  0.5291  0.2701 -0.6738
   43MOL   C32320567   7.347   2.439   0.199 -0.1801  0.0081  0.3708
   43MOL   C32420568   7.285   2.569   0.152  0.3819  0.2477 -0.2209
   43MOL   O32520569   7.232   2.652   0.229  0.5529 -0.0037 -0.0646
   43MOL   H32620570   0.066   2.469   7.473  1.8088 -0.5563  0.1633
   43MOL   H32720571   7.793   2.425   7.398  2.0496  2.1125 -1.1140
   43MOL   H32820572   0.047   2.266   7.620  0.2190 -0.0010 -0.7235
   43MOL   H32920573   7.795   2.198   7.520  1.1699 -1.5496  1.1366
   43MOL   H33020574   7.627   2.353   7.605  0.0738  2.0701  1.0681
   43MOL   H33120575   7.738   2.449   7.677  1.1658 -1.0988 -0.8089
   43MOL   H33220576   7.636   2.168   7.775 -0.5879 -0.0282  1.9543
   43MOL   H33320577   7.791   2.222   7.822  0.8619  1.5508 -0.1595
   43MOL   H33420578   7.537   2.526   0.159  2.3941 -0.3521  0.0787
   43MOL   H33520579   7.554   2.370   0.244 -3.8648 -1.9665  1.1884
   43MOL   H33620580   7.288   2.355   0.165 -2.5110  1.1606  1.4550
   43MOL   H33720581   7.339   2.437   0.308 -0.9815  2.7015  0.3926
   43MOL   O33820582   7.288   2.582   0.020 -0.3146  0.2727 -0.6260
   43MOL   C33920583   7.239   2.698   7.830 -0.0973 -0.7408 -0.3965
   43MOL   C34020584   7.250   2.682   7.680  0.1394 -0.0399 -0.0714
   43MOL   C34120585   7.397   2.672   7.630  0.9712 -0.0534 -0.5223
   43MOL   C34220586   7.408   2.603   7.488  0.3823  0.4775  0.0332
   43MOL   O34320587   7.410   2.459   7.504 -0.1626  0.2068 -0.3861
   43MOL   C34420588   7.319   2.376   7.431  0.9570 -0.3997 -0.1755
   43MOL   O34520589   7.226   2.416   7.355  0.3391  0.4069 -0.3804
   43MOL   C34620590   7.347   2.233   7.470 -0.1078  0.2137  0.3869
   43MOL   C34720591   7.370   2.154   7.346 -0.2798 -0.6550  0.2692
   43MOL   C34820592   7.264   2.050   7.303  0.2217 -0.0165  0.2074
   43MOL   O34920593   7.206   2.066   7.198  1.0555  0.0905  0.0759
   43MOL   H35020594   7.138   2.726   7.858  0.6837 -0.1596  1.9528
   43MOL   H35120595   7.299   2.783   7.862  0.8490 -0.9789 -1.4767
   43MOL   H35220596   7.203   2.765   7.627 -1.2475 -0.5929  0.2495
   43MOL   H35320597   7.196   2.591   7.654  0.5619 -0.4204  0.3591
   43MOL   H35420598   7.461   2.618   7.700 -0.4533 -0.5080  0.4531
   43MOL   H35520599   7.456   2.764   7.626 -1.0474  1.2481 -0.9041
   43MOL   H35620600   7.336   2.643   7.416  0.4706 -0.8430 -0.8234
   43MOL   H35720601   7.508   2.623   7.450  0.0351  1.7889 -0.2057
   43MOL   H35820602   7.263   2.204   7.532 -1.0969  0.6098 -0.7536
   43MOL   H35920603   7.435   2.222   7.533 -0.6427  2.7409  1.6309
   43MOL   H36020604   7.380   2.222   7.261  0.7550 -0.8719  0.2045
   43MOL   H36120605   7.467   2.104   7.345 -0.1009 -0.3061 -0.8526
   43MOL   O36220606   7.234   1.966   7.408 -0.3548  0.4156 -0.6140
   43MOL   C36320607   7.142   1.861   7.392 -1.0296 -0.0886 -0.0140
   43MOL   C36420608   7.011   1.918   7.449  0.3918 -0.2006  0.2051
   43MOL   C36520609   6.900   1.813   7.483 -0.0940 -0.2308 -0.1352
   43MOL   C36620610   6.782   1.889   7.546 -0.1627  0.5371 -0.1755
   43MOL   O36720611   6.701   1.944   7.441 -0.0563  0.1458  0.6862
   43MOL   C36820612   6.581   1.992   7.458  0.1573 -0.3461 -0.8458
   43MOL   O36920613   6.515   1.980   7.562 -0.0782 -0.2203 -0.3452
   43MOL   C37020614   6.533   2.080   7.343 -0.2550  0.5119 -0.2089
   43MOL   C37120615   6.611   2.216   7.333 -0.5168  0.3165  0.3261
   43MOL   C37220616   6.704   2.217   7.215  0.0716  0.5361 -0.3517
   43MOL   O37320617   6.734   2.327   7.162 -0.9326 -0.2394  0.3058
   43MOL   H37420618   7.145   1.826   7.288 -0.5236  1.7216 -0.6288
   43MOL   H37520619   7.170   1.777   7.455 -2.7993  0.9802  2.2567
   43MOL   H37620620   6.974   1.993   7.378  2.5623  0.8227  0.1405
   43MOL   H37720621   7.033   1.976   7.539  1.1766  0.4311 -0.3819
   43MOL   H37820622   6.938   1.741   7.556 -0.2721 -0.9134 -0.7121
   43MOL   H37920623   6.870   1.763   7.392  1.8523  0.2015 -1.0498
   43MOL   H38020624   6.716   1.814   7.591  0.8623  0.0963  0.6096
   43MOL   H38120625   6.794   1.963   7.624 -2.0161 -0.0345  0.6726
   43MOL   H38220626   6.426   2.089   7.359 -0.2489 -0.5888  0.4636
   43MOL   H38320627   6.530   2.027   7.247  0.7245  1.0440 -0.5502
   43MOL   H38420628   6.542   2.301   7.323 -0.5996  0.5421  2.5380
   43MOL   H38520629   6.665   2.234   7.426  0.6368  0.5939 -0.3979
   43MOL   O38620630   6.769   2.102   7.182  0.3231  0.2564  0.3629
   43MOL   C38720631   6.864   2.101   7.075 -0.4041  0.0749  0.3020
   43MOL   C38820632   6.902   1.954   7.036  0.5290  0.2170 -0.5142
   43MOL   C38920633   6.781   1.867   7.008  0.3360 -0.2501  0.3830
   43MOL   C39020634   6.812   1.720   6.973 -0.9520 -0.4247  0.6382
   43MOL   O39120635   6.893   1.675   7.082  0.0090  0.2951  0.6407
   43MOL   C39220636   6.984   1.580   7.055  0.1491 -0.0436  0.7471
   43MOL   O39320637   7.001   1.528   6.941  0.3366  0.1332 -0.2654
   43MOL   C39420638   7.059   1.525   7.185 -0.3564 -0.3409 -0.0132
   43MOL   C39520639   7.166   1.418   7.151  0.1084  0.0278  0.1990
   43MOL   C39620640   7.240   1.394   7.281 -0.1070  0.3347  0.2089
   43MOL   O39720641   7.342   1.448   7.306  0.1826 -0.0956  0.8892
   43MOL   H39820642   6.806   2.143   6.992 -1.3734 -2.1793 -0.1851
   43MOL   H39920643   6.948   2.166   7.099 -0.4498  0.4068 -0.4192
   43MOL   H40020644   6.952   1.910   7.122  2.3193  0.2163 -1.5322
   43MOL   H40120645   6.971   1.962   6.952  0.8879  0.0683 -0.2358
   43MOL   H40220646   6.726   1.923   6.933 -0.8081  1.7298  2.6021
   43MOL   H40320647   6.710   1.880   7.091 -0.4843  0.4999 -0.4285
   43MOL   H40420648   6.726   1.658   6.946 -0.1020 -0.5479 -1.9089
   43MOL   H40520649   6.878   1.715   6.886 -2.9382 -1.9115 -0.8242
   43MOL   H40620650   6.988   1.479   7.253 -1.6052 -0.8563 -1.6410
   43MOL   H40720651   7.103   1.601   7.249 -2.3754  0.2639  0.6683
   43MOL   H40820652   7.119   1.336   7.097 -0.4699 -0.0969  0.8948
   43MOL   H40920653   7.235   1.455   7.075  1.9935  1.9815  2.7626
   43MOL   O41020654   7.188   1.297   7.359  0.2298 -0.2840 -0.6392
   43MOL   C41120655   7.260   1.256   7.486 -0.0205  0.6717  0.1050
   43MOL   C41220656   7.177   1.144   7.557 -0.0933  0.2785 -0.1151
   43MOL   C41320657   7.191   1.006   7.484  0.1919 -0.5335 -0.1884
   43MOL   C41420658   7.122   0.896   7.557 -0.5165 -0.5625  0.7559
   43MOL   O41520659   7.193   0.845   7.673 -0.0063  0.3162  0.0422
   43MOL   C41620660   7.166   0.713   7.707 -0.3237  0.4865  0.1949
   43MOL   O41720661   7.075   0.643   7.653  0.0361  0.3754 -0.0640
   43MOL   C41820662   7.253   0.658   7.818  0.5297  0.3862  0.3280
   43MOL   C41920663   7.179   0.647   0.083  0.0113 -0.0107  0.1894
   43MOL   C42020664   7.144   0.500   0.116  0.4342  0.4693  0.1755
   43MOL   O42120665   7.023   0.467   0.137 -0.0903  0.0348 -0.1100
   43MOL   H42220666   7.357   1.209   7.472 -0.7369 -1.1811  1.3440
   43MOL   H42320667   7.247   1.351   7.538 -2.0664 -0.1828  1.2221
   43MOL   H42420668   7.071   1.166   7.564 -0.0652 -0.1496  1.9485
   43MOL   H42520669   7.214   1.133   7.659 -2.6445 -0.1571  0.7969
   43MOL   H42620670   7.296   0.978   7.478 -0.2896 -2.6136  0.6220
   43MOL   H42720671   7.153   1.016   7.383  0.5812  0.7120 -0.2235
   43MOL   H42820672   7.019   0.913   7.587 -0.0115  0.7074  1.8419
   43MOL   H42920673   7.116   0.815   7.485  0.8107 -0.3713  0.4145
   43MOL   H43020674   7.330   0.734   7.830  0.4397  0.5352 -0.0236
   43MOL   H43120675   7.302   0.567   7.784 -1.8658 -1.0009  0.5064
   43MOL   H43220676   7.249   0.684   0.158 -1.9980 -1.2911  2.7683
   43MOL   H43320677   7.091   0.712   0.082 -0.0292 -0.0633  0.6628
   43MOL   O43420678   7.250   0.420   0.112  0.0896 -0.3437 -0.2406
   43MOL   C43520679   7.243   0.279   0.139  0.2633 -0.6769  0.0148
   43MOL   C43620680   7.331   0.205   0.042 -0.0356  0.4311 -0.2215
   43MOL   C43720681   7.478   0.208   0.084  0.5625  0.4154 -0.2579
   43MOL   C43820682   7.562   0.140   7.849 -0.3415  0.1370 -0.6989
   43MOL   O43920683   7.512   0.012   7.824  0.0335 -0.4354 -0.4972
   43MOL   C44020684   7.557   7.783   0.016 -0.0157  0.5684 -0.3034
   43MOL   O44120685   7.661   7.772   0.079  0.2697  0.2235  0.2068
   43MOL   C44220686   7.456   7.676   0.030 -0.0969  0.4051  0.0898
   43MOL   C44320687   7.493   7.572   0.131 -0.7277  0.4146  0.3892
   43MOL   C44420688   7.537   7.447   0.056  0.0503  0.1695 -0.4220
   43MOL   O44520689   7.452   7.382   7.863  0.0023  0.0437  0.1823
   43MOL   H44620690   7.277   0.263   0.242 -3.5375 -1.2834  1.2553
   43MOL   H44720691   7.142   0.238   0.135  0.6666 -1.7811  0.7251
   43MOL   H44820692   7.320   0.235   7.812  0.5784  2.9313  0.4090
   43MOL   H44920693   7.295   0.104   0.019 -0.4474  0.2279  1.2782
   43MOL   H45020694   7.487   0.164   0.184 -0.4536  0.1707 -0.2686
   43MOL   H45120695   7.519   0.309   0.093  1.4003  0.2967 -2.5257
   43MOL   H45220696   7.547   0.200   7.759  0.3226  0.6968 -0.4407
   43MOL   H45320697   7.668   0.131   7.872 -0.5643  0.6622  0.5993
   43MOL   H45420698   7.432   7.633   7.808 -2.1882  1.5885  0.0581
   43MOL   H45520699   7.357   7.709   0.060  0.6986  1.0449  2.1366
   43MOL   H45620700   7.566   7.595   0.208 -0.0681  0.7514 -0.3326
   43MOL   H45720701   7.404   7.547   0.189  0.4472 -0.2365  1.9584
   43MOL   O45820702   7.665   7.416   0.077 -0.0919 -0.5055  0.1363
   43MOL   C45920703   7.707   7.283   0.041  0.7534  0.5181  0.2664
   43MOL   C46020704   7.858   7.260   0.050 -0.1038 -0.1705  0.3465
   43MOL   C46120705   0.016   7.108   0.017  0.0787 -0.6582 -0.1692
   43MOL   C46220706   7.837   7.000   0.115  0.3927  0.4816  0.5723
   43MOL   O46320707   7.697   6.980   0.096  0.2848  0.6984  0.2234
   43MOL   C46420708   7.631   6.884   0.160 -0.2500  0.0896  0.3502
   43MOL   O46520709   7.682   6.787   0.227  0.1771  0.4934 -0.2456
   43MOL   C46620710   7.480   6.893   0.147 -0.0918  0.3423 -0.0623
   43MOL   C46720711   7.404   6.805   0.248 -0.1769  0.2008  0.4144
   43MOL   C46820712   7.325   6.705   0.172  0.1932 -0.1697  0.2610
   43MOL   O46920713   7.231   6.733   0.105  0.2442 -0.2093  0.1723
   43MOL   H47020714   7.652   7.211   0.101 -0.5915  1.6007  0.3620
   43MOL   H47120715   7.675   7.261   7.814  0.3353 -3.6376  1.1992
   43MOL   H47220716   0.016   7.286   0.151 -1.1815 -1.0764  0.9445
   43MOL   H47320717   0.034   7.328   7.857  0.6410 -0.2568  0.8182
   43MOL   H47420718   0.124   7.096   0.007  0.2904  0.0219  1.2152
   43MOL   H47520719   7.858   7.083   7.791 -0.2545  3.0642 -1.0769
   43MOL   H47620720   0.011   6.906   0.092 -1.1040 -0.7549  2.2677
   43MOL   H47720721   7.850   7.012   0.223  2.9988 -2.8980  0.7176
   43MOL   H47820722   7.467   6.872   0.041 -1.1459  0.9536 -0.0570
   43MOL   H47920723   7.457   6.999   0.158  0.8705  0.4611  0.8356
   43MOL   H48020724   7.466   6.760   0.325 -0.9436 -0.5782  0.5801
   43MOL   H48120725   7.332   6.866   0.303 -3.4670 -2.9138 -0.2768
   43MOL   H48220726   7.365   6.604   0.186 -1.5485 -0.8545  0.4107
   44MOL     O120727   1.356   6.983   0.850  0.6306 -0.1283  0.6811
   44MOL     C220728   1.287   6.882   0.918  0.2500 -0.1580 -0.3139
   44MOL     C320729   1.164   6.937   0.993 -0.9834 -0.4098  0.7216
   44MOL     C420730   1.178   7.055   1.089 -0.0857  0.3037  0.1113
   44MOL     C520731   1.059   7.117   1.149 -0.0400 -0.2276 -0.1718
   44MOL     O620732   0.970   7.178   1.046 -1.1270 -0.6867 -0.5642
   44MOL     C720733   1.013   7.286   0.979  0.4286  0.0633 -0.1591
   44MOL     O820734   1.103   7.361   1.009  0.4111 -0.2726  0.1608
   44MOL     C920735   0.930   7.332   0.861  0.5602  0.0840 -0.7852
   44MOL    C1020736   0.962   7.232   0.753 -0.5876  0.6594 -0.1590
   44MOL    C1120737   1.093   7.252   0.675  0.3070 -0.0173 -0.7467
   44MOL    O1220738   1.193   7.189   0.697 -0.1267  0.0522  0.2602
   44MOL    H1320739   1.260   6.794   0.860 -2.2272  0.9745 -0.9565
   44MOL    H1420740   1.354   6.841   0.994 -1.4580 -0.5991  0.9742
   44MOL    H1520741   1.118   6.843   1.026 -1.8318 -0.3720 -0.3273
   44MOL    H1620742   1.097   6.971   0.914  1.4392 -1.3816 -1.8060
   44MOL    H1720743   1.243   7.129   1.043 -0.4755  0.7962  0.3485
   44MOL    H1820744   1.230   7.011   1.175  1.8725 -1.0891 -1.7280
   44MOL    H1920745   1.005   7.045   1.211  1.0455  0.7428  1.9486
   44MOL    H2020746   1.087   7.192   1.223 -0.5489 -0.1461 -0.0613
   44MOL    H2120747   0.965   7.435   0.847  3.3226 -0.8620 -1.2715
   44MOL    H2220748   0.827   7.313   0.891  1.1938 -0.1803  1.3415
   44MOL    H2320749   0.967   7.127   0.784 -3.0024  0.0705 -1.6308
   44MOL    H2420750   0.880   7.236   0.681 -0.2148  0.7261 -0.5835
   44MOL    H2520751   1.302   7.023   0.784 -0.0062 -0.2312  1.1403
   44MOL    O2620752   1.074   7.356   0.589  0.1944  0.3997 -1.3449
   44MOL    C2720753   1.170   7.392   0.497  0.1856 -0.4037 -0.4734
   44MOL    C2820754   1.142   7.542   0.464 -0.1344 -0.6467  0.4779
   44MOL    C2920755   1.241   7.608   0.366 -0.2391  0.2626  0.8265
   44MOL    C3020756   1.227   7.609   0.214 -0.1939  0.4831 -0.3917
   44MOL    O3120757   1.307   7.702   0.140  0.2641  0.2821 -0.1377
   44MOL    C3220758   1.243   7.801   0.080  0.2911 -0.3790 -0.9393
   44MOL    O3320759   1.118   7.812   0.079  0.0082 -0.3950  0.0651
   44MOL    C3420760   1.331   0.008   7.868 -0.2295  0.1588 -0.4497
   44MOL    C3520761   1.321   0.156   0.033 -0.5011 -0.2227  0.4244
   44MOL    C3620762   1.456   0.221   0.026  0.0253 -0.0211 -0.0627
   44MOL    O3720763   1.517   0.250   7.795  0.0088  0.2615 -0.3824
   44MOL    H3820764   1.271   7.377   0.534 -0.6638  0.6088  2.4219
   44MOL    H3920765   1.167   7.341   0.400  3.4285  0.9672 -1.3703
   44MOL    H4020766   1.140   7.593   0.560 -3.0073 -0.7614  0.5132
   44MOL    H4120767   1.039   7.567   0.439  0.2851 -0.2926 -0.9499
   44MOL    H4220768   1.339   7.573   0.398  0.0717  1.2049  0.9342
   44MOL    H4320769   1.240   7.716   0.380 -0.5965  0.2321  1.0494
   44MOL    H4420770   1.266   7.512   0.185 -0.6154  0.2577 -0.2041
   44MOL    H4520771   1.119   7.602   0.199 -0.2511  0.4611  0.0093
   44MOL    H4620772   1.317   7.864   7.761  1.3071  0.3723 -0.7032
   44MOL    H4720773   1.433   7.843   7.874  0.0007  0.9631  1.2836
   44MOL    H4820774   1.251   0.204   7.840 -0.0114  1.0030  0.7738
   44MOL    H4920775   1.287   0.171   0.136 -0.5940 -1.2074  0.5420
   44MOL    O5020776   1.503   0.241   0.150 -0.4131  0.0402  0.0797
   44MOL    C5120777   1.634   0.293   0.161 -0.8039 -0.9749 -0.5902
   44MOL    C5220778   1.660   0.373   0.291 -0.8527  0.3576 -0.3236
   44MOL    C5320779   1.564   0.502   0.299  0.3084  0.2255  0.2883
   44MOL    C5420780   1.425   0.476   0.357 -0.2485 -0.3286  0.0985
   44MOL    O5520781   1.359   0.604   0.368 -0.8221 -0.6599  0.1525
   44MOL    C5620782   1.330   0.651   0.492  0.3314 -0.4020 -0.9195
   44MOL    O5720783   1.344   0.604   0.604  0.7446 -0.7804 -0.3844
   44MOL    C5820784   1.264   0.786   0.482  0.3931 -0.0466  0.1495
   44MOL    C5920785   1.132   0.789   0.399  0.1930 -0.2236  0.8121
   44MOL    C6020786   1.011   0.754   0.482  0.0619  0.2960 -0.6975
   44MOL    O6120787   0.907   0.805   0.465  0.5245 -0.2407 -0.0635
   44MOL    H6220788   1.713   0.218   0.156  1.9310  1.7209  0.0842
   44MOL    H6320789   1.664   0.362   0.082  0.7746 -0.7499  0.1880
   44MOL    H6420790   1.761   0.415   0.291 -0.8202  0.2992 -1.5032
   44MOL    H6520791   1.657   0.306   0.376  0.8866  0.4372 -0.1756
   44MOL    H6620792   1.562   0.560   0.207 -2.1662  0.1010  0.2309
   44MOL    H6720793   1.612   0.565   0.375  0.0346  0.9644 -0.1452
   44MOL    H6820794   1.382   0.415   0.278  1.4468 -0.6571 -0.5839
   44MOL    H6920795   1.435   0.422   0.451 -2.0133  0.8642  0.9971
   44MOL    H7020796   1.334   0.846   0.425  0.5071  1.7427  2.1048
   44MOL    H7120797   1.254   0.841   0.576  0.8843  2.2427 -1.1014
   44MOL    H7220798   1.118   0.892   0.368  0.1466 -0.0876  1.2712
   44MOL    H7320799   1.148   0.732   0.308 -0.4690 -0.2402  0.7002
   44MOL    O7420800   1.030   0.633   0.549  0.1097  0.1602  0.3039
   44MOL    C7520801   0.916   0.562   0.597 -0.2418  0.3208 -0.3976
   44MOL    C7620802   0.981   0.433   0.654  0.2462  0.3245  0.7264
   44MOL    C7720803   1.053   0.457   0.785 -0.8597  0.1032 -0.2963
   44MOL    C7820804   1.122   0.329   0.845  0.1003  0.5156 -0.0266
   44MOL    O7920805   1.187   0.354   0.971  0.1567  0.1464 -0.6128
   44MOL    C8020806   1.143   0.296   1.081  0.2621  0.1806 -0.1766
   44MOL    O8120807   1.050   0.219   1.091  0.0234 -0.0543  0.3647
   44MOL    C8220808   1.216   0.337   1.210 -0.2099 -0.2770 -0.0448
   44MOL    C8320809   1.216   0.228   1.316 -0.4028 -0.1378 -1.1915
   44MOL    C8420810   1.321   0.253   1.424  0.0286  0.4822 -0.1194
   44MOL    O8520811   1.335   0.365   1.463 -0.2230  0.4771  0.1551
   44MOL    H8620812   0.863   0.631   0.663  0.5845 -0.6603  1.3515
   44MOL    H8720813   0.852   0.536   0.513  0.6433 -0.0743 -0.9540
   44MOL    H8820814   1.048   0.390   0.579  0.7140  3.3041 -0.6291
   44MOL    H8920815   0.913   0.349   0.669  1.1018 -0.3640  0.7580
   44MOL    H9020816   0.984   0.497   0.860 -1.6160 -1.0116 -0.3896
   44MOL    H9120817   1.141   0.519   0.766 -0.2092 -0.8374 -0.3561
   44MOL    H9220818   1.043   0.255   0.857 -1.7098  2.2481 -0.7935
   44MOL    H9320819   1.190   0.290   0.770 -1.0582  0.1826 -0.9055
   44MOL    H9420820   1.155   0.417   1.251 -0.7120 -0.2394 -0.8372
   44MOL    H9520821   1.316   0.375   1.192 -0.9591  2.1026  0.5554
   44MOL    H9620822   1.111   0.223   1.346  0.4747 -1.7271  1.8054
   44MOL    H9720823   1.240   0.128   1.282  2.0520  0.0904 -0.2317
   44MOL    O9820824   1.377   0.140   1.469 -0.0275  0.6019  0.6099
   44MOL    C9920825   1.473   0.152   1.573  0.1222 -0.5514  0.1419
   44MOL   C10020826   1.482   0.021   1.657  0.1881  0.1772 -0.5045
   44MOL   C10120827   1.576   0.034   1.776 -0.5157  0.2735 -0.8478
   44MOL   C10220828   1.722   0.060   1.734 -0.4420 -0.1644  0.3886
   44MOL   O10320829   1.788   0.098   1.857  0.4070 -0.3423 -0.7738
   44MOL   C10420830   1.927   0.090   1.854  0.3824 -0.0060 -0.3239
   44MOL   O10520831   1.994   0.049   1.762 -0.1899 -0.1347  0.4100
   44MOL   C10620832   1.978   0.152   1.987  0.1522  0.0343  0.2957
   44MOL   C10720833   2.127   0.121   2.016 -0.1140 -0.9000  1.1727
   44MOL   C10820834   2.136   0.008   2.116  1.1017  0.5657 -0.0758
   44MOL   O10920835   2.054   7.797   2.132  0.4009 -0.5165 -0.0175
   44MOL   H11020836   1.566   0.160   1.515  0.4452 -0.3332  0.6836
   44MOL   H11120837   1.458   0.246   1.625 -1.5709 -0.1294 -1.0696
   44MOL   H11220838   1.521   7.814   1.595 -1.1359 -0.9066  0.0663
   44MOL   H11320839   1.383   0.006   1.699  0.9565 -2.2551  0.5166
   44MOL   H11420840   1.575   7.814   1.830  3.0574  1.0013  0.6033
   44MOL   H11520841   1.545   0.112   1.845  0.5656  0.4252 -0.5244
   44MOL   H11620842   1.763   7.840   1.698 -0.5668 -1.0478  2.5159
   44MOL   H11720843   1.743   0.140   1.662 -1.5573  0.4598  0.7591
   44MOL   H11820844   1.909   0.116   2.063  0.4041 -1.6031 -0.2088
   44MOL   H11920845   1.967   0.260   1.985  1.4849  0.1791  0.5254
   44MOL   H12020846   2.165   0.083   1.921 -4.2633 -0.1121 -0.9113
   44MOL   H12120847   2.185   0.208   2.045 -0.3087 -0.3109 -0.1689
   44MOL   O12220848   2.249   0.023   2.194  0.2534  0.5287 -0.1628
   44MOL   C12320849   2.274   7.799   2.296 -0.3210 -0.4843  0.2159
   44MOL   C12420850   2.338   7.854   2.426  0.3217  0.0025 -0.0222
   44MOL   C12520851   2.353   7.755   2.539  0.6917 -0.4195  0.0351
   44MOL   C12620852   2.413   7.618   2.500  0.5353  0.2580 -0.1238
   44MOL   O12720853   2.543   7.638   2.449  0.5762 -0.1985  0.3291
   44MOL   C12820854   2.603   7.540   2.390 -0.3085  0.0056 -0.2242
   44MOL   O12920855   2.561   7.426   2.385 -0.5646 -0.2526 -0.4065
   44MOL   C13020856   2.734   7.591   2.320  0.2854  0.7101 -0.3074
   44MOL   C13120857   2.821   7.472   2.289  0.0914  0.2228  0.2085
   44MOL   C13220858   2.929   7.444   2.391 -0.0483  0.5565 -0.0998
   44MOL   O13320859   2.933   7.505   2.497 -0.3083  0.1805 -0.1532
   44MOL   H13420860   2.180   7.763   2.336 -1.1836  1.9525  0.4188
   44MOL   H13520861   2.332   7.714   2.259  1.0550  0.3914  0.3394
   44MOL   H13620862   2.270   0.057   2.461 -0.8661 -1.2503  0.5016
   44MOL   H13720863   2.435   0.023   2.400  0.2513 -0.9561 -2.0107
   44MOL   H13820864   2.252   7.736   2.577  1.0465 -5.6199 -1.1767
   44MOL   H13920865   2.403   7.801   2.624 -0.0094  1.0217 -0.3277
   44MOL   H14020866   2.415   7.557   2.590 -0.3899  0.8553  0.3028
   44MOL   H14120867   2.346   7.568   2.429 -1.2349 -0.3581  1.9186
   44MOL   H14220868   2.782   7.662   2.387  0.8077  2.8276 -2.8157
   44MOL   H14320869   2.689   7.644   2.236 -0.7004  0.3307 -0.0234
   44MOL   H14420870   2.768   7.380   2.266 -1.6444  1.4395 -0.7249
   44MOL   H14520871   2.871   7.507   2.199 -1.3532 -2.0764 -1.5529
   44MOL   O14620872   2.994   7.329   2.369  0.6142 -0.6482 -0.0306
   44MOL   C14720873   3.102   7.282   2.447 -0.6308 -0.0541 -0.4810
   44MOL   C14820874   3.054   7.243   2.593 -0.1698 -0.5068  0.0305
   44MOL   C14920875   3.158   7.159   2.675 -0.0615  0.0998  0.2682
   44MOL   C15020876   3.087   7.113   2.806 -0.3110  0.7851 -0.1674
   44MOL   O15120877   3.046   7.225   2.881 -0.3634  0.2171  0.5472
   44MOL   C15220878   3.020   7.194   3.017  0.1616 -0.8426  0.2174
   44MOL   O15320879   3.024   7.089   3.078 -0.2896  0.5311  0.0195
   44MOL   C15420880   2.983   7.319   3.094 -0.4812 -0.2999 -0.0889
   44MOL   C15520881   3.071   7.440   3.077 -0.1202  0.7917  0.3131
   44MOL   C15620882   3.070   7.533   3.203  0.4477 -0.4994 -0.4695
   44MOL   O15720883   2.999   7.511   3.301  0.2258  0.0001 -0.6329
   44MOL   H15820884   3.140   7.197   2.390 -0.8175 -0.4193 -0.0689
   44MOL   H15920885   3.188   7.348   2.436 -0.1954  0.0535  2.9155
   44MOL   H16020886   2.963   7.183   2.585  0.0079 -0.5867 -1.5332
   44MOL   H16120887   3.043   7.334   2.652  0.0351 -0.1729 -0.4406
   44MOL   H16220888   3.249   7.217   2.690  1.2290 -1.5689 -0.9352
   44MOL   H16320889   3.193   7.075   2.616  1.3136 -1.6348  3.4080
   44MOL   H16420890   3.003   7.056   2.769 -0.5824  0.3419  1.1080
   44MOL   H16520891   3.155   7.047   2.861 -1.7301  1.0313  1.9340
   44MOL   H16620892   2.989   7.308   3.202  0.5446  1.6681  0.0851
   44MOL   H16720893   2.880   7.343   3.069 -0.0293  2.1194  0.2297
   44MOL   H16820894   3.174   7.416   3.052 -0.7369 -1.1645 -0.4996
   44MOL   H16920895   3.029   7.492   2.990 -0.6395  0.2360  0.2250
   44MOL   O17020896   3.155   7.632   3.174  0.1582  0.1339 -0.1119
   44MOL   C17120897   3.163   7.735   3.268 -0.2942  0.4740  0.5780
   44MOL   C17220898   3.306   7.742   3.327 -0.1133 -0.2408 -1.6168
   44MOL   C17320899   3.416   7.794   3.232  0.5308 -0.7027  0.0090
   44MOL   C17420900   3.556   7.734   3.248 -0.4576 -0.0628 -0.8538
   44MOL   O17520901   3.617   7.787   3.358 -0.1532  0.1736 -0.3760
   44MOL   C17620902   3.668   0.038   3.358  0.1196 -0.2869  0.5248
   44MOL   O17720903   3.650   0.124   3.270  0.3973  0.6129  0.2578
   44MOL   C17820904   3.769   0.071   3.467 -0.7055 -0.5762 -0.7223
   44MOL   C17920905   3.799   0.221   3.479  0.5197  0.5315 -0.2359
   44MOL   C18020906   3.925   0.263   3.396 -0.0914  0.5633 -0.1102
   44MOL   O18120907   3.914   0.338   3.293 -0.2872  0.1226 -0.1841
   44MOL   H18220908   3.136   7.825   3.214  0.5455  0.2988 -0.1505
   44MOL   H18320909   3.104   7.722   3.359  2.0691 -2.9408  1.7354
   44MOL   H18420910   3.318   7.644   3.373 -0.0796 -0.4114 -1.9873
   44MOL   H18520911   3.318   7.806   3.415 -0.9396 -4.9008  2.0871
   44MOL   H18620912   3.422   0.027   3.243 -1.4530 -0.6944  1.2604
   44MOL   H18720913   3.381   7.774   3.131 -0.3170  3.6135 -0.6277
   44MOL   H18820914   3.553   7.626   3.259 -0.9400  0.2312  2.2326
   44MOL   H18920915   3.616   7.758   3.160  2.2680  0.9023  1.1876
   44MOL   H19020916   3.861   0.015   3.449  0.9646  1.3096  1.5577
   44MOL   H19120917   3.735   0.019   3.557 -2.2136  2.4047  0.5066
   44MOL   H19220918   3.712   0.280   3.448  0.1804 -0.9695 -2.3197
   44MOL   H19320919   3.810   0.241   3.585 -1.4331  1.0896 -0.1180
   44MOL   O19420920   4.032   0.209   3.444 -0.4113  0.2884 -0.0482
   44MOL   C19520921   4.163   0.239   3.386 -0.0720  0.6083  0.4748
   44MOL   C19620922   4.242   0.330   3.479  0.3701 -0.5816  0.0261
   44MOL   C19720923   4.335   0.244   3.578 -0.2718 -0.4580  0.0365
   44MOL   C19820924   4.277   0.214   3.718 -0.0491  1.1958 -0.1728
   44MOL   O19920925   4.160   0.133   3.705 -0.3731 -0.0715 -0.3251
   44MOL   C20020926   4.095   0.096   3.817 -0.3331 -0.3512  0.1302
   44MOL   O20120927   4.129   0.123   3.932  0.6366  0.2068  0.3162
   44MOL   C20220928   3.971   0.018   3.785 -0.2465 -0.1591  0.1750
   44MOL   C20320929   3.872   0.005   3.904  0.8413  0.4305  0.0279
   44MOL   C20420930   3.738   0.078   3.877 -0.4313 -0.5376  0.3953
   44MOL   O20520931   3.723   0.191   3.929  0.4187 -0.2169  0.2432
   44MOL   H20620932   4.215   0.144   3.370 -0.4077  0.0414  2.5977
   44MOL   H20720933   4.150   0.295   3.293  2.2949  0.7249  0.1745
   44MOL   H20820934   4.167   0.388   3.532  0.0520 -2.4581  1.6739
   44MOL   H20920935   4.304   0.397   3.419  2.2188  0.1740  2.7028
   44MOL   H21020936   4.415   0.315   3.601 -0.0965 -1.1484  1.6307
   44MOL   H21120937   4.383   0.160   3.528  2.0082  0.5034  0.5449
   44MOL   H21220938   4.344   0.149   3.775 -1.0662  0.0394 -0.2808
   44MOL   H21320939   4.263   0.311   3.767 -1.7041  1.1927 -0.6161
   44MOL   H21420940   4.016   7.794   3.782 -1.6986 -0.8596  0.7688
   44MOL   H21520941   3.918   0.039   3.691 -0.5271  0.5527  0.4851
   44MOL   H21620942   3.852   7.773   3.916 -1.5056  0.5747 -2.0111
   44MOL   H21720943   3.917   0.051   3.991  1.6976 -1.0799  0.4066
   44MOL   O21820944   3.646   7.872   3.814  0.3608 -0.1898 -0.2387
   44MOL   C21920945   3.513   0.043   3.779 -0.7946  0.2587 -0.1361
   44MOL   C22020946   3.412   7.853   3.877 -0.4241 -0.2222 -0.3319
   44MOL   C22120947   3.271   0.037   3.868 -1.2912 -0.0588 -0.0806
   44MOL   C22220948   3.216   0.043   3.726 -0.3204 -0.1584 -0.1750
   44MOL   O22320949   3.181   7.791   3.683 -0.0362  0.1887 -0.5376
   44MOL   C22420950   3.061   7.755   3.645 -0.5665  0.2075 -0.1413
   44MOL   O22520951   2.962   7.826   3.627 -0.1190 -0.6077 -0.0986
   44MOL   C22620952   3.062   7.606   3.616 -0.1078 -0.5259  0.0293
   44MOL   C22720953   3.109   7.520   3.741 -0.0341  0.8213  0.2981
   44MOL   C22820954   2.997   7.465   3.822 -0.2015 -0.6945  0.0172
   44MOL   O22920955   2.983   7.349   3.832 -0.1565 -0.6661 -0.2926
   44MOL   H23020956   3.509   0.152   3.787  0.0073  0.2339  0.6957
   44MOL   H23120957   3.503   0.018   3.674 -0.3209 -1.4003  0.2026
   44MOL   H23220958   3.463   7.870   3.972 -0.2190  0.5149 -0.5690
   44MOL   H23320959   3.404   7.744   3.868 -2.5673 -0.1736  0.7331
   44MOL   H23420960   3.284   0.139   3.906 -0.8443 -0.0452 -0.2649
   44MOL   H23520961   3.211   7.866   3.946  2.1267 -0.6587  2.3350
   44MOL   H23620962   3.134   0.114   3.721  0.0673  0.3117  0.1433
   44MOL   H23720963   3.301   0.079   3.668  0.8586 -3.1604 -0.4345
   44MOL   H23820964   3.133   7.575   3.540  1.1585 -0.4078  1.1569
   44MOL   H23920965   2.960   7.579   3.587 -0.4904  0.4406  0.4386
   44MOL   H24020966   3.178   7.442   3.711  0.4807  0.9555  1.1132
   44MOL   H24120967   3.171   7.583   3.805  1.6677  1.5476 -1.9705
   44MOL   O24220968   2.918   7.565   3.870 -0.2512  0.0871  0.0183
   44MOL   C24320969   2.794   7.527   3.925 -1.0326 -0.0915 -0.2846
   44MOL   C24420970   2.685   7.632   3.928 -0.4949  0.2829  0.3601
   44MOL   C24520971   2.645   7.684   3.788 -0.6119  0.2004 -0.1565
   44MOL   C24620972   2.506   7.737   3.777  0.4287  0.2975 -0.5599
   44MOL   O24720973   2.491   7.847   3.862  0.3030  0.7794  0.0882
   44MOL   C24820974   2.357   0.005   3.892 -0.0212 -0.3197 -0.3924
   44MOL   O24920975   2.258   7.841   3.824 -0.3553 -0.0241 -0.3138
   44MOL   C25020976   2.343   0.099   4.014 -0.2316  0.1505 -0.2309
   44MOL   C25120977   2.407   0.242   3.992 -0.1378  0.5228  0.0140
   44MOL   C25220978   2.320   0.341   4.070 -0.3477  0.4756  0.0259
   44MOL   O25320979   2.348   0.376   4.182 -0.2679  0.2960  0.2462
   44MOL   H25420980   2.755   7.441   3.870 -0.1675 -0.7742  0.1515
   44MOL   H25520981   2.805   7.499   4.030 -1.6130 -0.2309 -0.2589
   44MOL   H25620982   2.722   7.716   3.988 -0.1667  0.3336  0.0923
   44MOL   H25720983   2.588   7.599   3.964 -0.0225  0.5051  1.8979
   44MOL   H25820984   2.638   7.601   3.718  1.1366 -0.4323  0.4163
   44MOL   H25920985   2.727   7.750   3.762 -0.2528  1.0036  2.8473
   44MOL   H26020986   2.478   7.776   3.679 -0.2154  0.5846 -0.2640
   44MOL   H26120987   2.445   7.653   3.809  2.1167 -0.9031 -0.4294
   44MOL   H26220988   2.390   0.045   4.096 -1.5914  0.0848  0.5232
   44MOL   H26320989   2.237   0.103   4.040 -0.1471  1.8905 -0.1484
   44MOL   H26420990   2.506   0.222   4.034 -0.5174  0.3122  0.8344
   44MOL   H26520991   2.423   0.285   3.894  1.0922  0.3757  0.1468
   44MOL   O26620992   2.213   0.376   3.998 -0.0637  0.6644 -0.2225
   44MOL   C26720993   2.121   0.455   4.058  0.4712  0.0972  0.2736
   44MOL   C26820994   2.034   0.510   3.944 -0.8897  0.0977  0.2042
   44MOL   C26920995   1.901   0.565   4.002  0.1753  0.0648  0.3307
   44MOL   C27020996   1.789   0.577   3.896 -0.5118  0.3683 -0.4919
   44MOL   O27120997   1.723   0.454   3.874  0.4990 -0.6501 -0.0542
   44MOL   C27220998   1.611   0.466   3.797  1.0137  0.6833 -0.3638
   44MOL   O27320999   1.566   0.554   3.724  0.4746 -0.3862  0.1921
   44MOL   C27421000   1.536   0.335   3.796 -0.5459 -0.9345 -0.6091
   44MOL   C27521001   1.586   0.242   3.689  0.8243 -0.3074  0.1130
   44MOL   C27621002   1.639   0.109   3.742  0.0853 -0.0584  0.2412
   44MOL   O27721003   1.569   0.009   3.750  0.3288 -0.0146  0.6027
   44MOL   H27821004   2.058   0.414   4.137  0.5694  1.2380  0.9678
   44MOL   H27921005   2.174   0.538   4.106  2.7729 -0.7722 -0.7261
   44MOL   H28021006   2.011   0.435   3.869 -2.3616 -0.5234  1.2548
   44MOL   H28121007   2.086   0.586   3.886 -0.5742 -0.1388  0.1770
   44MOL   H28221008   1.919   0.660   4.052 -3.5144  0.0032  1.9234
   44MOL   H28321009   1.863   0.488   4.069 -1.8134  1.5017  0.8850
   44MOL   H28421010   1.720   0.647   3.944 -0.9746  0.2570 -0.9864
   44MOL   H28521011   1.828   0.627   3.808 -0.9348  0.2183 -0.7664
   44MOL   H28621012   1.431   0.359   3.782 -0.2593  0.0250 -1.1265
   44MOL   H28721013   1.537   0.296   3.898  1.4438  0.9845  0.1334
   44MOL   H28821014   1.505   0.219   3.621  0.2685  0.6535  0.4394
   44MOL   H28921015   1.663   0.295   3.632  0.8619 -0.3934  0.0828
   44MOL   O29021016   1.768   0.109   3.780  0.0850 -0.0450  0.4667
   44MOL   C29121017   1.824   0.000   3.852 -0.3888  0.2498  0.6547
   44MOL   C29221018   1.828   0.005   4.007  0.2413 -0.3187  0.1162
   44MOL   C29321019   1.849   0.148   4.065 -0.6693  0.1127  0.1171
   44MOL   C29421020   1.826   0.154   4.220  0.3074 -0.5790 -0.3062
   44MOL   O29521021   1.846   0.290   4.285  0.1548 -1.1453  0.1816
   44MOL   C29621022   1.863   0.308   4.414  0.4006  0.0080  0.8361
   44MOL   O29721023   1.848   0.222   4.503  0.1075 -0.1196  0.2278
   44MOL   C29821024   1.897   0.455   4.459 -0.1612 -0.3543  1.1275
   44MOL   C29921025   1.812   0.558   4.380  0.5520  0.2977 -1.0781
   44MOL   C30021026   1.773   0.688   4.463 -0.3888  0.1360 -0.1393
   44MOL   O30121027   1.798   0.705   4.580 -0.2474  0.1285 -0.2206
   44MOL   H30221028   1.778   7.785   3.811 -1.5540  0.9805  0.3445
   44MOL   H30321029   1.928   7.868   3.819 -0.0450 -1.3267  2.0080
   44MOL   H30421030   1.901   7.803   4.034  0.7060  0.2592  0.5102
   44MOL   H30521031   1.729   7.842   4.033 -0.0892 -0.0834 -0.7975
   44MOL   H30621032   1.781   0.216   4.014 -2.6292 -2.0036 -0.2120
   44MOL   H30721033   1.949   0.184   4.043 -1.4181  1.6066 -0.8979
   44MOL   H30821034   1.726   0.110   4.222 -1.2288  2.7487  0.3959
   44MOL   H30921035   1.888   0.081   4.272 -2.3557 -2.1290  0.8192
   44MOL   H31021036   2.003   0.478   4.468  0.0948 -0.8540 -0.4846
   44MOL   H31121037   1.868   0.456   4.564  1.4106 -0.9734  1.5744
   44MOL   H31221038   1.856   0.574   4.282 -0.4737 -0.1033 -1.6171
   44MOL   H31321039   1.712   0.520   4.359  0.4986 -0.8108  1.0836
   44MOL   O31421040   1.703   0.779   4.376  0.2571 -0.0596 -0.2225
   44MOL   C31521041   1.649   0.891   4.444  0.5486 -0.3441 -0.4377
   44MOL   C31621042   1.558   0.968   4.354 -0.6719  0.3824 -0.1767
   44MOL   C31721043   1.535   1.107   4.404 -0.1720 -0.3499 -0.0838
   44MOL   C31821044   1.404   1.161   4.354 -0.2546  0.9865  0.9394
   44MOL   O31921045   1.386   1.298   4.393  0.2903  0.0690 -0.5814
   44MOL   C32021046   1.330   1.328   4.512 -1.1505  0.5454  0.0711
   44MOL   O32121047   1.284   1.251   4.593  0.1029  0.1969  0.6650
   44MOL   C32221048   1.346   1.478   4.536  0.0394 -0.5209 -0.1298
   44MOL   C32321049   1.491   1.536   4.542 -0.5748 -0.2447  0.0374
   44MOL   C32421050   1.527   1.603   4.410  0.0839  0.2500  0.5941
   44MOL   O32521051   1.447   1.667   4.343  0.0177 -0.3879  0.6747
   44MOL   H32621052   1.591   0.859   4.531  2.4860 -2.0827  0.2577
   44MOL   H32721053   1.733   0.955   4.471  2.9617 -2.9624 -1.5087
   44MOL   H32821054   1.468   0.907   4.354 -0.7342  0.4568  2.0731
   44MOL   H32921055   1.611   0.974   4.258  1.3075  2.3677  0.9804
   44MOL   H33021056   1.620   1.167   4.373 -1.0107 -0.4246 -2.6780
   44MOL   H33121057   1.523   1.117   4.512 -3.8632  0.3175 -0.4734
   44MOL   H33221058   1.410   1.161   4.245  2.0492 -0.3710  1.0360
   44MOL   H33321059   1.315   1.103   4.379 -0.7948  0.5198 -1.8157
   44MOL   H33421060   1.302   1.506   4.632  1.7552 -0.7571  0.7462
   44MOL   H33521061   1.281   1.519   4.459 -1.1498  0.4319  1.3255
   44MOL   H33621062   1.501   1.607   4.624  1.3867 -0.0619 -0.3410
   44MOL   H33721063   1.550   1.450   4.574 -0.7384 -0.4280 -0.1495
   44MOL   O33821064   1.652   1.576   4.379  0.0789 -0.3025  0.0569
   44MOL   C33921065   1.706   1.658   4.267 -0.7067  0.0298  0.1390
   44MOL   C34021066   1.858   1.685   4.296  0.9617  0.2262 -0.1234
   44MOL   C34121067   1.918   1.773   4.183  0.4465 -0.1728 -0.5641
   44MOL   C34221068   2.071   1.785   4.193 -0.2250  0.0659 -0.8746
   44MOL   O34321069   2.117   1.887   4.100  0.5994  0.0349  0.4170
   44MOL   C34421070   2.244   1.878   4.055  0.4440 -0.0617 -0.3712
   44MOL   O34521071   2.329   1.792   4.090  0.2906  0.5781 -0.3804
   44MOL   C34621072   2.281   1.982   3.953  0.2283  0.1268  0.2313
   44MOL   C34721073   2.281   2.115   4.029 -0.5371 -0.0469 -0.4363
   44MOL   C34821074   2.431   2.155   4.040  0.4783 -0.3420  0.7145
   44MOL   O34921075   2.479   2.228   3.952  0.2680  0.1054 -0.2610
   44MOL   H35021076   1.695   1.602   4.174  1.2880  0.5088 -0.4068
   44MOL   H35121077   1.656   1.754   4.253 -0.6477 -0.0025 -0.2947
   44MOL   H35221078   1.915   1.592   4.301 -0.0637 -0.3570  0.9319
   44MOL   H35321079   1.877   1.741   4.387  0.5764  0.9108 -0.4534
   44MOL   H35421080   1.875   1.873   4.182  2.0413  0.5284 -1.5361
   44MOL   H35521081   1.900   1.724   4.087  0.3562 -1.7611  0.2313
   44MOL   H35621082   2.102   1.807   4.295  1.4386  1.6941 -1.7081
   44MOL   H35721083   2.109   1.684   4.175  1.3631  0.8140 -1.8246
   44MOL   H35821084   2.203   2.000   3.878  0.2384 -2.5420 -0.4749
   44MOL   H35921085   2.363   1.959   3.885  0.1759 -0.0134  0.2143
   44MOL   H36021086   2.223   2.195   3.984 -1.8814 -0.8268 -0.1241
   44MOL   H36121087   2.235   2.115   4.128 -0.3533  0.4926 -0.3507
   44MOL   O36221088   2.495   2.101   4.140  0.3518  0.5803  0.1766
   44MOL   C36321089   2.636   2.118   4.146  0.2821  0.7413 -0.0841
   44MOL   C36421090   2.672   2.121   4.298 -0.0414 -0.1047  0.8398
   44MOL   C36521091   2.655   2.261   4.362  0.1073 -0.1885 -0.0586
   44MOL   C36621092   2.722   2.295   4.499 -0.4171 -0.1641 -0.2096
   44MOL   O36721093   2.690   2.414   4.558  0.0247 -0.1598  0.0783
   44MOL   C36821094   2.783   2.489   4.617 -0.3173  0.1977  0.9399
   44MOL   O36921095   2.907   2.466   4.611  0.1541 -0.0182 -0.3954
   44MOL   C37021096   2.725   2.609   4.673 -0.0339 -0.0167  0.2828
   44MOL   C37121097   2.802   2.656   4.798  0.0233  0.0704  0.4005
   44MOL   C37221098   2.752   2.605   4.932  0.0976 -0.3611 -0.5455
   44MOL   O37321099   2.637   2.568   4.946  0.0845  0.2836  0.3668
   44MOL   H37421100   2.678   2.032   4.092 -0.2888  1.3606 -1.5458
   44MOL   H37521101   2.677   2.200   4.087  1.0362 -0.4372 -1.2430
   44MOL   H37621102   2.774   2.085   4.313  0.0955  0.1226  0.4799
   44MOL   H37721103   2.605   2.048   4.343  0.2191 -1.7495 -1.3288
   44MOL   H37821104   2.551   2.289   4.381  0.7413  1.1825  1.5286
   44MOL   H37921105   2.695   2.333   4.291  1.4423  1.0021  1.8603
   44MOL   H38021106   2.685   2.216   4.564 -0.0002  0.2113  0.4951
   44MOL   H38121107   2.829   2.276   4.493 -0.3638  0.3147 -0.8441
   44MOL   H38221108   2.625   2.587   4.712 -0.7421  3.1415  0.3652
   44MOL   H38321109   2.711   2.686   4.596  0.9360 -0.1397 -0.0216
   44MOL   H38421110   2.909   2.636   4.791 -0.6938 -3.0123 -3.4185
   44MOL   H38521111   2.787   2.763   4.814  3.2048  0.2406  2.9388
   44MOL   O38621112   2.845   2.624   5.030 -0.6248  0.5168 -0.0138
   44MOL   C38721113   2.817   2.593   5.168 -0.5493  0.5898 -0.5106
   44MOL   C38821114   2.922   2.683   5.236  0.1169 -0.4385  0.3372
   44MOL   C38921115   2.868   2.824   5.254 -0.2853  0.4390 -0.4403
   44MOL   C39021116   2.958   2.907   5.352 -0.1075 -0.3818  0.7497
   44MOL   O39121117   3.094   2.873   5.335  0.4446 -0.9830  0.4311
   44MOL   C39221118   3.176   2.969   5.285 -0.6648  0.1791  0.4238
   44MOL   O39321119   3.136   3.076   5.252 -0.0674  0.1925 -0.4050
   44MOL   C39421120   3.320   2.920   5.264 -0.6384 -0.0601  0.0276
   44MOL   C39521121   3.382   2.838   5.377 -0.2288 -0.1683 -0.0689
   44MOL   C39621122   3.349   2.689   5.367 -0.4807 -0.3797 -1.1895
   44MOL   O39721123   3.279   2.632   5.450 -0.0847  0.2900  0.0040
   44MOL   H39821124   2.715   2.614   5.201 -0.6583  0.2951 -0.6541
   44MOL   H39921125   2.839   2.490   5.198 -0.7712  0.7893  0.3463
   44MOL   H40021126   3.022   2.668   5.196  0.5104 -2.4017  1.9642
   44MOL   H40121127   2.927   2.647   5.339 -2.6405 -0.4225  0.5146
   44MOL   H40221128   2.767   2.832   5.292 -0.0476  0.8231  0.1149
   44MOL   H40321129   2.865   2.874   5.157 -1.1792  1.8213  0.2833
   44MOL   H40421130   2.942   3.015   5.342  0.3292 -0.3686  0.1338
   44MOL   H40521131   2.927   2.874   5.451 -0.3706 -0.5298  0.6198
   44MOL   H40621132   3.386   3.001   5.233  0.3258  0.0980  2.3980
   44MOL   H40721133   3.314   2.853   5.179 -0.2443 -1.6030  1.1938
   44MOL   H40821134   3.490   2.852   5.383 -0.4624  2.5860 -1.3839
   44MOL   H40921135   3.344   2.871   5.474 -0.6203 -3.7288  1.0547
   44MOL   O41021136   3.392   2.636   5.251  0.1779 -0.4499  0.1927
   44MOL   C41121137   3.372   2.500   5.218 -0.4694  0.2441 -0.5384
   44MOL   C41221138   3.487   2.416   5.269 -0.5989 -0.6031 -0.5257
   44MOL   C41321139   3.495   2.279   5.204  0.3676  0.3283  0.6689
   44MOL   C41421140   3.518   2.278   5.048  0.3757 -0.0181 -0.3890
   44MOL   O41521141   3.552   2.153   4.993  0.8347  0.2471 -0.2925
   44MOL   C41621142   3.457   2.065   4.964 -0.1373 -0.2534 -0.3277
   44MOL   O41721143   3.334   2.085   4.979 -0.5342  0.6463 -0.5718
   44MOL   C41821144   3.516   1.939   4.901  0.6407 -0.4496  0.1323
   44MOL   C41921145   3.411   1.867   4.822 -0.1775  0.2499 -0.3712
   44MOL   C42021146   3.339   1.738   4.877 -0.1778  0.6509 -0.3654
   44MOL   O42121147   3.350   1.627   4.818  0.5945  0.3139  0.2339
   44MOL   H42221148   3.276   2.468   5.259  0.9917 -0.4322  2.5036
   44MOL   H42321149   3.356   2.481   5.112 -1.5233  1.0906 -0.5413
   44MOL   H42421150   3.480   2.419   5.378 -0.0151 -0.2389 -0.4925
   44MOL   H42521151   3.575   2.478   5.248 -0.9469 -0.0292 -0.2949
   44MOL   H42621152   3.400   2.230   5.222 -0.5964  1.2184 -1.7651
   44MOL   H42721153   3.561   2.202   5.244 -0.8466 -2.1381 -1.9270
   44MOL   H42821154   3.428   2.314   4.998 -0.6633 -1.7682  0.1734
   44MOL   H42921155   3.598   2.344   5.013 -1.1205  1.4519 -1.0822
   44MOL   H43021156   3.546   1.864   4.974  1.9240 -1.6742 -1.6048
   44MOL   H43121157   3.603   1.958   4.838 -1.2969  2.0097 -1.9230
   44MOL   H43221158   3.344   1.942   4.780  0.6768  0.4684 -1.3626
   44MOL   H43321159   3.452   1.820   4.733  1.8447 -0.1050  0.7105
   44MOL   O43421160   3.274   1.759   4.993 -0.7474  0.0936 -0.0286
   44MOL   C43521161   3.194   1.646   5.039  0.6055 -0.1428 -0.2092
   44MOL   C43621162   3.092   1.679   5.153 -0.6843  0.2066  0.2215
   44MOL   C43721163   2.985   1.782   5.105  0.4362  0.1908  0.0944
   44MOL   C43821164   2.881   1.818   5.214 -0.0473  0.5346 -0.5208
   44MOL   O43921165   2.941   1.869   5.329  0.1735  0.3503 -0.3622
   44MOL   C44021166   2.860   1.916   5.414  0.2072 -0.3164 -0.7294
   44MOL   O44121167   2.732   1.926   5.404 -0.4302 -0.0791 -0.5992
   44MOL   C44221168   2.928   1.986   5.531  0.4554  0.3340  0.8272
   44MOL   C44321169   2.941   1.894   5.658  0.3550  0.8147  0.6414
   44MOL   C44421170   2.850   1.929   5.768  0.5699 -0.4574  0.2452
   44MOL   O44521171   2.896   1.966   5.873 -0.1404  0.3323  0.5000
   44MOL   H44621172   3.140   1.593   4.960 -0.5222  1.7511 -0.7589
   44MOL   H44721173   3.269   1.579   5.079  0.6720 -0.1178 -0.2911
   44MOL   H44821174   3.149   1.720   5.236  0.5821 -2.1091  0.5379
   44MOL   H44921175   3.038   1.590   5.184 -0.8420 -0.1034 -0.8898
   44MOL   H45021176   2.929   1.728   5.029  1.1913 -2.3832  1.2911
   44MOL   H45121177   3.040   1.868   5.067  0.7783 -0.7161 -1.4972
   44MOL   H45221178   2.801   1.886   5.183  0.6382  1.3771 -0.4665
   44MOL   H45321179   2.841   1.726   5.256 -0.2732 -0.2005 -2.2893
   44MOL   H45421180   2.869   2.077   5.540 -0.7579  0.0315 -3.1849
   44MOL   H45521181   3.030   2.011   5.502  0.3196 -1.0699 -0.9670
   44MOL   H45621182   2.906   1.794   5.633  0.7490  1.6801 -3.8582
   44MOL   H45721183   3.046   1.887   5.686  1.0058  2.2647 -1.2932
   44MOL   O45821184   2.718   1.919   5.740 -0.2682  0.3840 -0.6245
   44MOL   C45921185   2.620   1.967   5.837  0.5916  0.2852 -0.1220
   44MOL   C46021186   2.477   1.945   5.792 -0.1137  0.1496 -0.0991
   44MOL   C46121187   2.371   2.006   5.883  0.6265 -0.7019  0.3047
   44MOL   C46221188   2.228   2.001   5.835 -0.4690 -0.3655  0.6203
   44MOL   O46321189   2.220   2.058   5.699 -0.4604 -0.4231  0.1473
   44MOL   C46421190   2.108   2.046   5.631 -0.7281  0.4335 -0.0989
   44MOL   O46521191   2.004   1.989   5.675  0.4353 -0.1652  0.0870
   44MOL   C46621192   2.116   2.102   5.488  0.5033 -0.1593  0.2303
   44MOL   C46721193   2.092   2.252   5.486  0.0425  0.1088 -0.1473
   44MOL   C46821194   2.135   2.312   5.359  0.8375  0.4344 -0.0673
   44MOL   O46921195   2.210   2.255   5.281  0.1021  0.2782  0.1148
   44MOL   H47021196   2.640   1.935   5.939  1.6924  0.6921 -0.2045
   44MOL   H47121197   2.643   2.073   5.849 -1.2298  0.6149  0.7410
   44MOL   H47221198   2.470   1.838   5.775 -1.5910  0.4786 -1.7834
   44MOL   H47321199   2.477   1.982   5.689  1.5067 -0.4108 -0.3036
   44MOL   H47421200   2.390   2.112   5.898  1.3239 -0.8295  0.3113
   44MOL   H47521201   2.385   1.979   5.987 -0.2402 -0.7117  0.4229
   44MOL   H47621202   2.186   1.901   5.843  0.3238 -0.6655  1.0905
   44MOL   H47721203   2.173   2.071   5.897 -0.3067 -0.1373  0.5098
   44MOL   H47821204   2.039   2.049   5.432 -1.3855  1.1059  1.5884
   44MOL   H47921205   2.212   2.064   5.454  0.2936  0.7693 -1.4332
   44MOL   H48021206   1.989   2.264   5.519  0.6194 -0.4051  1.9208
   44MOL   H48121207   2.165   2.298   5.553 -0.5110  0.9567 -0.1291
   44MOL   H48221208   2.087   2.407   5.335  0.7658  0.5267  0.4503
   45MOL     O121209   6.106   0.044   6.477 -0.3625  0.0107 -0.5928
   45MOL     C221210   6.090   7.782   6.448 -0.2231 -0.7956  1.3305
   45MOL     C321211   5.946   7.758   6.396 -1.2193  0.3547 -0.4208
   45MOL     C421212   5.943   7.798   6.248 -0.6159  0.5544 -0.3179
   45MOL     C521213   5.806   7.812   6.193 -0.1854 -0.8287 -0.5445
   45MOL     O621214   5.818   7.855   6.062 -0.4576 -0.3709  0.3007
   45MOL     C721215   5.738   0.082   6.016  0.5454  0.1604  0.3962
   45MOL     O821216   5.656   0.148   6.082 -0.0670  0.0576  0.3958
   45MOL     C921217   5.741   0.101   5.866 -0.0482  0.1640 -0.3602
   45MOL    C1021218   5.676   7.860   5.794  0.1697 -0.4108 -0.0613
   45MOL    C1121219   5.696   7.870   5.643  0.1884  0.1783  0.7622
   45MOL    O1221220   5.789   7.817   5.584  0.3317 -0.2607 -1.1639
   45MOL    H1321221   6.169   7.730   6.394  1.6014  0.6638  2.5310
   45MOL    H1421222   6.100   7.738   6.547  0.0965 -0.9469  1.2314
   45MOL    H1521223   5.870   7.802   6.461 -0.7879  2.1959 -1.1108
   45MOL    H1621224   5.929   7.651   6.400 -1.2704  0.3516 -0.6844
   45MOL    H1721225   5.990   7.721   6.188 -0.4632 -0.4540  1.0526
   45MOL    H1821226   6.002   0.015   6.243  2.1986 -1.0220  1.8732
   45MOL    H1921227   5.732   7.732   6.189 -0.8468 -0.1654 -1.9785
   45MOL    H2021228   5.762   0.020   6.250  2.4650  0.9100 -0.9448
   45MOL    H2121229   5.841   0.105   5.821  0.2383 -1.7784  0.0866
   45MOL    H2221230   5.693   0.194   5.836 -1.4881 -0.6859 -0.7331
   45MOL    H2321231   5.718   7.765   5.828 -4.3658 -2.6332 -0.3089
   45MOL    H2421232   5.569   7.866   5.816  0.1368  1.4286 -0.6675
   45MOL    H2521233   6.123   0.040   6.570  1.4468  1.3273 -0.8376
   45MOL    O2621234   5.607   0.076   5.588  0.0111  0.4336 -0.1573
   45MOL    C2721235   5.592   0.081   5.447  0.1848  0.2157  0.2599
   45MOL    C2821236   5.466   0.163   5.401 -0.4688  0.1420 -0.2599
   45MOL    C2921237   5.471   0.314   5.451  0.1964  1.1532 -0.5202
   45MOL    C3021238   5.340   0.385   5.415 -0.1630  0.1713  0.1810
   45MOL    O3121239   5.346   0.523   5.429  0.0101  0.1245  0.7679
   45MOL    C3221240   5.308   0.579   5.548  0.3691  0.1538 -0.1249
   45MOL    O3321241   5.265   0.511   5.651 -0.0407  0.2877 -0.7607
   45MOL    C3421242   5.327   0.731   5.552 -0.4452  0.5612 -0.5104
   45MOL    C3521243   5.201   0.795   5.594 -0.1793  0.3583 -0.1391
   45MOL    C3621244   5.237   0.945   5.613  0.6103  0.1642  0.2087
   45MOL    O3721245   5.343   0.985   5.671  0.4446  0.9554  0.5958
   45MOL    H3821246   5.685   0.125   5.413  0.1380  0.4086  0.3818
   45MOL    H3921247   5.595   7.854   5.407  0.1539  0.6892 -0.9650
   45MOL    H4021248   5.374   0.111   5.429  1.4744 -2.9282  0.6286
   45MOL    H4121249   5.457   0.174   5.293 -1.0710 -0.3347 -0.2609
   45MOL    H4221250   5.560   0.352   5.402  1.4371 -2.3372 -1.1301
   45MOL    H4321251   5.478   0.323   5.559  1.1841 -0.2087 -0.4611
   45MOL    H4421252   5.345   0.367   5.307  0.1886 -0.3321  0.2756
   45MOL    H4521253   5.251   0.339   5.457 -1.0374  0.2784 -1.5081
   45MOL    H4621254   5.361   0.773   5.457 -1.1360 -0.8230 -1.3868
   45MOL    H4721255   5.417   0.739   5.613 -0.3198 -1.3338 -0.4074
   45MOL    H4821256   5.132   0.791   5.510  0.6705  1.3508 -0.9074
   45MOL    H4921257   5.159   0.758   5.687  2.2675  2.5410  1.9457
   45MOL    O5021258   5.147   1.019   5.555 -0.3598 -0.3476  0.2755
   45MOL    C5121259   5.153   1.165   5.563 -0.0428 -0.0367 -0.3415
   45MOL    C5221260   5.135   1.234   5.426  0.1624  0.4335 -0.7092
   45MOL    C5321261   5.243   1.206   5.313  0.2935 -0.5006 -0.9299
   45MOL    C5421262   5.192   1.249   5.179 -0.3033 -0.9131 -0.5485
   45MOL    O5521263   5.122   1.132   5.127  0.3182  0.5386  0.3554
   45MOL    C5621264   5.066   1.154   5.011  0.0480  0.0290 -0.3698
   45MOL    O5721265   5.095   1.241   4.932 -0.6168  0.2206  0.1091
   45MOL    C5821266   4.974   1.039   4.970 -0.4944 -0.9466 -0.5013
   45MOL    C5921267   4.882   1.087   4.854 -0.0300 -0.4528  0.5040
   45MOL    C6021268   4.738   1.106   4.892  0.1348 -0.0608 -0.2259
   45MOL    O6121269   4.700   1.060   4.997  0.3768 -0.2751 -0.5123
   45MOL    H6221270   5.083   1.208   5.634  0.8387  0.3847  0.2912
   45MOL    H6321271   5.251   1.195   5.601 -0.9082 -0.9250  2.7257
   45MOL    H6421272   5.122   1.341   5.436 -1.5233  0.4081 -2.2882
   45MOL    H6521273   5.036   1.203   5.390 -1.3226  0.3158  3.2725
   45MOL    H6621274   5.244   1.098   5.325 -1.9018 -0.2769  1.6397
   45MOL    H6721275   5.338   1.250   5.341 -0.6761  0.0736  1.5818
   45MOL    H6821276   5.127   1.336   5.187 -0.6533 -1.1538 -0.7513
   45MOL    H6921277   5.271   1.276   5.110  0.5630  2.2335  1.5738
   45MOL    H7021278   4.924   0.986   5.051 -0.5521 -0.0169  0.0745
   45MOL    H7121279   5.046   0.970   4.926 -1.8908 -0.7067 -3.2291
   45MOL    H7221280   4.915   1.176   4.802 -0.7562  0.2838  1.2873
   45MOL    H7321281   4.881   1.009   4.778 -0.3944  1.0279 -1.0100
   45MOL    O7421282   4.674   1.184   4.804  0.2410 -0.3779  0.3603
   45MOL    C7521283   4.551   1.235   4.836  0.8508  0.5560 -0.3781
   45MOL    C7621284   4.434   1.172   4.755  0.7308 -0.3752 -1.0301
   45MOL    C7721285   4.409   1.027   4.773 -0.3279 -0.3439 -0.8341
   45MOL    C7821286   4.367   0.988   4.919  0.4613  0.0900 -0.5897
   45MOL    O7921287   4.294   0.872   4.905 -0.3027 -0.2442  0.6660
   45MOL    C8021288   4.302   0.772   4.997  0.4277  0.1708  0.7891
   45MOL    O8121289   4.383   0.775   5.093 -0.1254 -0.0273 -0.0907
   45MOL    C8221290   4.212   0.655   4.960 -0.1316  0.3268  0.2378
   45MOL    C8321291   4.072   0.687   4.973  0.6208 -0.0369  0.0886
   45MOL    C8421292   3.989   0.627   4.854  0.4252 -0.5568  0.5243
   45MOL    O8521293   3.869   0.605   4.868 -0.5480  0.2379 -0.1763
   45MOL    H8621294   4.526   1.216   4.940 -0.8276  0.7020 -0.7322
   45MOL    H8721295   4.544   1.342   4.816 -1.1120  0.3399 -1.0427
   45MOL    H8821296   4.444   1.188   4.648 -0.7572 -1.9268 -1.4227
   45MOL    H8921297   4.344   1.233   4.766  0.1430 -1.3442 -0.4686
   45MOL    H9021298   4.500   0.974   4.745 -0.3601 -1.9857  2.0001
   45MOL    H9121299   4.332   0.993   4.703 -1.0412  1.4907 -0.9741
   45MOL    H9221300   4.449   0.971   4.989 -0.1210  0.3285  0.1579
   45MOL    H9321301   4.307   1.065   4.966  0.5606 -0.4167  0.3720
   45MOL    H9421302   4.239   0.580   5.034  0.8883 -1.2982 -1.7339
   45MOL    H9521303   4.247   0.601   4.872 -1.2872 -2.2446  1.2839
   45MOL    H9621304   4.032   0.631   5.058 -0.0922 -0.6500 -0.6522
   45MOL    H9721305   4.037   0.790   4.987  0.7189  0.5099 -3.3006
   45MOL    O9821306   4.054   0.644   4.735  0.2446 -0.5180  0.2237
   45MOL    C9921307   4.010   0.610   4.606 -0.1903  0.3787 -0.0224
   45MOL   C10021308   4.082   0.679   4.499 -0.1309  0.2475 -0.7192
   45MOL   C10121309   4.232   0.643   4.483 -0.8148  0.0361 -0.0337
   45MOL   C10221310   4.329   0.689   4.590 -0.0108  0.0616  0.0726
   45MOL   O10321311   4.451   0.709   4.532 -0.1208  0.4610 -0.0221
   45MOL   C10421312   4.540   0.616   4.556  0.3977  0.0930  0.3767
   45MOL   O10521313   4.518   0.503   4.607  0.1756 -0.3939  0.3978
   45MOL   C10621314   4.683   0.656   4.515 -0.5523  1.2851  0.0803
   45MOL   C10721315   4.718   0.778   4.598 -0.4100  0.2592  0.6974
   45MOL   C10821316   4.755   0.732   4.735 -0.4022 -0.1371 -0.0082
   45MOL   O10921317   4.874   0.703   4.765 -0.2819 -0.3816 -0.5345
   45MOL   H11021318   4.004   0.503   4.589 -0.1450  0.2147  0.9625
   45MOL   H11121319   3.907   0.647   4.602 -0.1011  1.1447  3.2726
   45MOL   H11221320   4.067   0.785   4.523  0.0246  0.5766 -2.0483
   45MOL   H11321321   4.029   0.654   4.407 -0.8175  2.2687 -0.8940
   45MOL   H11421322   4.272   0.681   4.389  1.5237 -1.2297  0.4126
   45MOL   H11521323   4.235   0.534   4.478  1.2152  0.0557  0.2272
   45MOL   H11621324   4.298   0.790   4.617 -2.2232 -0.6882  0.4870
   45MOL   H11721325   4.330   0.635   4.685  2.5318 -0.0433  0.0163
   45MOL   H11821326   4.679   0.671   4.407 -2.2831  1.4599  0.1473
   45MOL   H11921327   4.758   0.578   4.525 -3.1354 -1.2438  0.3306
   45MOL   H12021328   4.809   0.816   4.551 -1.6849  1.0666 -1.1618
   45MOL   H12121329   4.642   0.855   4.588 -3.7351 -2.9415 -0.0073
   45MOL   O12221330   4.654   0.738   4.825  0.1558 -0.6876  0.3211
   45MOL   C12321331   4.679   0.720   4.964 -0.2206 -0.1250  0.9033
   45MOL   C12421332   4.652   0.579   5.006 -0.3915  0.0388 -0.3245
   45MOL   C12521333   4.679   0.559   5.158  0.8063 -0.3270  0.0234
   45MOL   C12621334   4.671   0.404   5.182  0.5336  0.5615 -0.4794
   45MOL   O12721335   4.697   0.374   5.321  0.4178 -0.2151  0.6863
   45MOL   C12821336   4.658   0.257   5.377 -0.6185  0.0848  0.2600
   45MOL   O12921337   4.601   0.173   5.312  0.5343 -0.0482 -0.3703
   45MOL   C13021338   4.707   0.254   5.522  0.2382 -0.5103  0.2813
   45MOL   C13121339   4.860   0.231   5.515  0.5252 -0.4606 -0.0389
   45MOL   C13221340   4.924   0.352   5.580 -0.2830 -0.0512  0.2062
   45MOL   O13321341   4.965   0.445   5.511 -0.5397  0.2481 -0.0539
   45MOL   H13421342   4.781   0.748   4.990 -0.4140  2.7207 -1.1552
   45MOL   H13521343   4.612   0.786   5.020 -1.4899 -0.2018 -0.4901
   45MOL   H13621344   4.714   0.523   4.937 -2.7787  0.4102 -2.8706
   45MOL   H13721345   4.550   0.546   4.988 -0.6522  0.7757 -0.2503
   45MOL   H13821346   4.605   0.607   5.222  0.7310  0.2538 -0.4882
   45MOL   H13921347   4.780   0.591   5.185 -0.0044  0.9530  1.6163
   45MOL   H14021348   4.568   0.367   5.176  0.3429  0.1432  3.5650
   45MOL   H14121349   4.730   0.351   5.108  1.3919 -0.9042  1.2385
   45MOL   H14221350   4.651   0.175   5.572 -0.3396  0.2893  0.9192
   45MOL   H14321351   4.679   0.347   5.571  0.0918 -0.1362 -0.5031
   45MOL   H14421352   4.894   0.144   5.570  0.8966 -0.7319 -0.6917
   45MOL   H14521353   4.895   0.229   5.412 -0.3260  0.2099 -0.3506
   45MOL   O14621354   4.936   0.335   5.712  0.3323 -0.5347 -0.0660
   45MOL   C14721355   4.969   0.440   5.805  0.9246  0.3882  0.3020
   45MOL   C14821356   4.863   0.456   5.920 -0.0212  0.3693  0.2931
   45MOL   C14921357   4.908   0.566   6.024  0.4176  0.5176 -0.2289
   45MOL   C15021358   4.796   0.625   6.123 -0.9514 -0.2284  0.1796
   45MOL   O15121359   4.742   0.513   6.190 -0.2075  0.5668 -0.3111
   45MOL   C15221360   4.652   0.538   6.291 -0.0597  0.3067 -0.1956
   45MOL   O15321361   4.589   0.638   6.309  0.9339  0.0808 -0.4363
   45MOL   C15421362   4.644   0.427   6.388 -0.2913  0.2359  0.7508
   45MOL   C15521363   4.544   0.305   6.374  0.1008 -0.7632 -0.1904
   45MOL   C15621364   4.612   0.177   6.346  0.1520 -0.2072  0.3224
   45MOL   O15721365   4.719   0.136   6.395 -0.0471 -0.3435 -0.4107
   45MOL   H15821366   5.064   0.427   5.856  1.6108 -0.7845 -1.2289
   45MOL   H15921367   4.976   0.542   5.767  1.5902 -0.1233 -0.9766
   45MOL   H16021368   4.837   0.359   5.961 -0.3448  0.4571  0.3018
   45MOL   H16121369   4.771   0.495   5.875 -1.8356 -0.5477  3.0571
   45MOL   H16221370   4.959   0.646   5.971  1.8467  1.0844  1.9316
   45MOL   H16321371   4.985   0.529   6.092  1.2603 -1.0893 -2.0141
   45MOL   H16421372   4.841   0.697   6.193  0.9277  0.1871 -1.4063
   45MOL   H16521373   4.717   0.670   6.063 -1.1861 -0.7488  0.1009
   45MOL   H16621374   4.625   0.478   6.483  1.5692  1.1539  0.6440
   45MOL   H16721375   4.744   0.387   6.398 -0.3799 -0.6293 -1.5534
   45MOL   H16821376   4.492   0.293   6.469 -0.1135 -0.6366 -0.2895
   45MOL   H16921377   4.470   0.318   6.294 -1.0861  0.6954  1.1087
   45MOL   O17021378   4.542   0.110   6.255 -0.7018 -0.2744  0.2701
   45MOL   C17121379   4.582   7.853   6.223  0.0993  0.3173 -0.4280
   45MOL   C17221380   4.471   7.788   6.143  0.5144  0.1622 -0.6623
   45MOL   C17321381   4.438   7.857   6.015  0.5134 -0.1071  0.6718
   45MOL   C17421382   4.337   7.779   5.923 -0.6408 -0.4426  0.1282
   45MOL   O17521383   4.287   7.864   5.816 -0.0194 -0.8097  0.2446
   45MOL   C17621384   4.335   7.852   5.692  0.1284  1.0950 -0.0079
   45MOL   O17721385   4.423   7.770   5.656  0.0580 -0.5512 -0.5152
   45MOL   C17821386   4.271   0.079   5.602 -0.0799  0.0245 -0.0910
   45MOL   C17921387   4.301   0.046   5.458 -0.0322  0.6374 -0.8917
   45MOL   C18021388   4.226   0.126   5.362  0.4217 -0.3922  0.1643
   45MOL   O18121389   4.256   0.244   5.341  0.1324  0.1885 -0.4650
   45MOL   H18221390   4.672   7.848   6.161 -1.0551  0.5222 -2.1440
   45MOL   H18321391   4.603   7.801   6.317 -3.3482  1.7395  1.2149
   45MOL   H18421392   4.380   7.772   6.202 -0.7358  1.6832 -2.1537
   45MOL   H18521393   4.491   7.685   6.113 -1.0623 -0.9087  1.7151
   45MOL   H18621394   4.526   0.014   5.959  0.2514 -0.4428  0.0596
   45MOL   H18721395   4.390   0.073   6.052 -0.0632  0.9307 -2.4927
   45MOL   H18821396   4.388   7.692   5.881  2.4493  1.2897  0.0984
   45MOL   H18921397   4.254   7.740   5.982  0.3589  0.2818  2.0538
   45MOL   H19021398   4.306   0.179   5.629 -0.3768  0.3108 -0.7410
   45MOL   H19121399   4.164   0.075   5.624 -0.4243 -1.6602 -1.9202
   45MOL   H19221400   4.405   0.071   5.437  0.5055 -0.2277  0.5995
   45MOL   H19321401   4.279   7.815   5.443  0.6221  0.1079  1.5261
   45MOL   O19421402   4.131   0.062   5.288 -0.9617 -0.5325  1.1676
   45MOL   C19521403   4.080   0.115   5.169  0.1231 -0.3102  0.4945
   45MOL   C19621404   4.146   0.048   5.047  0.3374  0.5926 -0.3206
   45MOL   C19721405   4.287   0.089   5.014 -0.8861 -0.3751 -0.1805
   45MOL   C19821406   4.292   0.236   4.982 -0.0265  0.5935  0.2399
   45MOL   O19921407   4.236   0.270   4.855 -0.0722  0.3526  0.3938
   45MOL   C20021408   4.292   0.233   4.736  0.7236 -0.0771  0.3581
   45MOL   O20121409   4.405   0.181   4.722 -0.6259  0.7652  0.4182
   45MOL   C20221410   4.194   0.261   4.623  0.5848  0.4455  0.1473
   45MOL   C20321411   4.249   0.222   4.482 -0.1315  0.2927  0.3714
   45MOL   C20421412   4.136   0.223   4.383 -0.4534 -0.9386 -0.4422
   45MOL   O20521413   4.106   0.129   4.309 -0.4294 -0.1153 -0.0358
   45MOL   H20621414   3.979   0.074   5.159 -0.2714  0.5048  1.0486
   45MOL   H20721415   4.075   0.224   5.158 -3.6067 -0.1110  3.2366
   45MOL   H20821416   4.072   0.053   4.967  0.8835 -1.1171 -0.9448
   45MOL   H20921417   4.149   7.819   5.079 -3.3879  1.1543  2.2230
   45MOL   H21021418   4.312   0.020   4.934 -0.5581 -0.0054 -0.4009
   45MOL   H21121419   4.355   0.069   5.097 -2.6140 -1.0268  1.1261
   45MOL   H21221420   4.238   0.296   5.056  0.2881  1.3834 -0.1560
   45MOL   H21321421   4.394   0.270   4.997 -0.6053  1.8426  1.5724
   45MOL   H21421422   4.173   0.366   4.643 -1.4729 -0.0629  0.7286
   45MOL   H21521423   4.096   0.216   4.636  0.4084  1.0426  0.9271
   45MOL   H21621424   4.328   0.285   4.441  1.4826 -1.0410  1.3729
   45MOL   H21721425   4.293   0.123   4.482 -1.1149 -0.1540  1.2290
   45MOL   O21821426   4.069   0.337   4.392 -0.0667  0.3300  0.2712
   45MOL   C21921427   3.942   0.350   4.323 -0.7750  0.1358 -0.5272
   45MOL   C22021428   3.944   0.364   4.166 -0.2636  0.1018  0.7371
   45MOL   C22121429   4.027   0.482   4.133 -0.1366 -0.4871  0.4291
   45MOL   C22221430   4.047   0.492   3.982  0.1468 -0.1688 -0.5416
   45MOL   O22321431   3.922   0.523   3.925 -0.2855  0.4192 -0.5590
   45MOL   C22421432   3.908   0.488   3.802  0.4488  0.3813  0.4962
   45MOL   O22521433   4.000   0.452   3.738  0.1313 -0.7343  0.0122
   45MOL   C22621434   3.771   0.523   3.731  0.1138  0.6833 -0.5280
   45MOL   C22721435   3.793   0.576   3.585 -0.1298  0.0519  0.3123
   45MOL   C22821436   3.800   0.724   3.574 -0.2762  1.2402 -0.0066
   45MOL   O22921437   3.782   0.805   3.666 -0.1898 -0.2180  0.6078
   45MOL   H23021438   3.882   0.265   4.355  1.4304 -1.0530  0.5275
   45MOL   H23121439   3.887   0.438   4.357 -0.2685  0.3647 -0.2910
   45MOL   H23221440   3.847   0.356   4.117 -1.6527  1.0573  3.2577
   45MOL   H23321441   3.977   0.265   4.135 -1.0669 -0.1455  0.6429
   45MOL   H23421442   4.128   0.467   4.171 -0.1413 -2.0555 -0.1015
   45MOL   H23521443   3.986   0.569   4.184 -1.0056 -0.1320 -0.8557
   45MOL   H23621444   4.123   0.568   3.967  0.6233 -0.8343 -1.5068
   45MOL   H23721445   4.085   0.397   3.945 -0.2193 -0.5189 -0.0346
   45MOL   H23821446   3.700   0.582   3.789  2.0991 -0.2350  2.9864
   45MOL   H23921447   3.719   0.428   3.732  1.5667 -0.1353 -0.7292
   45MOL   H24021448   3.888   0.540   3.548 -0.2326 -0.1685  0.2620
   45MOL   H24121449   3.713   0.536   3.522  0.4219  0.0516 -0.3949
   45MOL   O24221450   3.810   0.763   3.449  0.9614 -0.0357 -0.2630
   45MOL   C24321451   3.802   0.894   3.408 -0.4097 -0.3603  0.0516
   45MOL   C24421452   3.661   0.941   3.413 -0.5122  0.3516  0.4709
   45MOL   C24521453   3.645   1.091   3.392  0.1613  0.4535  0.2030
   45MOL   C24621454   3.491   1.132   3.400  0.8683 -0.7566 -0.2837
   45MOL   O24721455   3.437   1.102   3.529 -0.2906  0.2634 -0.2178
   45MOL   C24821456   3.441   1.193   3.627  0.2035  0.6229 -0.3421
   45MOL   O24921457   3.475   1.309   3.600  0.4101 -0.0376 -0.4899
   45MOL   C25021458   3.418   1.138   3.768  0.2081 -0.0222 -0.2858
   45MOL   C25121459   3.543   1.079   3.819  0.1861  0.4570  0.3243
   45MOL   C25221460   3.522   1.032   3.967  0.1356  0.3369  0.0607
   45MOL   O25321461   3.449   1.092   4.046 -0.1617 -0.1151 -0.2786
   45MOL   H25421462   3.878   0.948   3.464  0.5521  1.2184 -2.6672
   45MOL   H25521463   3.829   0.896   3.302  0.0543  2.1433  0.1883
   45MOL   H25621464   3.622   0.907   3.509 -0.1326 -0.9503  0.1780
   45MOL   H25721465   3.602   0.887   3.339  1.4419  2.2631 -2.5878
   45MOL   H25821466   3.679   1.115   3.291  0.7677  0.3967  0.3893
   45MOL   H25921467   3.714   1.136   3.464 -1.0573  1.5583  0.7069
   45MOL   H26021468   3.479   1.239   3.379 -0.3680 -0.2984  2.5479
   45MOL   H26121469   3.435   1.064   3.335  0.3797  0.5026 -1.2060
   45MOL   H26221470   3.347   1.056   3.754 -0.7767  0.8882 -0.7444
   45MOL   H26321471   3.366   1.201   3.840  1.6162  0.2413  0.5128
   45MOL   H26421472   3.571   0.982   3.777  0.7500  0.2838  1.0855
   45MOL   H26521473   3.626   1.149   3.808  0.0946  0.5068 -0.0538
   45MOL   O26621474   3.604   0.925   4.010 -0.4645  0.0677  1.1245
   45MOL   C26721475   3.604   0.873   4.144  0.4487  0.6128  1.3640
   45MOL   C26821476   3.536   0.738   4.145  0.3584  0.8481 -0.1917
   45MOL   C26921477   3.609   0.644   4.055  0.2520  0.6945 -0.1695
   45MOL   C27021478   3.562   0.499   4.074 -0.5860  0.2667 -0.1092
   45MOL   O27121479   3.426   0.491   4.032 -0.0596  0.0200 -0.3242
   45MOL   C27221480   3.344   0.392   4.061  0.6719  0.1639 -0.4241
   45MOL   O27321481   3.374   0.284   4.113  0.2741 -0.1662  0.0454
   45MOL   C27421482   3.201   0.430   4.025 -0.2812  0.1333  0.1075
   45MOL   C27521483   3.120   0.433   4.158  0.0455  0.2400 -0.5094
   45MOL   C27621484   3.094   0.577   4.204  0.1542  0.0543 -0.6124
   45MOL   O27721485   3.142   0.685   4.163  0.0829  0.1307  0.2066
   45MOL   H27821486   3.710   0.875   4.171  0.2237  2.7686  2.1822
   45MOL   H27921487   3.562   0.933   4.225 -1.3631  0.0641  0.8438
   45MOL   H28021488   3.432   0.741   4.112  0.2643  1.9600  0.1899
   45MOL   H28121489   3.547   0.696   4.245 -1.7297 -1.2579 -0.7998
   45MOL   H28221490   3.716   0.654   4.068  0.3357 -0.0304 -0.2725
   45MOL   H28321491   3.585   0.669   3.951 -2.1262  0.9812  0.4092
   45MOL   H28421492   3.625   0.434   4.012  0.1496  0.1574  0.7379
   45MOL   H28521493   3.582   0.455   4.172 -0.3296 -1.5534 -0.9549
   45MOL   H28621494   3.163   0.359   3.952 -0.1295 -1.2880  1.3828
   45MOL   H28721495   3.200   0.529   3.980 -2.1751 -1.5147 -3.6336
   45MOL   H28821496   3.027   0.378   4.145  0.4050 -0.5189  0.0706
   45MOL   H28921497   3.165   0.376   4.240 -2.3600  0.1822  0.8235
   45MOL   O29021498   3.008   0.569   4.306 -0.5981 -0.3608  0.1640
   45MOL   C29121499   2.969   0.685   4.380 -0.7969 -0.3249  0.0521
   45MOL   C29221500   2.894   0.639   4.508 -1.0856  0.2475  0.2211
   45MOL   C29321501   2.744   0.625   4.489 -0.6414  0.2361 -0.7933
   45MOL   C29421502   2.703   0.489   4.427  0.2968 -0.3894 -0.3570
   45MOL   O29521503   2.765   0.389   4.503 -0.6651  0.0863 -0.0554
   45MOL   C29621504   2.714   0.265   4.493  0.3072 -0.1402 -0.8451
   45MOL   O29721505   2.640   0.232   4.404 -0.8365 -0.0908  0.0881
   45MOL   C29821506   2.750   0.171   4.601  0.5612  0.5339  0.3986
   45MOL   C29921507   2.894   0.173   4.650 -1.2617 -0.3155 -0.0382
   45MOL   C30021508   2.898   0.215   4.794  0.1050 -0.0418  0.4608
   45MOL   O30121509   2.946   0.142   4.880 -0.2842  0.4623  0.8524
   45MOL   H30221510   3.055   0.745   4.413 -1.4545  0.6559 -0.0047
   45MOL   H30321511   2.917   0.750   4.310 -0.1475  0.4412  0.2694
   45MOL   H30421512   2.904   0.727   4.572  0.7181 -0.8747  1.5269
   45MOL   H30521513   2.945   0.556   4.557 -0.1980  1.7632  1.9474
   45MOL   H30621514   2.707   0.701   4.420 -2.9656 -1.7073 -1.8117
   45MOL   H30721515   2.697   0.644   4.585 -0.1413 -1.4843 -0.1903
   45MOL   H30821516   2.596   0.483   4.446  0.3290 -0.3891 -0.1639
   45MOL   H30921517   2.726   0.482   4.321  0.8464 -1.4392 -0.1776
   45MOL   H31021518   2.726   0.066   4.583  0.5055  0.3778  1.3532
   45MOL   H31121519   2.676   0.192   4.678 -0.0765  0.8333 -0.2898
   45MOL   H31221520   2.953   0.081   4.649  0.9444  1.0607  0.1519
   45MOL   H31321521   2.952   0.246   4.593 -1.0041 -1.6867 -1.5873
   45MOL   O31421522   2.850   0.340   4.808 -0.4708 -0.0432  0.3490
   45MOL   C31521523   2.840   0.397   4.938 -0.3851  0.5460  0.1085
   45MOL   C31621524   2.757   0.525   4.938  0.0371  0.0676 -0.2913
   45MOL   C31721525   2.610   0.505   4.898  0.0908  1.0549 -0.0897
   45MOL   C31821526   2.534   0.634   4.879  0.1782 -0.1980  0.3623
   45MOL   O31921527   2.504   0.688   5.012 -0.2844 -0.1366  0.0996
   45MOL   C32021528   2.476   0.818   5.028 -0.1389 -0.5887 -0.1843
   45MOL   O32121529   2.468   0.904   4.935  0.1101  0.2326  0.3704
   45MOL   C32221530   2.450   0.851   5.171 -0.1248  0.5680 -0.1442
   45MOL   C32321531   2.555   0.955   5.212  0.0231 -0.4161  0.7012
   45MOL   C32421532   2.548   1.007   5.353 -0.8429  0.1161 -0.2943
   45MOL   O32521533   2.554   0.928   5.449 -0.4384 -0.5917 -0.4841
   45MOL   H32621534   2.803   0.328   5.014  0.5939  1.0610  1.0643
   45MOL   H32721535   2.939   0.410   4.981  0.5214 -1.8117 -1.1870
   45MOL   H32821536   2.800   0.615   4.894  0.2316 -1.1568 -2.6798
   45MOL   H32921537   2.748   0.544   5.045 -0.3765 -1.3091 -0.0577
   45MOL   H33021538   2.559   0.442   4.971 -0.3497  0.8183 -0.5947
   45MOL   H33121539   2.598   0.447   4.806 -1.2492 -0.6157  1.1007
   45MOL   H33221540   2.588   0.703   4.815  0.3667  0.4216  1.1826
   45MOL   H33321541   2.438   0.596   4.844  0.3939  0.1891 -0.6623
   45MOL   H33421542   2.473   0.766   5.236 -0.9355  0.7080  0.3346
   45MOL   H33521543   2.347   0.888   5.169  0.8946  3.4799 -1.0650
   45MOL   H33621544   2.649   0.903   5.196 -0.3810 -1.0237  0.2990
   45MOL   H33721545   2.558   1.033   5.135  0.0777  0.4381  1.5630
   45MOL   O33821546   2.517   1.137   5.364  0.1325 -0.2203  0.0031
   45MOL   C33921547   2.487   1.200   5.489  0.0873 -0.0735 -0.3944
   45MOL   C34021548   2.360   1.151   5.556  0.4333 -0.3558  0.3820
   45MOL   C34121549   2.327   1.236   5.678 -0.2363 -0.0772  0.1525
   45MOL   C34221550   2.195   1.206   5.748  0.3190 -0.2070 -0.7900
   45MOL   O34321551   2.205   1.102   5.846 -0.8851 -0.3634 -0.5455
   45MOL   C34421552   2.094   1.048   5.892  0.4662 -0.2340 -0.8034
   45MOL   O34521553   1.977   1.078   5.865 -0.5403 -0.8926 -0.4411
   45MOL   C34621554   2.124   0.937   5.995  0.4358  0.4320 -0.5339
   45MOL   C34721555   2.128   0.799   5.930  0.2420 -0.1156  0.3936
   45MOL   C34821556   2.267   0.741   5.944 -0.0060  0.5432 -0.4615
   45MOL   O34921557   2.292   0.661   6.032  0.2195 -0.6538  0.1006
   45MOL   H35021558   2.577   1.188   5.549  0.7814 -0.3260 -1.4776
   45MOL   H35121559   2.471   1.307   5.474 -0.7131  0.2644  2.4405
   45MOL   H35221560   2.369   1.047   5.587 -1.2620 -0.4452  0.6238
   45MOL   H35321561   2.274   1.159   5.488  0.0996  1.7220  1.0086
   45MOL   H35421562   2.323   1.338   5.640 -0.5998  0.5318  1.7733
   45MOL   H35521563   2.407   1.239   5.751 -1.0377  2.0959  0.9923
   45MOL   H35621564   2.159   1.299   5.793  0.0002 -0.0721 -1.3299
   45MOL   H35721565   2.117   1.184   5.676 -0.6508  0.6616 -0.0314
   45MOL   H35821566   2.057   0.939   6.081 -0.3973 -4.3289 -0.9595
   45MOL   H35921567   2.220   0.953   6.044  0.0408 -2.0414  1.1300
   45MOL   H36021568   2.062   0.730   5.983  0.7464  1.2451  2.9063
   45MOL   H36121569   2.108   0.807   5.824  0.5747  1.1665  0.4133
   45MOL   O36221570   2.346   0.799   5.860  0.1205 -0.2452 -0.6257
   45MOL   C36321571   2.494   0.787   5.870  0.2580  0.5268 -0.8796
   45MOL   C36421572   2.548   0.926   5.866  0.0018  0.0861  0.4137
   45MOL   C36521573   2.699   0.908   5.884  0.9193 -0.2712 -0.2845
   45MOL   C36621574   2.795   1.035   5.882  0.3069  0.0233 -0.0941
   45MOL   O36721575   2.749   1.142   5.964 -0.9527  0.3361  0.4061
   45MOL   C36821576   2.705   1.256   5.911 -0.6585  0.2315 -0.5037
   45MOL   O36921577   2.665   1.274   5.794 -0.3139 -0.3478  0.3827
   45MOL   C37021578   2.678   1.365   6.012  0.5241  0.0924 -0.6509
   45MOL   C37121579   2.567   1.317   6.109  0.1848  0.2704  0.2656
   45MOL   C37221580   2.613   1.289   6.255 -0.1154  0.4036  0.2372
   45MOL   O37321581   2.578   1.355   6.350  0.3167 -0.4400 -0.4347
   45MOL   H37421582   2.516   0.724   5.956 -0.7840  1.5934  0.1878
   45MOL   H37521583   2.531   0.728   5.785  0.8871 -0.5970  0.1630
   45MOL   H37621584   2.509   1.005   5.930  0.6483  0.7308  0.0211
   45MOL   H37721585   2.530   0.966   5.766 -0.7969 -2.2729 -0.4404
   45MOL   H37821586   2.728   0.835   5.808 -0.8494  1.1413 -2.3898
   45MOL   H37921587   2.716   0.853   5.976  3.3700  0.8299 -0.0463
   45MOL   H38021588   2.897   1.008   5.912  0.5693  0.0632 -0.9316
   45MOL   H38121589   2.822   1.059   5.779 -0.7154  3.2886  0.3749
   45MOL   H38221590   2.651   1.453   5.955  2.4442  1.0856 -0.0750
   45MOL   H38321591   2.768   1.387   6.071 -0.2776  1.0106  0.2579
   45MOL   H38421592   2.483   1.386   6.116 -0.2211  0.1004 -2.4029
   45MOL   H38521593   2.525   1.226   6.068  2.3476 -0.2833 -0.7928
   45MOL   O38621594   2.689   1.177   6.258  0.4000 -0.4094  0.5047
   45MOL   C38721595   2.726   1.115   6.382 -0.1873 -0.4962 -0.7088
   45MOL   C38821596   2.783   0.978   6.359  0.3209 -0.6330  0.0050
   45MOL   C38921597   2.673   0.882   6.304  0.4077 -0.6156  0.3155
   45MOL   C39021598   2.713   0.736   6.309  0.1237 -0.2750  0.3497
   45MOL   O39121599   2.710   0.692   6.442 -0.0521 -1.3938 -0.0517
   45MOL   C39221600   2.734   0.557   6.471  1.1121  0.2879  0.2141
   45MOL   O39321601   2.774   0.477   6.384  0.8581 -0.5309 -0.6229
   45MOL   C39421602   2.693   0.528   6.613  0.2142  0.4774  0.0422
   45MOL   C39521603   2.544   0.564   6.636 -0.6538 -0.4588  0.0313
   45MOL   C39621604   2.441   0.465   6.587  1.1541 -1.3091  0.0544
   45MOL   O39721605   2.350   0.419   6.655 -0.4443 -0.0039 -0.0303
   45MOL   H39821606   2.792   1.176   6.443 -4.2650  3.0658  0.4406
   45MOL   H39921607   2.640   1.105   6.448 -0.0063 -2.2592 -0.7186
   45MOL   H40021608   2.815   0.933   6.454  0.6365  1.1321  0.7546
   45MOL   H40121609   2.874   0.980   6.298 -0.8562 -2.0706 -1.8478
   45MOL   H40221610   2.643   0.934   6.213 -3.0215  1.0229  2.2705
   45MOL   H40321611   2.583   0.886   6.366  0.8757 -0.5250  0.9928
   45MOL   H40421612   2.637   0.677   6.259 -1.6108  1.3759  0.9986
   45MOL   H40521613   2.804   0.715   6.253  0.0391  1.8049 -0.6168
   45MOL   H40621614   2.755   0.588   6.681 -1.3853  2.3205 -0.0743
   45MOL   H40721615   2.697   0.421   6.634 -0.5407  0.6396  1.0788
   45MOL   H40821616   2.518   0.574   6.741 -1.3239  0.2007 -0.1951
   45MOL   H40921617   2.517   0.664   6.602 -0.8555 -1.0104 -1.4995
   45MOL   O41021618   2.459   0.445   6.461  0.2915 -0.1729  0.2746
   45MOL   C41121619   2.367   0.364   6.387 -0.4208 -0.3094 -0.0983
   45MOL   C41221620   2.390   0.372   6.238  0.1158  0.2182 -0.5480
   45MOL   C41321621   2.315   0.259   6.152 -0.5573 -0.3373  0.7597
   45MOL   C41421622   2.162   0.259   6.167  0.3085 -0.2159 -0.1153
   45MOL   O41521623   2.089   0.366   6.101  0.0296 -0.3785  0.0998
   45MOL   C41621624   2.049   0.350   5.973  0.0299 -0.6131  0.5356
   45MOL   O41721625   2.071   0.252   5.903  0.1566  0.4453 -0.7633
   45MOL   C41821626   1.980   0.469   5.926 -0.3264  0.1531  0.1088
   45MOL   C41921627   1.836   0.430   5.892  0.0364  0.2864  0.2888
   45MOL   C42021628   1.794   0.455   5.751 -0.3793  0.0359 -0.5913
   45MOL   O42121629   1.741   0.366   5.680  0.0020 -0.2187 -0.4148
   45MOL   H42221630   2.362   0.260   6.421 -0.4486 -0.3595 -0.2566
   45MOL   H42321631   2.269   0.409   6.406  0.9778  3.0334 -0.5609
   45MOL   H42421632   2.493   0.343   6.218 -0.1111 -0.8960 -0.1326
   45MOL   H42521633   2.372   0.475   6.205 -0.3267  0.4848  0.5110
   45MOL   H42621634   2.353   0.164   6.190  0.4969  0.0145  0.5854
   45MOL   H42721635   2.335   0.255   6.045 -0.2468  0.9701  0.7530
   45MOL   H42821636   2.112   0.168   6.135 -0.0184 -0.1608  0.2296
   45MOL   H42921637   2.131   0.259   6.272 -0.7966 -0.3949 -0.4321
   45MOL   H43021638   2.036   0.523   5.849 -1.5541  1.1328 -0.1192
   45MOL   H43121639   1.973   0.542   6.007 -0.9260 -0.5258  0.6721
   45MOL   H43221640   1.797   0.336   5.933  1.7270 -0.1380  0.9567
   45MOL   H43321641   1.776   0.503   5.947  0.1144 -0.3825  1.2891
   45MOL   O43421642   1.828   0.574   5.702  0.4185  0.2909  0.0720
   45MOL   C43521643   1.779   0.620   5.574 -0.2365  0.5830  0.1538
   45MOL   C43621644   1.738   0.761   5.592 -0.7219  0.2824 -0.4438
   45MOL   C43721645   1.693   0.830   5.459  0.0973 -0.1150 -0.3824
   45MOL   C43821646   1.628   0.966   5.465  0.3343  0.2033  0.8948
   45MOL   O43921647   1.733   1.066   5.475  0.0060 -0.3906 -0.3478
   45MOL   C44021648   1.786   1.131   5.372 -0.3399  0.5237  0.1211
   45MOL   O44121649   1.748   1.114   5.258 -0.3714 -0.0586 -1.0511
   45MOL   C44221650   1.893   1.227   5.411  0.0166 -0.2080  0.3900
   45MOL   C44321651   1.840   1.335   5.507 -0.3330 -0.2533  0.0169
   45MOL   C44421652   1.888   1.482   5.477 -0.2061 -0.1760 -0.3605
   45MOL   O44521653   1.811   1.575   5.439  0.2938 -0.4842 -0.0454
   45MOL   H44621654   1.846   0.602   5.490  0.1081  0.9960  0.3393
   45MOL   H44721655   1.702   0.553   5.537  0.1828  0.2043 -0.0433
   45MOL   H44821656   1.822   0.815   5.636 -0.4826 -0.1071 -0.4223
   45MOL   H44921657   1.658   0.763   5.666 -0.3047 -3.8451  0.1869
   45MOL   H45021658   1.632   0.757   5.406 -0.7971  0.2146  0.1888
   45MOL   H45121659   1.776   0.835   5.388  0.7273 -0.0937  0.3553
   45MOL   H45221660   1.577   0.987   5.372  2.6219 -0.0105 -0.4331
   45MOL   H45321661   1.552   0.975   5.543 -1.2157  0.4932 -0.6202
   45MOL   H45421662   1.951   1.263   5.326  0.0640 -2.1941 -0.4515
   45MOL   H45521663   1.962   1.172   5.474 -0.3915 -0.8545  0.2775
   45MOL   H45621664   1.733   1.350   5.493 -0.2947  3.4052  2.7587
   45MOL   H45721665   1.855   1.321   5.614  2.3590  2.5208  0.0673
   45MOL   O45821666   2.019   1.500   5.499 -0.1817  0.2751 -0.2968
   45MOL   C45921667   2.080   1.625   5.455 -0.2837 -0.4397 -0.0686
   45MOL   C46021668   2.236   1.620   5.478  0.1445 -0.1545  0.2810
   45MOL   C46121669   2.321   1.750   5.455 -0.3142 -0.1505 -0.4052
   45MOL   C46221670   2.460   1.717   5.418 -0.2221  0.2206 -0.7952
   45MOL   O46321671   2.523   1.640   5.522  0.2006 -0.1188  0.1557
   45MOL   C46421672   2.641   1.588   5.495  0.2644 -0.0250 -0.4475
   45MOL   O46521673   2.701   1.595   5.382  0.2252 -0.1743  0.5137
   45MOL   C46621674   2.695   1.522   5.622  0.2934  0.9603 -0.1975
   45MOL   C46721675   2.840   1.465   5.605  0.7854 -0.4593 -0.2610
   45MOL   C46821676   2.949   1.551   5.683  0.0813 -0.1582 -1.0781
   45MOL   O46921677   3.057   1.575   5.632 -0.2317 -0.5203  0.1985
   45MOL   H47021678   2.066   1.627   5.347 -0.6316 -2.5149 -0.0796
   45MOL   H47121679   2.031   1.714   5.496  0.6595  0.4965 -0.9258
   45MOL   H47221680   2.277   1.539   5.418 -0.3308  1.2933 -2.0781
   45MOL   H47321681   2.263   1.588   5.579 -2.4398 -0.5154  0.8808
   45MOL   H47421682   2.324   1.815   5.543  1.9300  2.6173 -2.4368
   45MOL   H47521683   2.282   1.812   5.375  2.7260  0.3153 -1.5924
   45MOL   H47621684   2.456   1.650   5.332  1.0434 -0.0308 -0.6597
   45MOL   H47721685   2.531   1.792   5.384 -0.8319  0.2294 -2.0945
   45MOL   H47821686   2.622   1.451   5.661 -1.8607  2.9436 -0.5383
   45MOL   H47921687   2.693   1.607   5.690  1.3747  0.9050 -0.0893
   45MOL   H48021688   2.838   1.368   5.655  2.7509 -0.7730 -0.7441
   45MOL   H48121689   2.880   1.463   5.504 -0.1296  1.3807 -0.6859
   45MOL   H48221690   2.908   1.601   5.772 -0.3471 -0.1977 -1.2493
   46MOL     O121691   5.675   5.567   4.472 -0.0603 -0.1576 -0.2702
   46MOL     C221692   5.620   5.450   4.524 -0.3123  0.2942  0.2652
   46MOL     C321693   5.526   5.398   4.413 -0.3304 -0.1290 -0.5097
   46MOL     C421694   5.450   5.275   4.465  0.5948 -0.5506 -0.3684
   46MOL     C521695   5.337   5.308   4.569 -0.4414 -0.0325  0.5602
   46MOL     O621696   5.307   5.181   4.625 -0.7793  0.7602 -0.2339
   46MOL     C721697   5.225   5.161   4.723 -0.0434  0.3186  0.1966
   46MOL     O821698   5.166   5.252   4.783 -0.1724 -0.3660  0.3096
   46MOL     C921699   5.209   5.007   4.750  0.2138 -0.9666 -0.2189
   46MOL    C1021700   5.110   4.982   4.858  0.2849 -0.4562  0.1132
   46MOL    C1121701   5.167   4.968   4.993  0.9367  0.2693 -0.2403
   46MOL    O1221702   5.276   5.023   5.012  0.9383  0.4524  0.4467
   46MOL    H1321703   5.699   5.378   4.542  0.7333  0.7516 -2.2515
   46MOL    H1421704   5.571   5.476   4.618  2.8427  0.9623  1.7943
   46MOL    H1521705   5.579   5.371   4.322 -0.3054 -0.6486 -0.3460
   46MOL    H1621706   5.461   5.484   4.399 -0.6009 -0.3901 -0.8522
   46MOL    H1721707   5.513   5.191   4.496  0.3087 -0.8360 -0.5570
   46MOL    H1821708   5.397   5.229   4.381 -0.5456 -0.1821  0.1326
   46MOL    H1921709   5.373   5.380   4.643 -3.9998  0.2174  2.1260
   46MOL    H2021710   5.245   5.337   4.519 -1.6518 -1.0763  2.1230
   46MOL    H2121711   5.312   4.973   4.765  0.9386  0.6963 -1.2523
   46MOL    H2221712   5.172   4.963   4.657 -1.3662 -0.2923  0.0769
   46MOL    H2321713   5.029   5.056   4.857  0.4272 -0.2593  1.7305
   46MOL    H2421714   5.053   4.893   4.830 -1.2191  0.7005 -0.6102
   46MOL    H2521715   5.634   5.635   4.522  1.5501 -0.6442  1.7720
   46MOL    O2621716   5.094   4.900   5.082  0.3258 -0.0861  1.4234
   46MOL    C2721717   5.143   4.891   5.211 -0.0474 -0.6326 -0.0627
   46MOL    C2821718   5.062   4.967   5.315 -0.7696 -0.1026 -0.3603
   46MOL    C2921719   5.086   5.112   5.293  0.4199  0.0926 -0.4830
   46MOL    C3021720   5.001   5.214   5.372  0.2275 -0.6607  0.3164
   46MOL    O3121721   5.044   5.235   5.507  0.4900  0.4295  0.0529
   46MOL    C3221722   4.987   5.146   5.597  0.7747  0.7081  0.2513
   46MOL    O3321723   4.902   5.056   5.564 -0.2724 -0.1866  0.1352
   46MOL    C3421724   5.025   5.166   5.745 -0.6825  0.1431 -0.0337
   46MOL    C3521725   5.177   5.143   5.769 -0.0979 -0.2513  0.5031
   46MOL    C3621726   5.259   5.271   5.753 -0.4396 -0.0644 -0.3725
   46MOL    O3721727   5.261   5.366   5.834  0.4841  0.1116  0.1436
   46MOL    H3821728   5.136   4.782   5.221  2.3377 -0.7396  0.6676
   46MOL    H3921729   5.248   4.915   5.222 -0.6212  0.8912  2.3822
   46MOL    H4021730   5.088   4.930   5.414  1.5725  0.0527 -0.8652
   46MOL    H4121731   4.960   4.938   5.293 -0.7535  0.9514 -1.8565
   46MOL    H4221732   5.048   5.138   5.194 -2.8483 -0.1437  0.6654
   46MOL    H4321733   5.190   5.145   5.292  1.1532 -2.0702  1.8191
   46MOL    H4421734   5.007   5.314   5.329 -0.8702 -1.0328 -0.7178
   46MOL    H4521735   4.900   5.174   5.371 -0.7336  1.5869  2.7499
   46MOL    H4621736   4.984   5.079   5.796  1.5751 -0.1404  1.3696
   46MOL    H4721737   4.977   5.256   5.783 -0.3975  0.0526  0.5507
   46MOL    H4821738   5.187   5.119   5.875 -1.6808  0.3746  0.8140
   46MOL    H4921739   5.219   5.062   5.711  0.6875 -0.3127  1.1396
   46MOL    O5021740   5.325   5.276   5.630  0.6683  0.0795 -0.2459
   46MOL    C5121741   5.431   5.366   5.601 -0.7582  0.1633 -0.8353
   46MOL    C5221742   5.560   5.281   5.604  0.0706 -0.1002  0.2977
   46MOL    C5321743   5.584   5.196   5.481 -0.3070 -0.3246  0.0755
   46MOL    C5421744   5.482   5.076   5.453  0.1646  0.1140 -0.3031
   46MOL    O5521745   5.495   4.983   5.564  0.0416 -0.6154 -0.4270
   46MOL    C5621746   5.420   4.861   5.567 -0.7419 -0.0450  0.0935
   46MOL    O5721747   5.355   4.823   5.470 -0.0673 -0.2808 -0.1344
   46MOL    C5821748   5.428   4.785   5.696  0.0436 -0.1045 -0.4370
   46MOL    C5921749   5.419   4.636   5.666 -0.4389  0.6932 -0.1129
   46MOL    C6021750   5.398   4.546   5.786 -0.6586 -0.3453  0.9212
   46MOL    O6121751   5.365   4.593   5.890  0.0510  0.6135 -0.5922
   46MOL    H6221752   5.427   5.424   5.509 -1.8638  1.5938  0.1003
   46MOL    H6321753   5.445   5.435   5.684 -1.1209  0.1160 -0.7319
   46MOL    H6421754   5.542   5.212   5.686 -1.6362  1.5548  1.3521
   46MOL    H6521755   5.647   5.345   5.617 -0.5894  0.9002 -0.1110
   46MOL    H6621756   5.685   5.156   5.489  0.5385  1.6555 -0.4227
   46MOL    H6721757   5.581   5.263   5.395  1.9206  0.2939  0.4546
   46MOL    H6821758   5.380   5.114   5.456 -0.1686 -0.6730 -1.1731
   46MOL    H6921759   5.496   5.025   5.357 -0.5066  0.0382 -0.3633
   46MOL    H7021760   5.356   4.820   5.770  0.0385  0.0157 -0.4994
   46MOL    H7121761   5.521   4.801   5.750  0.4198 -2.0553 -0.4631
   46MOL    H7221762   5.346   4.615   5.588 -1.7436 -0.1838  1.2971
   46MOL    H7321763   5.520   4.616   5.631 -0.2400  2.1463 -0.3943
   46MOL    O7421764   5.412   4.409   5.761 -0.0124  0.3153  0.3208
   46MOL    C7521765   5.416   4.322   5.868  0.3279  0.5335 -0.3593
   46MOL    C7621766   5.403   4.172   5.832 -0.0931 -0.5705 -0.0270
   46MOL    C7721767   5.419   4.075   5.943  0.3676 -0.0342 -0.0299
   46MOL    C7821768   5.365   3.939   5.895 -0.0879  0.2292  0.2731
   46MOL    O7921769   5.224   3.939   5.930 -0.5234 -0.1770 -0.5043
   46MOL    C8021770   5.136   3.851   5.885 -0.1900 -0.1730  0.1305
   46MOL    O8121771   5.152   3.759   5.799 -0.0740 -0.6416  0.7591
   46MOL    C8221772   4.995   3.873   5.941  0.4080 -0.4363 -0.8438
   46MOL    C8321773   4.928   3.999   5.886 -0.0630  0.2080  0.0742
   46MOL    C8421774   4.906   4.116   5.986 -0.8128  0.5225 -0.5445
   46MOL    O8521775   4.828   4.099   6.081  0.1030  0.2162 -0.3632
   46MOL    H8621776   5.508   4.332   5.925  0.7677 -0.9538 -0.7816
   46MOL    H8721777   5.335   4.351   5.935  0.2018  1.6215 -0.9662
   46MOL    H8821778   5.473   4.148   5.752  1.0330  0.8752  0.5052
   46MOL    H8921779   5.310   4.171   5.775  1.1318  1.6315 -2.1427
   46MOL    H9021780   5.376   4.102   6.039 -0.7564 -3.5059  0.5355
   46MOL    H9121781   5.525   4.067   5.965 -0.0156  0.3924  2.0829
   46MOL    H9221782   5.379   3.923   5.788 -0.3427  1.6213  0.0170
   46MOL    H9321783   5.415   3.851   5.935 -1.6712 -0.7508  0.1753
   46MOL    H9421784   5.007   3.880   6.049 -1.1149  4.0026 -0.8756
   46MOL    H9521785   4.930   3.789   5.916 -2.9098  1.4172  1.1100
   46MOL    H9621786   4.992   4.029   5.802 -0.8872  0.7188 -0.3787
   46MOL    H9721787   4.828   3.979   5.848  0.5128 -2.4848 -0.0807
   46MOL    O9821788   4.973   4.240   5.954  0.3959  0.0823  0.1610
   46MOL    C9921789   4.941   4.359   6.027  0.3133 -0.0030 -0.4920
   46MOL   C10021790   5.073   4.397   6.103  0.3368  0.7844 -0.7620
   46MOL   C10121791   5.048   4.486   6.226  0.8716 -0.0132  0.0406
   46MOL   C10221792   5.168   4.468   6.321  0.0941 -0.2573  0.1413
   46MOL   O10321793   5.144   4.541   6.440 -0.1703 -0.3618 -0.3970
   46MOL   C10421794   5.177   4.493   6.561 -0.5222 -0.0481  0.6068
   46MOL   O10521795   5.244   4.392   6.583  0.2353  0.3090  0.5095
   46MOL   C10621796   5.147   4.599   6.666  0.3632  0.0382  0.0403
   46MOL   C10721797   4.999   4.643   6.667  0.2323 -0.1863 -0.1023
   46MOL   C10821798   4.951   4.668   6.810 -0.3025  0.3588  0.5508
   46MOL   O10921799   5.018   4.651   6.910 -0.1231  0.2018  0.1908
   46MOL   H11021800   4.901   4.442   5.969  0.0514  0.3287  0.1604
   46MOL   H11121801   4.878   4.333   6.112  0.9589  2.1367  0.6709
   46MOL   H11221802   5.131   4.444   6.023 -0.0031  1.5840 -0.5422
   46MOL   H11321803   5.125   4.308   6.137 -0.4159  1.3348  1.9220
   46MOL   H11421804   4.957   4.450   6.273  1.1600 -1.6967 -0.6434
   46MOL   H11521805   5.023   4.589   6.199  1.7462  0.0875 -0.4170
   46MOL   H11621806   5.169   4.361   6.343  0.7912  0.0946  1.9513
   46MOL   H11721807   5.256   4.510   6.273  0.6426 -0.5824  0.8435
   46MOL   H11821808   5.206   4.689   6.647  1.7862 -0.9655 -0.4036
   46MOL   H11921809   5.175   4.553   6.761 -0.8708 -0.4203  0.1901
   46MOL   H12021810   4.974   4.726   6.602 -0.7200 -0.4541 -0.0922
   46MOL   H12121811   4.940   4.560   6.627 -1.6616  1.1431 -0.1490
   46MOL   O12221812   4.821   4.701   6.803 -0.2657 -0.0345  0.3225
   46MOL   C12321813   4.775   4.761   6.919  0.5307 -0.4264  0.4207
   46MOL   C12421814   4.655   4.687   6.979 -0.3157  0.9064 -0.2141
   46MOL   C12521815   4.689   4.539   7.015 -0.0447 -0.1746 -0.1659
   46MOL   C12621816   4.577   4.473   7.097 -0.5863  0.1991 -0.1444
   46MOL   O12721817   4.461   4.473   7.025 -0.4346  0.0286 -0.6680
   46MOL   C12821818   4.349   4.414   7.073 -0.0335  0.1824 -0.0289
   46MOL   O12921819   4.344   4.354   7.177  0.4091 -0.4991  0.7404
   46MOL   C13021820   4.234   4.413   6.986  0.4605 -0.6120 -0.1418
   46MOL   C13121821   4.119   4.501   7.033  0.1808 -0.6097  0.3896
   46MOL   C13221822   4.074   4.605   6.926 -0.1461  0.0945 -0.4565
   46MOL   O13321823   4.037   4.568   6.814  0.2929  0.7411  0.0352
   46MOL   H13421824   4.850   4.766   6.998 -1.0330  0.5328  1.8951
   46MOL   H13521825   4.737   4.860   6.891 -1.0695 -1.3588 -0.7382
   46MOL   H13621826   4.564   4.700   6.921  1.2715  1.1123 -2.7185
   46MOL   H13721827   4.622   4.723   7.077 -1.3161 -0.8277  0.1006
   46MOL   H13821828   4.782   4.542   7.071  0.1282 -1.2883 -0.3720
   46MOL   H13921829   4.715   4.471   6.934 -0.6710 -0.8147  0.1576
   46MOL   H14021830   4.612   4.372   7.119  1.2910  0.7407 -0.5732
   46MOL   H14121831   4.554   4.531   7.186 -2.4866 -2.0705  0.9099
   46MOL   H14221832   4.210   4.307   7.000  0.9170 -0.9099 -1.5590
   46MOL   H14321833   4.258   4.425   6.881 -0.0036 -2.6922 -0.5210
   46MOL   H14421834   4.037   4.443   7.076 -2.0960  1.5701 -0.8610
   46MOL   H14521835   4.151   4.564   7.115  0.9208 -1.3700  0.6827
   46MOL   O14621836   4.092   4.740   6.959 -0.4577 -0.0630 -0.0876
   46MOL   C14721837   4.041   4.835   6.863 -0.1740 -0.3997 -0.0802
   46MOL   C14821838   4.055   4.976   6.915  0.2922 -0.7058  0.3531
   46MOL   C14921839   4.200   5.024   6.872 -0.9054 -0.4858 -0.2218
   46MOL   C15021840   4.248   5.140   6.963  0.0652  0.1019 -0.4876
   46MOL   O15121841   4.262   5.100   7.105  0.4277  0.1415  0.0507
   46MOL   C15221842   4.376   5.036   7.134 -0.2558 -0.5710 -0.0212
   46MOL   O15321843   4.450   4.973   7.056  0.2639 -0.4551 -0.3512
   46MOL   C15421844   4.390   5.027   7.283 -0.3375 -0.1724 -0.5177
   46MOL   C15521845   4.435   5.161   7.340  0.2547  0.4356 -0.5176
   46MOL   C15621846   4.519   5.125   7.463 -0.2011  0.1085 -0.5550
   46MOL   O15721847   4.637   5.158   7.476  0.3236 -0.5008  0.2667
   46MOL   H15821848   4.100   4.822   6.772  2.8355 -1.1204  1.9258
   46MOL   H15921849   3.934   4.822   6.847 -0.1184 -2.7525  1.2833
   46MOL   H16021850   4.042   4.970   7.023 -0.4481  1.6481  0.4243
   46MOL   H16121851   3.978   5.030   6.861 -0.6257 -1.0968  1.2599
   46MOL   H16221852   4.203   5.062   6.770  2.0298  0.8716  0.3003
   46MOL   H16321853   4.263   4.936   6.885  0.4482  0.3050 -1.2963
   46MOL   H16421854   4.348   5.164   6.924  0.8081  0.4610  1.5916
   46MOL   H16521855   4.175   5.219   6.945  0.9930  0.6992 -1.7243
   46MOL   H16621856   4.466   4.948   7.287 -0.4729 -0.2985 -0.4376
   46MOL   H16721857   4.297   4.992   7.328 -1.3614 -0.8623 -3.0769
   46MOL   H16821858   4.494   5.219   7.269  0.0173  0.6004 -0.5833
   46MOL   H16921859   4.340   5.214   7.353 -0.1472 -0.5206  0.5953
   46MOL   O17021860   4.442   5.059   7.555  0.1576  0.1248 -0.3185
   46MOL   C17121861   4.502   4.987   7.660  0.0037 -0.3283  0.4373
   46MOL   C17221862   4.542   4.850   7.622 -0.0028  0.1329  0.2552
   46MOL   C17321863   4.610   4.778   7.736  0.7534 -0.0759 -0.6669
   46MOL   C17421864   4.705   4.668   7.685  0.1287 -1.1949  0.8313
   46MOL   O17521865   4.636   4.585   7.590  0.4042  0.1571 -0.4866
   46MOL   C17621866   4.575   4.477   7.640  0.7998  0.5709 -0.1550
   46MOL   O17721867   4.564   4.443   7.760 -0.0741 -0.4268  0.8395
   46MOL   C17821868   4.503   4.404   7.521  0.1117  0.1820 -0.2586
   46MOL   C17921869   4.360   4.441   7.503  0.2387  0.2596  0.3201
   46MOL   C18021870   4.332   4.565   7.423  0.0872  0.2717  0.3126
   46MOL   O18121871   4.420   4.630   7.372  0.4541 -0.9521 -0.0411
   46MOL   H18221872   4.586   5.049   7.689  0.6796 -1.6309  1.3072
   46MOL   H18321873   4.428   5.003   7.738 -0.9871  2.1557 -0.9430
   46MOL   H18421874   4.604   4.844   7.533 -0.0814  0.4738  0.1757
   46MOL   H18521875   4.451   4.800   7.589 -0.5743  1.3991 -0.1105
   46MOL   H18621876   4.534   4.733   7.800 -1.6118  2.0916 -1.8420
   46MOL   H18721877   4.658   4.850   7.803  0.3863 -0.7178  0.2859
   46MOL   H18821878   4.798   4.695   7.634 -0.4609 -1.6153 -0.4978
   46MOL   H18921879   4.739   4.620   7.776 -2.8927 -0.7309  2.2362
   46MOL   H19021880   4.516   4.296   7.529  1.7090  0.4163  0.6216
   46MOL   H19121881   4.565   4.423   7.434  0.3279  0.6432 -0.0046
   46MOL   H19221882   4.309   4.353   7.464  1.4078 -1.6447  2.9391
   46MOL   H19321883   4.324   4.461   7.604  1.0652  0.6613  0.5344
   46MOL   O19421884   4.205   4.589   7.427 -0.9057  0.4223 -0.1560
   46MOL   C19521885   4.147   4.703   7.365 -1.1562  0.4008 -0.4774
   46MOL   C19621886   4.000   4.676   7.332  0.6580 -0.2085  0.2498
   46MOL   C19721887   3.926   4.719   7.456 -0.0476  0.2351  0.0377
   46MOL   C19821888   3.774   4.701   7.455  0.2976 -0.0985  0.7192
   46MOL   O19921889   3.711   4.794   7.372  0.2019  0.2520 -0.0097
   46MOL   C20021890   3.670   4.909   7.423  0.1219  0.0972 -0.6090
   46MOL   O20121891   3.679   4.940   7.537 -0.3486  0.2396 -0.1314
   46MOL   C20221892   3.592   4.992   7.326 -0.0949  0.7027 -0.1621
   46MOL   C20321893   3.687   5.035   7.208  0.1991 -0.1089 -0.4914
   46MOL   C20421894   3.668   4.956   7.082  0.4119  0.1806  0.5069
   46MOL   O20521895   3.764   4.898   7.033 -0.1694  0.0404  0.4821
   46MOL   H20621896   4.164   4.800   7.411  1.8147  0.0221 -0.6952
   46MOL   H20721897   4.197   4.721   7.269 -1.6492  0.5024 -0.7179
   46MOL   H20821898   3.974   4.578   7.293  0.5505  0.7514 -2.1884
   46MOL   H20921899   3.968   4.735   7.247  1.9561  2.1969  1.3710
   46MOL   H21021900   3.933   4.827   7.473 -1.1647  0.5271 -1.2422
   46MOL   H21121901   3.952   4.661   7.544 -2.3720 -1.1828 -0.1677
   46MOL   H21221902   3.755   4.603   7.412  2.0933  0.0614 -0.4593
   46MOL   H21321903   3.729   4.699   7.554  2.7934 -1.9458  1.8332
   46MOL   H21421904   3.555   5.077   7.383 -0.6048  0.7086 -0.5036
   46MOL   H21521905   3.504   4.933   7.303 -0.8298  0.9085  1.9890
   46MOL   H21621906   3.660   5.136   7.177  0.1900 -0.7405 -2.5946
   46MOL   H21721907   3.793   5.045   7.234  0.5475 -0.2886 -1.7848
   46MOL   O21821908   3.551   4.983   7.022  0.0886  0.1826 -0.4400
   46MOL   C21921909   3.518   4.912   6.893  0.1040 -0.3679 -0.0688
   46MOL   C22021910   3.567   5.007   6.778  0.1029  0.3621  0.2229
   46MOL   C22121911   3.482   5.132   6.785 -0.0383 -0.3046  0.1273
   46MOL   C22221912   3.501   5.234   6.668 -0.1419  0.1030 -0.2244
   46MOL   O22321913   3.419   5.188   6.570  0.8082  0.0725 -0.2002
   46MOL   C22421914   3.459   5.151   6.449 -0.5518  0.2984  0.0092
   46MOL   O22521915   3.566   5.180   6.399 -0.4639  0.2086 -0.3028
   46MOL   C22621916   3.346   5.094   6.365  0.0302  0.4423 -0.8599
   46MOL   C22721917   3.348   5.163   6.222  0.0222 -0.7072  0.0760
   46MOL   C22821918   3.252   5.274   6.205 -0.3818 -0.5392 -0.8247
   46MOL   O22921919   3.292   5.388   6.185  0.0144 -0.1318  0.5795
   46MOL   H23021920   3.576   4.820   6.888  0.7251 -0.0363  0.8482
   46MOL   H23121921   3.411   4.892   6.889 -0.1287  0.0991  2.7675
   46MOL   H23221922   3.570   4.958   6.680 -0.2026  0.9984 -0.1055
   46MOL   H23321923   3.674   5.024   6.791  0.1134  0.6477 -0.2448
   46MOL   H23421924   3.507   5.184   6.878  0.3510 -3.0314  1.5906
   46MOL   H23521925   3.374   5.119   6.778 -0.1572  1.2206 -1.2468
   46MOL   H23621926   3.462   5.328   6.708 -1.7005 -1.0925  1.1495
   46MOL   H23721927   3.600   5.258   6.631 -0.3162  2.0593  0.4983
   46MOL   H23821928   3.255   5.120   6.419 -0.3843 -1.0506 -0.8254
   46MOL   H23921929   3.347   4.987   6.345 -2.7005 -0.0529  1.3894
   46MOL   H24021930   3.445   5.208   6.201 -1.4774  3.2896  1.2362
   46MOL   H24121931   3.321   5.098   6.139  1.4684 -1.0655 -0.1230
   46MOL   O24221932   3.133   5.243   6.226  0.1553  0.2857  0.5454
   46MOL   C24321933   3.027   5.338   6.212 -0.6348  1.0171 -0.4167
   46MOL   C24421934   2.906   5.261   6.153 -0.6991 -0.3841  0.5341
   46MOL   C24521935   2.927   5.212   6.007  0.2053 -0.0713  0.1572
   46MOL   C24621936   2.807   5.129   5.953  0.0493 -0.0754 -0.2921
   46MOL   O24721937   2.799   5.119   5.812 -0.9869  0.0445  0.5459
   46MOL   C24821938   2.725   5.014   5.761  0.2662  0.0009  0.6550
   46MOL   O24921939   2.668   4.922   5.823  0.4199 -0.5149  0.2432
   46MOL   C25021940   2.722   5.007   5.609 -0.1014  0.3545  0.0546
   46MOL   C25121941   2.809   4.897   5.553  0.8294  0.3899  0.1576
   46MOL   C25221942   2.744   4.762   5.544 -0.1140  0.8937  0.1659
   46MOL   O25321943   2.809   4.662   5.531 -0.3648 -0.4614 -0.4600
   46MOL   H25421944   2.992   5.378   6.306 -1.2454  2.9159 -1.4333
   46MOL   H25521945   3.061   5.417   6.145  2.1931  0.1380 -0.0656
   46MOL   H25621946   2.820   5.328   6.163  0.8980  2.2218 -2.3790
   46MOL   H25721947   2.873   5.171   6.205  0.8607 -0.8512  0.7355
   46MOL   H25821948   3.019   5.154   6.002  0.3247 -0.0800  2.2081
   46MOL   H25921949   2.929   5.303   5.947 -0.6990 -1.3596 -1.8839
   46MOL   H26021950   2.791   5.036   6.007 -0.0921  0.1477  0.0581
   46MOL   H26121951   2.725   5.197   5.978  0.2742  0.7725 -1.8068
   46MOL   H26221952   2.752   5.103   5.565 -2.3652  1.3216  0.5688
   46MOL   H26321953   2.623   4.990   5.568 -0.0616  4.1714 -1.8421
   46MOL   H26421954   2.834   4.928   5.451 -1.3440 -0.3447 -0.6246
   46MOL   H26521955   2.897   4.886   5.616  0.0449 -0.5102  1.1074
   46MOL   O26621956   2.613   4.767   5.517  0.6755 -0.2448 -0.4668
   46MOL   C26721957   2.543   4.649   5.493  0.7159 -0.2602  0.0060
   46MOL   C26821958   2.392   4.680   5.506  1.4539 -0.5829  0.1808
   46MOL   C26921959   2.357   4.726   5.650 -0.0634  0.3261 -0.2633
   46MOL   C27021960   2.217   4.776   5.668  0.0688  0.5967  0.0031
   46MOL   O27121961   2.116   4.666   5.670 -0.0715  0.5113  0.9937
   46MOL   C27221962   2.021   4.659   5.580 -0.2183 -0.0898  1.0472
   46MOL   O27321963   2.009   4.733   5.483  0.3277 -0.0565 -0.2385
   46MOL   C27421964   1.921   4.557   5.621 -0.2154  0.1671 -0.0463
   46MOL   C27521965   1.832   4.614   5.744 -0.1826  0.5119 -0.1861
   46MOL   C27621966   1.683   4.628   5.708 -0.4391  0.4069  0.1405
   46MOL   O27721967   1.640   4.599   5.599  0.0919  0.1969 -0.1085
   46MOL   H27821968   2.570   4.606   5.397  1.2535  2.3921 -1.0669
   46MOL   H27921969   2.574   4.578   5.570  1.0079  2.4006  2.4293
   46MOL   H28021970   2.329   4.599   5.471 -0.7658  0.2975  1.9817
   46MOL   H28121971   2.367   4.762   5.438 -0.9950 -1.6085 -0.2024
   46MOL   H28221972   2.431   4.801   5.676 -0.3689  0.1394  1.1940
   46MOL   H28321973   2.372   4.643   5.719  0.5500  0.7974  0.1752
   46MOL   H28421974   2.225   4.812   5.771  0.4754  1.6548 -0.3943
   46MOL   H28521975   2.187   4.866   5.614  0.0596  1.0825  0.8104
   46MOL   H28621976   1.986   4.475   5.652  0.2715  1.1585  1.6478
   46MOL   H28721977   1.866   4.521   5.534  1.5462  0.6763 -1.3878
   46MOL   H28821978   1.836   4.556   5.837  2.3065  1.5008  0.3611
   46MOL   H28921979   1.867   4.714   5.771  0.2101  0.1332  0.7402
   46MOL   O29021980   1.606   4.662   5.812  1.0022 -0.2729 -0.3633
   46MOL   C29121981   1.470   4.700   5.791  0.3305 -0.1120 -0.1374
   46MOL   C29221982   1.419   4.774   5.913  0.3980 -0.4416  0.4187
   46MOL   C29321983   1.269   4.823   5.895  0.3890  0.2621 -0.0677
   46MOL   C29421984   1.177   4.709   5.892  0.3347  0.0763 -0.6694
   46MOL   O29521985   1.169   4.632   6.008  0.0131  0.5151  0.6901
   46MOL   C29621986   1.086   4.525   6.015  0.5570  0.2450  0.3113
   46MOL   O29721987   1.015   4.478   5.924  0.2733 -0.0286  0.5563
   46MOL   C29821988   1.094   4.462   6.152  1.2278  0.2965 -0.4910
   46MOL   C29921989   1.095   4.310   6.157 -0.2035  0.4479  0.9486
   46MOL   C30021990   1.114   4.271   6.302  0.2746 -0.3329  0.4146
   46MOL   O30121991   1.219   4.239   6.349 -0.1291 -0.9192  0.3365
   46MOL   H30221992   1.455   4.752   5.697  0.7530  1.9244  0.8907
   46MOL   H30321993   1.410   4.609   5.786 -0.5401  0.4494  0.0281
   46MOL   H30421994   1.467   4.872   5.917  0.6586 -0.5479 -0.1395
   46MOL   H30521995   1.423   4.726   6.011  0.4250  0.7710  1.0210
   46MOL   H30621996   1.270   4.874   5.799 -0.5569 -2.8587 -1.7926
   46MOL   H30721997   1.236   4.888   5.976  1.2300 -0.9264  1.2619
   46MOL   H30821998   1.079   4.756   5.886  0.7969  1.1644  0.0109
   46MOL   H30921999   1.195   4.642   5.808  0.0537 -2.0963  0.9653
   46MOL   H31022000   1.001   4.493   6.199  0.4661 -1.0581 -1.0887
   46MOL   H31122001   1.174   4.502   6.214  0.7861 -0.1126  0.3478
   46MOL   H31222002   1.009   4.261   6.111 -1.3597  2.9747  0.3349
   46MOL   H31322003   1.176   4.268   6.097 -1.9086 -2.7023  0.7690
   46MOL   O31422004   1.003   4.286   6.369  0.5858 -0.8056 -0.6937
   46MOL   C31522005   1.007   4.292   6.513  0.3681 -0.5068  0.9090
   46MOL   C31622006   0.890   4.370   6.577  0.3386 -0.8661 -0.2980
   46MOL   C31722007   0.894   4.524   6.549  0.2257 -0.0793 -0.1120
   46MOL   C31822008   0.773   4.595   6.617  0.0628 -0.1200 -0.1155
   46MOL   O31922009   0.788   4.602   6.757  0.2552  0.0815  0.7231
   46MOL   C32022010   0.710   4.676   6.834 -0.9500  0.3656 -0.3971
   46MOL   O32122011   0.619   4.739   6.782  0.1075  0.0291  0.0534
   46MOL   C32222012   0.737   4.672   6.980 -0.2290  0.6683  0.6432
   46MOL   C32322013   0.783   4.804   7.034 -0.0585  0.4545 -0.5813
   46MOL   C32422014   0.885   4.795   7.147 -0.0956 -0.0136  0.0472
   46MOL   O32522015   0.857   4.732   7.248 -0.5654  0.7321  0.0216
   46MOL   H32622016   0.999   4.188   6.543  3.2883 -0.4121  2.1184
   46MOL   H32722017   1.097   4.339   6.551 -0.6681  0.1458  2.6065
   46MOL   H32822018   0.891   4.363   6.685 -0.7607  2.9064  0.0057
   46MOL   H32922019   0.797   4.324   6.544  0.2778 -1.6795  1.0008
   46MOL   H33022020   0.884   4.538   6.441 -0.8630  1.2421  0.1407
   46MOL   H33122021   0.989   4.568   6.577 -0.4570  1.5893 -0.3655
   46MOL   H33222022   0.740   4.686   6.568 -0.1342 -0.2386 -0.2014
   46MOL   H33322023   0.690   4.528   6.597  0.8050 -0.7963 -0.9582
   46MOL   H33422024   0.803   4.588   6.999 -0.8020 -0.0559 -0.4845
   46MOL   H33522025   0.645   4.649   7.034 -0.3873  0.9394  0.4916
   46MOL   H33622026   0.842   4.864   6.963  0.5314  0.5713 -0.0007
   46MOL   H33722027   0.698   4.862   7.068  1.6095  1.9148  1.2019
   46MOL   O33822028   1.002   4.849   7.113  0.4978 -0.0785 -0.5140
   46MOL   C33922029   1.111   4.833   7.198 -0.2506 -1.0365 -0.3370
   46MOL   C34022030   1.239   4.904   7.139 -1.1781  0.5469 -1.1983
   46MOL   C34122031   1.225   5.051   7.104  0.0943  0.8763  0.1722
   46MOL   C34222032   1.356   5.119   7.062  0.2277  0.4566  0.4735
   46MOL   O34322033   1.327   5.253   7.025  0.0886  0.0148  0.1253
   46MOL   C34422034   1.415   5.319   6.951  1.6648 -0.7224 -1.1933
   46MOL   O34522035   1.521   5.268   6.915  0.3686 -0.9018  0.1690
   46MOL   C34622036   1.363   5.454   6.907 -0.0320 -0.3868  0.8203
   46MOL   C34722037   1.455   5.571   6.954 -0.3156  0.4634 -0.3183
   46MOL   C34822038   1.410   5.705   6.892 -0.4711 -0.6009  0.7604
   46MOL   O34922039   1.299   5.720   6.838  0.2252  0.0034  0.1215
   46MOL   H35022040   1.084   4.888   7.289 -3.6666  0.1675 -1.9685
   46MOL   H35122041   1.132   4.731   7.230  0.0877 -0.4070  1.5265
   46MOL   H35222042   1.274   4.849   7.051 -0.8142 -0.4438 -0.4503
   46MOL   H35322043   1.316   4.888   7.214 -2.1582  0.7983 -0.1396
   46MOL   H35422044   1.188   5.101   7.194  0.3633 -0.1596  0.8728
   46MOL   H35522045   1.145   5.093   7.043 -0.8659 -1.2295 -0.0590
   46MOL   H35622046   1.439   5.110   7.132 -1.1019 -0.8304  1.8878
   46MOL   H35722047   1.400   5.063   6.979  1.5859  1.3763  0.5441
   46MOL   H35822048   1.266   5.479   6.949 -0.6848 -0.3120 -0.6692
   46MOL   H35922049   1.353   5.452   6.798 -2.3380 -3.8731  1.0109
   46MOL   H36022050   1.456   5.575   7.063 -1.6885 -0.4792 -0.2582
   46MOL   H36122051   1.556   5.569   6.913  0.4738 -0.1407  1.5934
   46MOL   O36222052   1.515   5.795   6.896 -0.2949 -0.2716  1.0678
   46MOL   C36322053   1.488   5.937   6.879  0.5018  0.3954 -0.1469
   46MOL   C36422054   1.512   5.971   6.734  0.2557  0.1579 -0.2266
   46MOL   C36522055   1.647   5.915   6.686 -0.7035 -0.1892  0.9115
   46MOL   C36622056   1.711   5.977   6.557 -0.3602 -0.2971 -0.0120
   46MOL   O36722057   1.838   5.934   6.545  0.1087  0.1599 -0.3411
   46MOL   C36822058   1.894   5.905   6.430 -0.5199 -0.4090  0.2444
   46MOL   O36922059   1.842   5.913   6.320  0.5936 -0.2092 -0.2759
   46MOL   C37022060   2.041   5.867   6.438  0.4015 -0.4619 -0.3066
   46MOL   C37122061   2.063   5.737   6.515  0.9091  0.1884 -0.2231
   46MOL   C37222062   2.115   5.611   6.442  0.5456  0.8145  0.9782
   46MOL   O37322063   2.071   5.501   6.475  0.1138 -0.3578  0.3676
   46MOL   H37422064   1.386   5.950   6.913  0.4901 -0.3602  0.1298
   46MOL   H37522065   1.558   5.988   6.945 -1.5236  1.7274  1.0216
   46MOL   H37622066   1.512   6.080   6.728  1.3311  0.1962  0.3777
   46MOL   H37722067   1.426   5.930   6.682  1.3253 -0.3587 -1.6357
   46MOL   H37822068   1.644   5.808   6.666  0.6240  0.2906 -2.0923
   46MOL   H37922069   1.720   5.930   6.765  0.8904  0.6572 -0.7000
   46MOL   H38022070   1.645   5.956   6.473 -0.9418 -0.8041  0.5668
   46MOL   H38122071   1.701   6.085   6.573 -0.4159 -0.5832  2.0565
   46MOL   H38222072   2.097   5.952   6.476 -0.1358  0.1223 -0.8061
   46MOL   H38322073   2.073   5.864   6.334  0.0270  0.4601 -0.4543
   46MOL   H38422074   2.132   5.752   6.598  1.0583  1.6585 -0.5947
   46MOL   H38522075   1.969   5.705   6.561  1.4089 -0.5383  0.3150
   46MOL   O38622076   2.205   5.631   6.343 -0.7033  0.3370 -0.3000
   46MOL   C38722077   2.240   5.530   6.252  0.1855  0.0507  0.9223
   46MOL   C38822078   2.382   5.567   6.207 -0.6091 -0.6905 -0.1478
   46MOL   C38922079   2.486   5.567   6.325 -0.1592 -0.7339  0.0954
   46MOL   C39022080   2.631   5.610   6.282 -0.1828  0.0723  0.5204
   46MOL   O39122081   2.738   5.602   6.379  0.6581 -0.1598  0.4699
   46MOL   C39222082   2.798   5.719   6.418 -0.3705  0.1334  0.6071
   46MOL   O39322083   2.773   5.835   6.373 -0.2294  0.5905  0.8725
   46MOL   C39422084   2.901   5.697   6.531 -0.3190 -0.6668  0.2344
   46MOL   C39522085   2.833   5.684   6.666 -0.4401  0.0765 -0.4436
   46MOL   C39622086   2.844   5.812   6.753  0.1194  0.4890 -0.2884
   46MOL   O39722087   2.799   5.918   6.710 -0.1183  0.4346  0.3572
   46MOL   H39822088   2.238   5.429   6.293  1.4881 -1.4221 -2.4593
   46MOL   H39922089   2.176   5.529   6.163  0.8145  0.3620  0.4665
   46MOL   H40022090   2.376   5.667   6.163 -2.2040 -1.5783 -1.9666
   46MOL   H40122091   2.406   5.495   6.130 -1.9229  0.5325 -1.7401
   46MOL   H40222092   2.479   5.473   6.380  2.0473 -1.0467 -0.1262
   46MOL   H40322093   2.451   5.643   6.396 -0.2096 -1.2346  0.6079
   46MOL   H40422094   2.665   5.542   6.203  0.1877 -0.1216  0.8481
   46MOL   H40522095   2.627   5.704   6.227  0.6441 -1.7038 -2.7219
   46MOL   H40622096   2.980   5.773   6.537 -0.4156 -0.6271  1.0664
   46MOL   H40722097   2.948   5.602   6.505 -1.5564 -0.9293 -1.1290
   46MOL   H40822098   2.730   5.648   6.666  0.1153 -1.5966 -0.7352
   46MOL   H40922099   2.888   5.598   6.704 -0.6751 -0.8348 -2.0748
   46MOL   O41022100   2.917   5.796   6.863 -0.2012 -0.0760 -0.2585
   46MOL   C41122101   2.936   5.904   6.954  0.0203 -0.1251 -0.7359
   46MOL   C41222102   3.033   6.009   6.909 -0.6744 -0.3554 -0.5214
   46MOL   C41322103   3.177   5.948   6.905  0.3897 -0.6192 -0.0563
   46MOL   C41422104   3.282   6.038   6.830  0.3727  0.4140  0.1959
   46MOL   O41522105   3.279   6.007   6.695 -0.7478 -0.7943 -0.1622
   46MOL   C41622106   3.337   6.102   6.614 -0.0619 -0.2238  0.4481
   46MOL   O41722107   3.346   6.221   6.649  0.2863 -0.0574 -0.2978
   46MOL   C41822108   3.370   6.057   6.474 -0.7678 -0.8775 -0.0323
   46MOL   C41922109   3.500   6.116   6.426 -0.2970  0.8393 -0.9838
   46MOL   C42022110   3.540   6.060   6.296  0.1661  0.9105  0.1120
   46MOL   O42122111   3.520   5.941   6.268  0.0398 -0.6219 -0.2259
   46MOL   H42222112   2.838   5.949   6.968  0.7321  0.6738  1.8638
   46MOL   H42322113   2.965   5.863   7.051  0.4430  1.1146 -0.3387
   46MOL   H42422114   3.037   6.082   6.990  0.5424  0.3420 -1.1892
   46MOL   H42522115   3.006   6.057   6.815 -3.3244 -0.4923  0.1373
   46MOL   H42622116   3.178   5.848   6.861 -2.9472 -0.8165  0.1897
   46MOL   H42722117   3.210   5.931   7.008 -2.3712  0.0696  0.9922
   46MOL   H42822118   3.255   6.143   6.833  1.2322  0.6315  0.2697
   46MOL   H42922119   3.382   6.023   6.872  0.6928 -0.3895 -0.8431
   46MOL   H43022120   3.289   6.091   6.411 -2.2342 -3.9288  0.0945
   46MOL   H43122121   3.358   5.948   6.473  0.9756 -1.1039  0.4443
   46MOL   H43222122   3.487   6.223   6.410 -1.0956  0.6352 -1.8188
   46MOL   H43322123   3.577   6.108   6.502 -0.8496 -1.1704 -0.6142
   46MOL   O43422124   3.603   6.151   6.227 -0.3034 -0.6936 -0.7832
   46MOL   C43522125   3.659   6.124   6.098  0.3350 -0.5010  0.3370
   46MOL   C43622126   3.814   6.104   6.108  0.5195 -0.3162 -0.6940
   46MOL   C43722127   3.837   5.963   6.160 -0.0586  0.1263  0.0357
   46MOL   C43822128   3.989   5.940   6.152  0.1072  0.7225  0.0093
   46MOL   O43922129   4.024   5.813   6.198 -0.3550  0.4277 -0.0193
   46MOL   C44022130   4.150   5.765   6.231 -0.3531 -0.0063  0.8491
   46MOL   O44122131   4.253   5.826   6.211 -0.5920  0.2380 -0.4752
   46MOL   C44222132   4.135   5.633   6.290  0.4648 -0.4229  0.1246
   46MOL   C44322133   4.107   5.521   6.182 -0.0056  0.2523  0.9014
   46MOL   C44422134   4.215   5.473   6.090 -0.1586  0.3974 -0.3121
   46MOL   O44522135   4.328   5.527   6.087  0.0161  0.1936  0.3453
   46MOL   H44622136   3.625   6.030   6.055 -1.3564  0.9097 -1.4777
   46MOL   H44722137   3.637   6.211   6.035 -1.0743 -1.8328 -1.0485
   46MOL   H44822138   3.847   6.188   6.169 -4.0926  1.2938 -0.2366
   46MOL   H44922139   3.863   6.117   6.011 -2.3093 -1.5523 -2.3477
   46MOL   H45022140   3.775   5.888   6.110  3.2396 -0.6337 -3.1225
   46MOL   H45122141   3.801   5.970   6.263  1.2822  2.7849  0.3581
   46MOL   H45222142   4.035   5.947   6.053  0.5268 -3.2281 -0.1731
   46MOL   H45322143   4.053   6.006   6.211  0.8833 -1.5098  1.7228
   46MOL   H45422144   4.048   5.638   6.356  0.2800  0.5706 -0.1903
   46MOL   H45522145   4.213   5.619   6.365 -0.6187 -1.1143  1.1394
   46MOL   H45622146   4.076   5.435   6.240 -2.4165 -1.1841 -2.3512
   46MOL   H45722147   4.026   5.544   6.113  0.3521 -4.3089 -1.1797
   46MOL   O45822148   4.173   5.375   6.015 -0.4713  0.1104 -0.4955
   46MOL   C45922149   4.250   5.322   5.904 -0.3172  0.0626 -0.1440
   46MOL   C46022150   4.242   5.393   5.774 -0.0295 -0.3271  0.2388
   46MOL   C46122151   4.098   5.424   5.728 -0.2552 -0.1157  0.2511
   46MOL   C46222152   4.110   5.503   5.600  0.1507  0.0881 -0.2237
   46MOL   O46322153   3.980   5.503   5.539  0.2630 -0.5139  0.3771
   46MOL   C46422154   3.967   5.543   5.418  0.3105  0.9008 -0.6396
   46MOL   O46522155   4.055   5.600   5.360 -0.1345  0.5303 -0.2295
   46MOL   C46622156   3.838   5.495   5.347  0.2636  0.3667 -0.3947
   46MOL   C46722157   3.860   5.360   5.281  0.4420  1.4338  0.6787
   46MOL   C46822158   3.895   5.368   5.131 -0.3452 -0.6147  0.3734
   46MOL   O46922159   3.810   5.419   5.047  0.1231  0.0496  0.3359
   46MOL   H47022160   4.350   5.283   5.926 -0.1593  0.0983 -0.7823
   46MOL   H47122161   4.194   5.230   5.889 -0.6146  0.1776  0.2652
   46MOL   H47222162   4.289   5.327   5.701 -1.1605  0.6280 -1.3805
   46MOL   H47322163   4.306   5.481   5.789  0.1288 -0.4163  0.0805
   46MOL   H47422164   4.055   5.485   5.807  1.4187 -0.1285  1.1979
   46MOL   H47522165   4.043   5.332   5.707  1.0413 -0.6808 -0.7781
   46MOL   H47622166   4.148   5.604   5.616  0.2406 -0.2279  1.7521
   46MOL   H47722167   4.182   5.452   5.537 -0.1134  0.0073 -0.4572
   46MOL   H47822168   3.811   5.570   5.272 -0.6718  0.0057 -0.4292
   46MOL   H47922169   3.759   5.497   5.421 -0.5128 -1.2548 -1.1533
   46MOL   H48022170   3.928   5.292   5.332 -0.1981 -0.6405 -1.1770
   46MOL   H48122171   3.783   5.285   5.293 -0.1941  2.0560  0.5250
   46MOL   H48222172   3.997   5.335   5.112 -0.3599 -1.2522  1.3743
   47MOL     O122173   1.091   4.974   0.569 -0.0262 -0.0092 -0.0096
   47MOL     C222174   1.135   5.093   0.634  0.1386 -0.5297 -0.6002
   47MOL     C322175   1.022   5.199   0.616 -0.5122  0.1078 -0.2275
   47MOL     C422176   1.020   5.321   0.716 -0.3405 -0.8682 -0.3411
   47MOL     C522177   0.911   5.430   0.686  0.0304 -0.4365  0.1669
   47MOL     O622178   0.778   5.386   0.711 -0.1396 -0.0483  0.0791
   47MOL     C722179   0.737   5.373   0.837 -0.7685  0.3157  0.1142
   47MOL     O822180   0.796   5.412   0.938 -0.2783  0.1481  0.3959
   47MOL     C922181   0.590   5.316   0.847  0.1291 -0.3008 -0.7974
   47MOL    C1022182   0.486   5.413   0.790 -0.1969 -0.8670 -0.6063
   47MOL    C1122183   0.342   5.388   0.844 -0.2430  0.5082  0.3359
   47MOL    O1222184   0.263   5.479   0.860  0.7741  0.7682 -0.2642
   47MOL    H1322185   1.153   5.069   0.739 -0.2535  1.1129 -0.1494
   47MOL    H1422186   1.225   5.130   0.586  0.3439  0.1310  0.2890
   47MOL    H1522187   0.928   5.145   0.616  0.8715 -2.3880  0.5733
   47MOL    H1622188   1.030   5.241   0.516 -1.9517 -0.1881 -0.4718
   47MOL    H1722189   1.117   5.369   0.710  0.3915 -2.3410 -0.4915
   47MOL    H1822190   1.018   5.288   0.820  3.1300 -0.3787 -0.0596
   47MOL    H1922191   0.931   5.515   0.751 -0.3716  0.2047 -0.5418
   47MOL    H2022192   0.917   5.469   0.585  0.3375 -2.5064 -0.6417
   47MOL    H2122193   0.570   5.290   0.951  1.0590  2.0201 -0.0037
   47MOL    H2222194   0.590   5.223   0.790  2.6632 -0.6537 -0.2864
   47MOL    H2322195   0.522   5.512   0.818  1.1566 -1.7299  0.8430
   47MOL    H2422196   0.503   5.404   0.683 -0.0494 -0.0628 -0.6583
   47MOL    H2522197   1.016   4.941   0.615 -0.6815  1.0653 -0.2979
   47MOL    O2622198   0.324   5.259   0.885 -0.5902 -0.1920  0.0297
   47MOL    C2722199   0.197   5.207   0.921 -0.4348 -0.3071  0.2778
   47MOL    C2822200   0.219   5.068   0.991  0.1401 -0.1058  0.2771
   47MOL    C2922201   0.095   5.023   1.072  0.1547  0.1632 -0.5780
   47MOL    C3022202   7.842   5.006   0.990 -0.9475  0.4074 -0.3788
   47MOL    O3122203   7.780   5.128   0.947 -0.3825  0.0885  0.2725
   47MOL    C3222204   7.685   5.192   1.023 -0.5477 -0.4303  0.5084
   47MOL    O3322205   7.646   5.158   1.134  0.1336  0.5217  0.2697
   47MOL    C3422206   7.634   5.318   0.958 -0.2182  0.3174 -0.3675
   47MOL    C3522207   7.737   5.429   0.949 -0.9600 -0.3586  0.5865
   47MOL    C3622208   7.730   5.518   1.072  0.2181 -0.5468  0.0542
   47MOL    O3722209   7.809   5.495   1.162 -0.0436  0.2171 -0.0418
   47MOL    H3822210   0.156   5.269   1.001 -1.3384 -1.5032  0.7565
   47MOL    H3922211   0.128   5.197   0.838  0.2786 -1.0872 -0.2210
   47MOL    H4022212   0.299   5.083   1.064  1.0230 -2.1065 -0.2361
   47MOL    H4122213   0.252   4.990   0.922 -1.5103 -0.1690 -0.4699
   47MOL    H4222214   0.077   5.096   1.151 -1.2166 -1.0524  0.2689
   47MOL    H4322215   0.127   4.928   1.117  0.2250  0.1468 -0.6626
   47MOL    H4422216   7.860   4.958   0.894 -1.9644  1.2951 -1.0213
   47MOL    H4522217   7.767   4.947   1.043  0.9923 -0.5088  1.4465
   47MOL    H4622218   7.552   5.356   1.020  0.8984  0.9828  0.7137
   47MOL    H4722219   7.576   5.304   0.866 -1.4315 -0.7322  0.5364
   47MOL    H4822220   7.832   5.379   0.936 -1.2562 -0.8662  0.3667
   47MOL    H4922221   7.710   5.484   0.859  1.9355 -2.8674 -1.8908
   47MOL    O5022222   7.633   5.616   1.066  1.1535  0.5679  0.2353
   47MOL    C5122223   7.615   5.697   1.181 -0.2062  0.0929 -0.2952
   47MOL    C5222224   7.483   5.674   1.250  0.1552 -0.9354  0.4692
   47MOL    C5322225   7.474   5.526   1.299 -0.2329 -0.6073  0.4126
   47MOL    C5422226   7.354   5.518   1.396 -0.3332  0.3146  0.8990
   47MOL    O5522227   7.241   5.547   1.319  0.2063  0.2095  0.2439
   47MOL    C5622228   7.127   5.552   1.383  0.0457 -0.8898  0.3617
   47MOL    O5722229   7.112   5.548   1.505 -0.2103 -0.3857  0.4584
   47MOL    C5822230   7.010   5.561   1.292  0.1905  0.2561 -0.1957
   47MOL    C5922231   6.983   5.708   1.246  0.0049 -0.7874 -0.1986
   47MOL    C6022232   7.075   5.752   1.125 -0.2617  0.6003 -0.5591
   47MOL    O6122233   7.170   5.826   1.143 -0.7124 -0.2936 -0.3138
   47MOL    H6222234   7.697   5.686   1.252  0.3481 -1.3619 -1.1433
   47MOL    H6322235   7.617   5.800   1.145 -0.9047  0.2719  0.1668
   47MOL    H6422236   7.401   5.712   1.189  0.1957  1.0582  1.6217
   47MOL    H6522237   7.488   5.747   1.330  0.4549  0.8496 -1.1370
   47MOL    H6622238   7.562   5.502   1.359 -1.4066  0.1939  2.5293
   47MOL    H6722239   7.461   5.460   1.214 -1.9085 -0.0847  0.2590
   47MOL    H6822240   7.357   5.416   1.433 -0.4199 -0.1869 -0.4350
   47MOL    H6922241   7.356   5.592   1.475 -2.8086  0.3241  0.9873
   47MOL    H7022242   6.930   5.522   1.355  1.4587 -2.2413 -0.0885
   47MOL    H7122243   7.012   5.490   1.210  0.9799 -0.4199  0.3934
   47MOL    H7222244   6.882   5.732   1.213 -1.2491 -0.9990  3.2039
   47MOL    H7322245   7.002   5.777   1.328  1.4197 -2.1027  0.6109
   47MOL    O7422246   7.044   5.696   1.003  0.3558  0.2551 -0.0081
   47MOL    C7522247   7.113   5.737   0.882  0.3947  0.3082  0.0707
   47MOL    C7622248   7.236   5.658   0.849  0.0100 -0.1755 -0.0017
   47MOL    C7722249   7.241   5.641   0.704 -0.7513 -0.4806 -0.8510
   47MOL    C7822250   7.366   5.567   0.658  0.3902  0.0437 -0.0209
   47MOL    O7922251   7.478   5.667   0.640  0.3328 -0.0818 -0.7449
   47MOL    C8022252   7.474   5.745   0.528  0.6309 -0.1491 -0.2137
   47MOL    O8122253   7.410   5.720   0.426 -0.4087 -0.0807  0.0221
   47MOL    C8222254   7.558   5.875   0.551 -0.2468 -0.0814 -0.0715
   47MOL    C8322255   7.464   5.998   0.592  0.1322  0.3298  0.4966
   47MOL    C8422256   7.482   6.029   0.739 -0.1663  0.2268  0.7225
   47MOL    O8522257   7.491   5.940   0.825  0.1975  0.4340 -0.2897
   47MOL    H8622258   7.034   5.728   0.808 -0.8783  1.0346  1.3201
   47MOL    H8722259   7.133   5.844   0.880 -1.0184  0.5873  0.4032
   47MOL    H8822260   7.226   5.559   0.893 -0.9733 -0.9938 -2.0355
   47MOL    H8922261   7.320   5.716   0.888 -0.2319 -0.8895  1.6155
   47MOL    H9022262   7.225   5.730   0.644 -2.7352  0.1883  0.6317
   47MOL    H9122263   7.154   5.577   0.687 -1.8319  1.2037 -1.7529
   47MOL    H9222264   7.402   5.496   0.732  0.6494 -0.7876 -0.9370
   47MOL    H9322265   7.347   5.518   0.562 -1.0896 -0.4322  0.4904
   47MOL    H9422266   7.617   5.905   0.465 -1.6501 -0.0463 -1.0295
   47MOL    H9522267   7.626   5.851   0.633  0.2097  2.2100  0.2290
   47MOL    H9622268   7.484   6.096   0.550 -1.7576 -0.6363 -2.8308
   47MOL    H9722269   7.362   5.978   0.560 -0.3089  2.6858  0.3709
   47MOL    O9822270   7.490   6.158   0.759  0.1770 -0.2246  0.1489
   47MOL    C9922271   7.515   6.204   0.896  0.6511 -0.3325  0.1012
   47MOL   C10022272   7.464   6.349   0.904 -0.4268  0.0804 -0.7215
   47MOL   C10122273   7.300   6.357   0.905 -1.0350 -0.6269 -0.3930
   47MOL   C10222274   7.256   6.492   0.957  0.3811  0.5255  0.0909
   47MOL   O10322275   7.306   6.517   1.087  0.1474 -0.1523 -0.2947
   47MOL   C10422276   7.299   6.638   1.134 -0.1276  0.4375  0.4812
   47MOL   O10522277   7.253   6.736   1.077 -0.1053  0.2401  0.5551
   47MOL   C10622278   7.382   6.652   1.262  0.4104  0.1941 -0.2638
   47MOL   C10722279   7.309   6.583   1.379 -0.0959 -0.7640 -0.1055
   47MOL   C10822280   7.264   6.681   1.482  0.5181  0.2786  0.4239
   47MOL   O10922281   7.171   6.759   1.461 -0.3196 -0.1990  0.3816
   47MOL   H11022282   7.446   6.154   0.963  1.0470  2.1007  2.3842
   47MOL   H11122283   7.615   6.200   0.940 -0.3531  1.0708  2.5889
   47MOL   H11222284   7.518   6.395   0.822  1.1750  0.0546  0.2938
   47MOL   H11322285   7.500   6.387   1.000  0.7552 -0.9944 -0.7202
   47MOL   H11422286   7.259   6.285   0.975 -2.0575  1.0234  0.7268
   47MOL   H11522287   7.271   6.330   0.803 -2.2241  2.0331 -0.8010
   47MOL   H11622288   7.284   6.569   0.884 -0.1253  0.7487  0.1287
   47MOL   H11722289   7.147   6.492   0.957  0.3685  0.3693 -1.1134
   47MOL   H11822290   7.408   6.756   1.282 -2.6361  0.5244  2.4702
   47MOL   H11922291   7.480   6.608   1.241  1.2007  2.5510 -1.6823
   47MOL   H12022292   7.214   6.543   1.344 -0.1426  0.8676 -1.9288
   47MOL   H12122293   7.377   6.509   1.421  0.6597 -0.4894 -0.8191
   47MOL   O12222294   7.317   6.655   1.598 -0.2537 -0.5846 -0.2604
   47MOL   C12322295   7.274   6.739   1.703  0.9854 -0.0485  0.1710
   47MOL   C12422296   7.281   6.665   1.842 -0.7534 -0.3813  0.2866
   47MOL   C12522297   7.235   6.754   1.953  0.5869 -0.3365 -0.3117
   47MOL   C12622298   7.085   6.725   1.997 -1.0638  0.0041  0.2290
   47MOL   O12722299   7.075   6.596   2.049  0.4636 -0.2334 -0.0540
   47MOL   C12822300   7.063   6.573   2.182  0.3358 -0.7883  0.2163
   47MOL   O12922301   7.033   6.656   2.267  0.1849  0.5496  0.0268
   47MOL   C13022302   7.097   6.425   2.217  0.1547  0.1457  0.2052
   47MOL   C13122303   7.245   6.388   2.219  0.5195 -0.0288  0.2474
   47MOL   C13222304   7.271   6.280   2.119 -0.8058  0.2298  0.3443
   47MOL   O13322305   7.327   6.170   2.148  0.3287  0.0344  0.3207
   47MOL   H13422306   7.335   6.830   1.703  0.2148  0.4684  1.6253
   47MOL   H13522307   7.172   6.775   1.690  1.7495  2.4782  0.8706
   47MOL   H13622308   7.384   6.630   1.846 -0.7014 -0.2472  0.1544
   47MOL   H13722309   7.225   6.572   1.835  0.5420 -1.1889  0.5528
   47MOL   H13822310   7.228   6.858   1.922  0.3348 -0.9096 -2.2272
   47MOL   H13922311   7.309   6.751   2.033  2.3480  0.3557 -1.8804
   47MOL   H14022312   7.044   6.802   2.061  0.6425  0.7054  0.5169
   47MOL   H14122313   7.022   6.726   1.908 -2.8934 -0.2752  1.5110
   47MOL   H14222314   7.041   6.356   2.153  1.3446 -0.7931  0.1749
   47MOL   H14322315   7.049   6.413   2.314 -1.4126 -1.0587 -0.6837
   47MOL   H14422316   7.307   6.476   2.200 -0.2614  0.0325 -2.1555
   47MOL   H14522317   7.273   6.353   2.318  3.0197 -0.4425 -0.5763
   47MOL   O14622318   7.246   6.322   1.994 -0.1120  0.5077 -0.2681
   47MOL   C14722319   7.269   6.224   1.885  0.3940 -0.6236  0.3544
   47MOL   C14822320   7.203   6.280   1.748  0.1265  0.7252 -0.4207
   47MOL   C14922321   7.058   6.333   1.773 -0.6465  0.3901 -0.4548
   47MOL   C15022322   6.949   6.227   1.788  0.7170  0.6327  0.2558
   47MOL   O15122323   6.958   6.160   1.912 -0.1788  0.3672  0.2649
   47MOL   C15222324   6.854   6.087   1.959  0.5382  0.2115  0.3884
   47MOL   O15322325   6.748   6.064   1.888 -0.4349 -0.3977  0.0944
   47MOL   C15422326   6.873   6.033   2.099 -0.0271  0.3733 -1.1484
   47MOL   C15522327   7.011   6.047   2.154 -0.1494  0.4180  0.3569
   47MOL   C15622328   7.094   5.920   2.136 -0.2662 -0.4471 -0.7558
   47MOL   O15722329   7.134   5.857   2.229  0.1563 -0.4045  0.6994
   47MOL   H15822330   7.375   6.215   1.862  0.5165 -1.5042  1.2191
   47MOL   H15922331   7.247   6.118   1.903 -0.8766 -0.5306 -0.5586
   47MOL   H16022332   7.206   6.197   1.678  0.1299 -3.1258  3.8896
   47MOL   H16122333   7.271   6.356   1.710  1.9738  0.6708  2.5826
   47MOL   H16222334   7.041   6.410   1.698 -0.4823  0.5344 -0.3435
   47MOL   H16322335   7.051   6.394   1.863 -0.2001  1.1212 -0.9175
   47MOL   H16422336   6.849   6.268   1.777  0.0578 -1.0600 -0.2517
   47MOL   H16522337   6.943   6.156   1.706 -0.8366 -0.1298  1.0128
   47MOL   H16622338   6.838   5.931   2.091 -1.5381  0.7004  0.7554
   47MOL   H16722339   6.806   6.087   2.166  0.8509  0.2603 -0.1626
   47MOL   H16822340   7.057   6.135   2.108  2.2308 -1.7066 -1.4717
   47MOL   H16922341   7.000   6.072   2.260  0.3200  0.9816  0.2736
   47MOL   O17022342   7.106   5.897   1.999 -0.0143 -0.2242  0.2350
   47MOL   C17122343   7.181   5.782   1.960  0.1332  0.0758  0.3524
   47MOL   C17222344   7.156   5.758   1.811 -0.2250  0.1748  0.9330
   47MOL   C17322345   7.230   5.860   1.723 -0.2532  0.0710 -0.5839
   47MOL   C17422346   7.199   5.845   1.575  0.5074 -0.7167  0.5876
   47MOL   O17522347   7.268   5.940   1.491 -0.3872  0.2620  0.7293
   47MOL   C17622348   7.209   6.004   1.388 -0.1332 -0.5360 -0.1546
   47MOL   O17722349   7.087   6.006   1.366 -0.2436 -0.2992 -1.0266
   47MOL   C17822350   7.307   6.069   1.296  0.5293 -0.5028  0.7423
   47MOL   C17922351   7.324   6.216   1.304 -0.9891  0.7468 -0.1887
   47MOL   C18022352   7.452   6.262   1.360 -0.0306 -0.3609  0.2533
   47MOL   O18122353   7.484   6.251   1.477 -0.0329 -0.1789 -0.5431
   47MOL   H18222354   7.289   5.784   1.974  0.0103 -0.5035  1.4327
   47MOL   H18322355   7.152   5.687   2.004 -0.9802  0.3350  0.1922
   47MOL   H18422356   7.050   5.769   1.789  0.1114  1.0034 -0.3040
   47MOL   H18522357   7.194   5.660   1.780 -0.3177  1.4471 -3.5663
   47MOL   H18622358   7.338   5.852   1.738 -0.0408  2.2494 -0.9212
   47MOL   H18722359   7.197   5.958   1.756  2.2155  1.1118 -1.0637
   47MOL   H18822360   7.246   5.750   1.548 -0.1737 -0.9606  0.2492
   47MOL   H18922361   7.092   5.847   1.557  0.8798  3.3476 -1.6231
   47MOL   H19022362   7.284   6.043   1.193  1.5132  0.8243  0.1771
   47MOL   H19122363   7.395   6.014   1.329  1.4122 -0.1805 -1.0094
   47MOL   H19222364   7.290   6.271   1.215 -2.1575  1.7302  0.8415
   47MOL   H19322365   7.240   6.250   1.365  0.7295  1.5641  1.7745
   47MOL   O19422366   7.530   6.318   1.265  0.6309 -0.0742  0.2704
   47MOL   C19522367   7.655   6.351   1.304 -0.1960  0.7353 -0.3173
   47MOL   C19622368   7.750   6.352   1.190 -0.0609  0.3789  0.4448
   47MOL   C19722369   7.810   6.212   1.153 -0.3928  0.3903 -0.4684
   47MOL   C19822370   0.046   6.159   1.246  1.2499 -0.5608 -0.0330
   47MOL   O19922371   0.007   6.125   1.376 -0.7818  0.3244  0.1768
   47MOL   C20022372   7.815   6.007   1.395  0.5883 -0.4511  0.3019
   47MOL   O20122373   7.795   5.925   1.310  0.2193 -0.3441 -0.3026
   47MOL   C20222374   7.777   5.992   1.532 -0.0981  0.0124  0.1071
   47MOL   C20322375   7.633   5.966   1.574  0.0914  0.2575  0.3066
   47MOL   C20422376   7.621   5.871   1.694 -0.4582 -0.9662 -0.6326
   47MOL   O20522377   7.577   5.756   1.682 -0.4078 -1.0891  0.3264
   47MOL   H20622378   7.648   6.454   1.339 -1.0682  0.5051  0.1900
   47MOL   H20722379   7.694   6.296   1.390 -0.4796  1.0358  0.0084
   47MOL   H20822380   7.832   6.417   1.220  0.1153 -0.5003  1.9189
   47MOL   H20922381   7.704   6.396   1.101 -1.6625 -1.7737  0.1597
   47MOL   H21022382   7.850   6.216   1.051  0.1469 -3.1315 -0.4641
   47MOL   H21122383   7.722   6.149   1.140  0.0695 -0.3483 -0.0595
   47MOL   H21222384   0.104   6.081   1.198  1.0695  0.3503 -1.7689
   47MOL   H21322385   0.111   6.243   1.271  0.2336  0.2893 -0.1949
   47MOL   H21422386   7.809   6.081   1.587  1.3969 -0.2697 -0.2807
   47MOL   H21522387   7.832   5.906   1.570 -0.8422  0.0654  1.3284
   47MOL   H21622388   7.582   6.060   1.588  1.3649  1.2252 -1.2846
   47MOL   H21722389   7.585   5.921   1.487  0.3834 -0.0252  0.2873
   47MOL   O21822390   7.675   5.915   1.808  0.2028 -0.1667  0.4199
   47MOL   C21922391   7.679   5.837   1.921  0.7595 -0.4548  0.5008
   47MOL   C22022392   7.617   5.915   2.039  0.8587 -0.9354 -0.4140
   47MOL   C22122393   7.718   6.007   2.113 -0.3629  0.2340 -0.3274
   47MOL   C22222394   7.644   6.111   2.200 -0.2135 -0.0865  0.1127
   47MOL   O22322395   7.548   6.055   2.287  0.5553 -0.1444  0.0395
   47MOL   C22422396   7.515   6.136   2.385  0.5242 -0.3525  0.1556
   47MOL   O22522397   7.566   6.242   2.416 -0.1335 -0.0243 -0.4924
   47MOL   C22622398   7.394   6.083   2.464  0.3394 -0.2019 -0.0251
   47MOL   C22722399   7.359   6.155   2.597  0.1578 -0.3100 -0.3069
   47MOL   C22822400   7.442   6.107   2.717  0.7470  0.5437 -0.5132
   47MOL   O22922401   7.561   6.111   2.718  0.6312  0.2007 -0.3196
   47MOL   H23022402   7.621   5.748   1.895  0.8022  0.7279 -4.0402
   47MOL   H23122403   7.781   5.817   1.952  0.9526  0.8496  0.7365
   47MOL   H23222404   7.584   5.843   2.114 -0.9591  1.6639  1.4152
   47MOL   H23322405   7.525   5.968   2.011 -0.0236 -2.4872 -0.4961
   47MOL   H23422406   7.779   6.045   2.030 -0.1709 -0.1681 -0.3703
   47MOL   H23522407   7.789   5.952   2.174  0.1615  3.1960  1.8053
   47MOL   H23622408   7.725   6.170   2.242  0.2684 -0.0341 -0.8818
   47MOL   H23722409   7.589   6.170   2.127  0.9300  1.3516  0.3945
   47MOL   H23822410   7.395   5.975   2.479 -0.2446  0.1205  2.4753
   47MOL   H23922411   7.305   6.109   2.406  0.3665  1.5668  0.6927
   47MOL   H24022412   7.366   6.264   2.592  0.2037 -0.2036  1.6868
   47MOL   H24122413   7.256   6.136   2.625  0.9996 -0.6364  2.7393
   47MOL   O24222414   7.356   6.075   2.815 -0.2208  0.2838 -0.4568
   47MOL   C24322415   7.407   6.021   2.936  0.5918 -0.4251 -1.4470
   47MOL   C24422416   7.287   5.994   3.023  1.0434 -0.1853  0.6378
   47MOL   C24522417   7.249   6.123   3.090 -0.4819 -0.1194  0.5041
   47MOL   C24622418   7.123   6.123   3.175  0.9109  0.2822  0.2580
   47MOL   O24722419   7.107   6.241   3.250 -0.3950  0.3104 -0.3082
   47MOL   C24822420   7.035   6.341   3.203 -0.3548  0.7851 -0.3241
   47MOL   O24922421   6.972   6.340   3.096 -0.2902 -0.1052  0.4399
   47MOL   C25022422   7.046   6.466   3.289 -0.3817 -0.4006  0.3541
   47MOL   C25122423   6.908   6.513   3.342 -0.5201  0.4313  0.0797
   47MOL   C25222424   6.880   6.428   3.466 -0.4676 -0.0519  0.2352
   47MOL   O25322425   6.785   6.354   3.481 -0.4770 -0.1801  0.0320
   47MOL   H25422426   7.465   5.932   2.914  0.5856 -0.7434 -0.2018
   47MOL   H25522427   7.477   6.093   2.978 -0.1636 -1.2617  1.2881
   47MOL   H25622428   7.317   5.911   3.088 -0.3386 -0.2721  1.1757
   47MOL   H25722429   7.210   5.954   2.958 -0.5182  1.6667  1.3119
   47MOL   H25822430   7.236   6.203   3.017  0.2642 -1.4144 -1.0865
   47MOL   H25922431   7.339   6.153   3.144 -0.4738 -0.9134  0.9365
   47MOL   H26022432   7.032   6.108   3.117  1.8386 -1.9481 -0.6630
   47MOL   H26122433   7.133   6.047   3.252  0.5416  1.0157  1.0393
   47MOL   H26222434   7.097   6.533   3.220 -1.1730  1.9356  2.0038
   47MOL   H26322435   7.125   6.441   3.359  1.1118 -1.7243 -1.7572
   47MOL   H26422436   6.892   6.616   3.374 -2.0569  0.0956  0.4049
   47MOL   H26522437   6.832   6.476   3.274  1.2149 -0.7668 -1.2640
   47MOL   O26622438   6.959   6.462   3.569 -0.0406  0.5119 -0.0146
   47MOL   C26722439   6.949   6.399   3.696  0.4828 -0.1160  0.2060
   47MOL   C26822440   7.065   6.315   3.745  0.2908  0.6300 -0.1654
   47MOL   C26922441   7.062   6.262   3.886  0.0088 -0.2366  0.3797
   47MOL   C27022442   7.197   6.193   3.923 -0.3117  0.2022 -0.2978
   47MOL   O27122443   7.226   6.096   3.826  0.4479 -0.3183 -0.3531
   47MOL   C27222444   7.311   5.998   3.851 -0.1447  0.2930  0.2763
   47MOL   O27322445   7.354   5.964   3.960 -0.4360 -0.3352 -0.3568
   47MOL   C27422446   7.356   5.923   3.722  0.2390 -0.9230 -0.0178
   47MOL   C27522447   7.232   5.851   3.665  0.2598  0.9273  0.0548
   47MOL   C27622448   7.152   5.935   3.569  0.3981  0.6529  0.5168
   47MOL   O27722449   7.169   6.058   3.554  0.4810 -0.1798 -0.4957
   47MOL   H27822450   6.928   6.472   3.774  0.7240 -0.1232  0.2791
   47MOL   H27922451   6.855   6.344   3.693  0.5649 -0.3142  1.1254
   47MOL   H28022452   7.155   6.376   3.752  0.1603  0.8149 -0.1076
   47MOL   H28122453   7.065   6.226   3.682 -0.0843 -0.5806  1.5038
   47MOL   H28222454   6.980   6.192   3.898  2.8773 -4.2016 -1.8272
   47MOL   H28322455   7.050   6.353   3.945 -1.2189 -0.2212  0.1049
   47MOL   H28422456   7.263   6.278   3.905  1.3703 -0.9621  0.2985
   47MOL   H28522457   7.212   6.162   4.027  2.7481  1.5672 -0.2744
   47MOL   H28622458   7.420   5.843   3.758 -1.7119 -3.5523 -2.2485
   47MOL   H28722459   7.404   5.986   3.647 -1.6279 -0.2052 -0.6510
   47MOL   H28822460   7.260   5.756   3.619 -0.0163  1.6602 -1.6598
   47MOL   H28922461   7.163   5.833   3.748  1.7596  1.4034  1.4442
   47MOL   O29022462   7.052   5.873   3.501  0.0464  0.4310 -0.5928
   47MOL   C29122463   6.935   5.931   3.444 -0.3284  0.1998 -0.1440
   47MOL   C29222464   6.819   5.929   3.542 -0.8473 -0.1850 -0.1767
   47MOL   C29322465   6.752   5.791   3.545 -0.5302 -0.2041 -0.1591
   47MOL   C29422466   6.658   5.774   3.662  0.1870  0.4557  0.2699
   47MOL   O29522467   6.723   5.776   3.783  0.3676 -0.5173 -0.5536
   47MOL   C29622468   6.653   5.815   3.892  0.3943  0.6690  0.5790
   47MOL   O29722469   6.538   5.849   3.892 -0.8327  0.0882  0.6947
   47MOL   C29822470   6.744   5.814   4.016 -0.1528 -0.2292 -0.1393
   47MOL   C29922471   6.664   5.829   4.150 -0.0815 -0.0958 -0.1848
   47MOL   C30022472   6.716   5.728   4.249  0.1813  0.0854  0.3856
   47MOL   O30122473   6.833   5.718   4.284  0.0396 -0.2724  0.2952
   47MOL   H30222474   6.954   6.034   3.415  0.4742  0.2352  0.5236
   47MOL   H30322475   6.902   5.879   3.353  0.3747 -0.5597  0.0348
   47MOL   H30422476   6.744   6.008   3.536  1.6971  2.3552  0.6242
   47MOL   H30522477   6.867   5.956   3.635 -0.2039  2.2668 -1.1764
   47MOL   H30622478   6.842   5.729   3.551  0.4371  1.2432  0.4693
   47MOL   H30722479   6.708   5.770   3.448  2.0542  2.2537 -1.9582
   47MOL   H30822480   6.579   5.849   3.657 -1.6703 -1.3446  1.7541
   47MOL   H30922481   6.618   5.673   3.664  0.9836  0.1230 -0.4840
   47MOL   H31022482   6.827   5.885   4.015 -1.3004  1.1302  0.3410
   47MOL   H31122483   6.792   5.717   4.028 -0.8193 -0.5195  0.1676
   47MOL   H31222484   6.689   5.915   4.211 -0.3988 -1.0718  1.3639
   47MOL   H31322485   6.559   5.815   4.126 -0.3810  1.1424  0.3911
   47MOL   O31422486   6.616   5.641   4.273 -0.1912  0.2403 -0.2765
   47MOL   C31522487   6.632   5.557   4.388 -0.3032  0.2076 -0.3697
   47MOL   C31622488   6.670   5.409   4.338 -0.4533 -0.1815  0.3420
   47MOL   C31722489   6.742   5.321   4.442  0.0664 -0.2184  0.0813
   47MOL   C31822490   6.791   5.187   4.380 -0.2592  0.1391 -0.6314
   47MOL   O31922491   6.679   5.108   4.359 -0.2501  0.4986 -0.3674
   47MOL   C32022492   6.647   5.011   4.453  0.1394 -0.5818 -0.9560
   47MOL   O32122493   6.714   4.980   4.554 -0.2816 -0.1563  0.1703
   47MOL   C32222494   6.509   4.950   4.441 -0.2406 -0.3630  0.2770
   47MOL   C32322495   6.450   4.969   4.293  0.5032 -0.6532 -1.1691
   47MOL   C32422496   6.327   5.060   4.293 -0.1461 -0.2256 -0.5326
   47MOL   O32522497   6.286   5.123   4.393 -0.0152  0.2293  0.1231
   47MOL   H32622498   6.700   5.604   4.459 -1.4256  1.3325 -0.0277
   47MOL   H32722499   6.541   5.566   4.448  0.0205  0.0243  0.1546
   47MOL   H32822500   6.736   5.409   4.251 -0.0136 -1.4021  0.6558
   47MOL   H32922501   6.583   5.360   4.294 -2.4656  1.8312  2.0081
   47MOL   H33022502   6.675   5.306   4.527  0.0320  2.3692  0.5588
   47MOL   H33122503   6.826   5.375   4.487  1.2312 -0.9125 -1.2323
   47MOL   H33222504   6.838   5.206   4.283  0.9817 -2.2026 -0.5275
   47MOL   H33322505   6.864   5.131   4.438 -1.9628 -1.6567 -0.1393
   47MOL   H33422506   6.452   5.011   4.511  1.0158  1.1498  0.0121
   47MOL   H33522507   6.490   4.847   4.470  0.1951 -0.5118  0.0457
   47MOL   H33622508   6.525   5.001   4.221  0.1264  1.6012 -0.6019
   47MOL   H33722509   6.425   4.868   4.259  1.9458 -1.1546 -0.7840
   47MOL   O33822510   6.267   5.054   4.176  0.2216 -0.6161  0.1594
   47MOL   C33922511   6.151   5.127   4.140 -0.0225 -0.2015  0.3458
   47MOL   C34022512   6.059   5.057   4.042  0.5173  0.0995 -0.4561
   47MOL   C34122513   5.997   4.925   4.092 -0.1457  1.0525 -0.0584
   47MOL   C34222514   5.900   4.934   4.204  0.8192 -0.1353 -0.6619
   47MOL   O34322515   5.953   4.956   4.330 -0.1636 -0.2174 -0.0599
   47MOL   C34422516   5.891   5.037   4.422  1.1652 -0.2247  0.6650
   47MOL   O34522517   5.775   5.080   4.409  0.4441 -0.3127 -0.1135
   47MOL   C34622518   5.987   5.071   4.536 -0.6970  0.1607  0.0633
   47MOL   C34722519   5.912   5.043   4.667  0.3094  0.7885 -0.1263
   47MOL   C34822520   5.896   5.154   4.766  0.3197  0.5216  0.2490
   47MOL   O34922521   5.993   5.202   4.825 -0.3103  0.0631 -0.4158
   47MOL   H35022522   6.096   5.139   4.233 -2.4346 -0.1182 -1.0613
   47MOL   H35122523   6.172   5.227   4.102 -0.6393 -0.4364 -0.6211
   47MOL   H35222524   6.113   5.037   3.949  0.5070  0.6696 -0.5868
   47MOL   H35322525   5.974   5.118   4.010  0.0244 -0.1965  0.2939
   47MOL   H35422526   6.070   4.850   4.121 -2.2005 -1.5454 -1.2959
   47MOL   H35522527   5.947   4.875   4.009  0.1581  3.0555 -1.4727
   47MOL   H35622528   5.825   5.009   4.180 -0.3370 -0.2841  2.2679
   47MOL   H35722529   5.845   4.840   4.212 -0.3563  0.5647 -0.3254
   47MOL   H35822530   6.023   5.174   4.535  0.1149 -0.1252 -1.0568
   47MOL   H35922531   6.074   5.005   4.543 -0.0713  0.8015 -1.4249
   47MOL   H36022532   5.810   5.008   4.656  0.3453  0.7234 -0.2626
   47MOL   H36122533   5.964   4.963   4.721 -2.0019 -0.5607  0.1373
   47MOL   O36222534   5.768   5.188   4.785 -0.4782  0.6167 -0.2796
   47MOL   C36322535   5.734   5.303   4.854 -0.0829 -0.2864 -0.1530
   47MOL   C36422536   5.618   5.261   4.948 -0.5359 -0.2698  0.0240
   47MOL   C36522537   5.551   5.374   5.021  0.0989  0.7274 -0.1093
   47MOL   C36622538   5.438   5.331   5.109 -0.1470 -0.4283 -0.3893
   47MOL   O36722539   5.390   5.441   5.177  0.7459  0.2445  0.1363
   47MOL   C36822540   5.257   5.472   5.183  0.5168 -0.1297  0.3024
   47MOL   O36922541   5.174   5.409   5.117  0.3698 -0.1940 -0.0410
   47MOL   C37022542   5.219   5.591   5.271  0.1911  0.5717  0.1166
   47MOL   C37122543   5.084   5.673   5.232  0.5484  0.2415  0.0805
   47MOL   C37222544   5.117   5.799   5.152  0.3902 -0.3805  0.0465
   47MOL   O37322545   5.223   5.861   5.169  0.2032 -0.2719  0.3840
   47MOL   H37422546   5.815   5.354   4.906  1.2277  0.6607 -3.0677
   47MOL   H37522547   5.696   5.391   4.803  0.3894 -1.0350 -1.8112
   47MOL   H37622548   5.656   5.187   5.017 -3.0168 -2.6090 -1.0614
   47MOL   H37722549   5.555   5.194   4.890 -0.0762  0.5868 -1.4941
   47MOL   H37822550   5.510   5.446   4.951  0.1843 -0.6995 -1.6543
   47MOL   H37922551   5.627   5.428   5.079  0.5051 -0.5138  0.5430
   47MOL   H38022552   5.370   5.279   5.042 -1.2127 -0.7278  0.8985
   47MOL   H38122553   5.475   5.255   5.179 -0.8040 -0.5567 -0.1735
   47MOL   H38222554   5.307   5.656   5.271 -0.1500  1.0321  0.2780
   47MOL   H38322555   5.206   5.552   5.372  2.0391 -0.1775  0.0917
   47MOL   H38422556   5.004   5.621   5.179 -0.4837  1.4103  0.4649
   47MOL   H38522557   5.039   5.706   5.325 -2.9626  0.3264 -1.5533
   47MOL   O38622558   5.019   5.832   5.066  0.2023  0.9062 -0.2837
   47MOL   C38722559   5.033   5.945   4.989 -0.2098  0.0415 -0.2104
   47MOL   C38822560   4.909   5.973   4.902 -0.8572 -0.0121 -0.1316
   47MOL   C38922561   4.787   6.022   4.990  0.0228  0.8665 -0.1034
   47MOL   C39022562   4.677   6.042   4.901 -0.0883  0.6404 -0.2422
   47MOL   O39122563   4.627   5.920   4.834  0.3641  0.3056  0.6905
   47MOL   C39222564   4.507   5.927   4.775 -0.5172 -0.8426 -0.0926
   47MOL   O39322565   4.438   6.024   4.748  0.1510 -0.4364  0.6379
   47MOL   C39422566   4.463   5.783   4.735 -0.6517 -0.0788  0.2859
   47MOL   C39522567   4.560   5.726   4.626  0.1248  0.4013  0.5094
   47MOL   C39622568   4.544   5.577   4.597 -0.4363  0.0266 -0.2378
   47MOL   O39722569   4.531   5.496   4.687 -0.4158  0.2216 -0.2951
   47MOL   H39822570   5.054   6.033   5.051  1.1181 -0.5916  0.2593
   47MOL   H39922571   5.122   5.928   4.929  0.1274  0.4895  0.1608
   47MOL   H40022572   4.885   5.879   4.852  1.7333 -0.8656  0.1561
   47MOL   H40122573   4.923   6.039   4.816  0.1668  1.0889  0.8643
   47MOL   H40222574   4.806   6.121   5.031 -1.8920  0.9555  0.5985
   47MOL   H40322575   4.757   5.954   5.070  2.2199 -1.7752 -1.4157
   47MOL   H40422576   4.591   6.068   4.962 -0.0586  1.5350 -0.5724
   47MOL   H40522577   4.705   6.108   4.819 -0.4754  1.5956  0.3921
   47MOL   H40622578   4.358   5.786   4.705  0.2471  0.8121 -3.0412
   47MOL   H40722579   4.482   5.721   4.822 -0.2132  0.4381  0.5565
   47MOL   H40822580   4.543   5.777   4.531  1.2608  0.0506  0.1105
   47MOL   H40922581   4.666   5.748   4.640  0.2756  1.5528 -2.2007
   47MOL   O41022582   4.558   5.548   4.469  0.3110  0.2036 -0.1830
   47MOL   C41122583   4.558   5.411   4.431  0.2454  0.2493 -0.2456
   47MOL   C41222584   4.420   5.344   4.414  0.2546 -0.0015 -0.0775
   47MOL   C41322585   4.324   5.417   4.317  0.3620 -0.5171 -0.8022
   47MOL   C41422586   4.179   5.377   4.321 -0.5794  0.2741 -0.2222
   47MOL   O41522587   4.161   5.237   4.325  0.5693 -0.0560 -0.0964
   47MOL   C41622588   4.160   5.167   4.214  0.7957 -0.1379 -0.2720
   47MOL   O41722589   4.171   5.198   4.093  0.1334  0.5371 -0.6536
   47MOL   C41822590   4.148   5.018   4.244 -0.2984 -0.2192  0.1554
   47MOL   C41922591   4.014   4.988   4.303  0.0483  0.2039  1.0379
   47MOL   C42022592   3.903   4.977   4.197  0.4490 -0.0876  0.4008
   47MOL   O42122593   3.839   4.872   4.187 -0.7822  0.1008 -0.3402
   47MOL   H42222594   4.609   5.427   4.335  1.6923  0.5359  0.5553
   47MOL   H42322595   4.627   5.354   4.493 -0.8614 -0.9022 -0.0551
   47MOL   H42422596   4.370   5.352   4.511 -0.5304 -0.2616 -0.4595
   47MOL   H42522597   4.428   5.238   4.393 -1.0594 -0.3861  1.2614
   47MOL   H42622598   4.347   5.403   4.211 -0.0323 -3.2199 -0.5685
   47MOL   H42722599   4.327   5.522   4.346  1.3768 -0.3937 -1.3246
   47MOL   H42822600   4.141   5.410   4.417  0.3523  1.2935 -0.1864
   47MOL   H42922601   4.112   5.412   4.242  1.0471 -0.7507 -2.0954
   47MOL   H43022602   4.225   5.003   4.320  0.1522 -0.8487 -0.4224
   47MOL   H43122603   4.172   4.953   4.160 -1.1359  0.2715 -0.4684
   47MOL   H43222604   4.014   4.895   4.360 -3.3215 -0.3024  0.3211
   47MOL   H43322605   3.988   5.064   4.377  2.8591 -0.3909  2.6980
   47MOL   O43422606   3.874   5.103   4.142  0.3788  0.6946  0.2883
   47MOL   C43522607   3.782   5.109   4.031 -0.5588 -0.5069  0.3699
   47MOL   C43622608   3.782   5.235   3.949 -0.0072 -0.0456  0.1617
   47MOL   C43722609   3.745   5.350   4.027  0.0935 -0.9550 -1.0235
   47MOL   C43822610   3.782   5.476   3.949 -0.6182 -0.0000  1.1009
   47MOL   O43922611   3.918   5.527   3.971 -0.2965  0.5308 -0.5336
   47MOL   C44022612   4.022   5.517   3.883 -0.8857  0.4779  1.0038
   47MOL   O44122613   4.016   5.461   3.771 -0.1819 -0.1666 -0.5401
   47MOL   C44222614   4.145   5.584   3.942  0.2676 -0.1507  0.6101
   47MOL   C44322615   4.214   5.668   3.834  0.6822  0.2634 -0.0222
   47MOL   C44422616   4.360   5.642   3.823  0.8094 -0.5489  0.0702
   47MOL   O44522617   4.440   5.725   3.871 -0.4321 -0.2762 -0.3608
   47MOL   H44622618   3.790   5.027   3.960 -0.3246  1.4153 -1.9083
   47MOL   H44722619   3.685   5.101   4.079 -0.6008  1.4922  0.6818
   47MOL   H44822620   3.724   5.230   3.857 -0.4337 -0.9556  0.4830
   47MOL   H44922621   3.882   5.244   3.906  0.5947 -3.4663  0.6955
   47MOL   H45022622   3.786   5.344   4.127 -1.0977  1.4561 -0.3642
   47MOL   H45122623   3.636   5.354   4.034  0.1466  0.1174 -0.8165
   47MOL   H45222624   3.766   5.457   3.843  0.4815  0.4816  0.8353
   47MOL   H45322625   3.717   5.552   3.994 -2.0308 -1.0397  0.8387
   47MOL   H45422626   4.208   5.507   3.988 -0.6208 -1.8069 -0.9108
   47MOL   H45522627   4.128   5.655   4.023  0.3295 -0.7983  1.1954
   47MOL   H45622628   4.172   5.647   3.735 -0.8107 -0.0628  0.6705
   47MOL   H45722629   4.191   5.774   3.843 -1.7776 -0.3246  1.2597
   47MOL   O45822630   4.387   5.532   3.752 -0.2248 -0.5250  0.2071
   47MOL   C45922631   4.520   5.482   3.754 -0.1947 -0.5079 -0.0066
   47MOL   C46022632   4.547   5.412   3.892  0.0343  0.3232  0.5827
   47MOL   C46122633   4.689   5.392   3.916 -0.8169 -0.0396 -0.2990
   47MOL   C46222634   4.710   5.304   4.032  0.4674  0.2818 -0.7973
   47MOL   O46322635   4.664   5.174   3.999 -0.2031  0.1088 -0.0507
   47MOL   C46422636   4.613   5.090   4.092 -0.5646  0.2457 -0.4586
   47MOL   O46522637   4.592   5.122   4.213 -0.5655  0.0060  0.0648
   47MOL   C46622638   4.554   4.966   4.027  0.1261  0.2209 -0.1647
   47MOL   C46722639   4.615   4.835   4.085  0.8463  0.7280 -0.6076
   47MOL   C46822640   4.544   4.787   4.219 -0.2333  0.0464  0.0474
   47MOL   O46922641   4.429   4.805   4.236 -0.1449  0.8528  0.5777
   47MOL   H47022642   4.521   5.404   3.678 -0.9992 -0.3620 -0.1660
   47MOL   H47122643   4.596   5.556   3.731 -1.5866  0.3907 -1.7604
   47MOL   H47222644   4.501   5.313   3.890  2.0803 -0.6352 -1.2073
   47MOL   H47322645   4.494   5.457   3.976  2.5233  0.9397  1.8482
   47MOL   H47422646   4.736   5.486   3.942 -1.0759  0.5531 -1.9404
   47MOL   H47522647   4.741   5.355   3.828  0.8849 -2.1597  1.5141
   47MOL   H47622648   4.815   5.302   4.063 -0.0078 -1.2728  0.8406
   47MOL   H47722649   4.659   5.339   4.122  1.4880  0.8422 -0.4291
   47MOL   H47822650   4.572   4.960   3.920 -2.0757 -1.8819 -0.4675
   47MOL   H47922651   4.446   4.958   4.033  0.2832 -1.3495  1.2752
   47MOL   H48022652   4.614   4.751   4.015 -1.8516  0.5213 -0.3540
   47MOL   H48122653   4.721   4.849   4.106  0.8765  1.7533 -1.4231
   47MOL   H48222654   4.606   4.731   4.289  0.8207  1.3647  0.1973
   48MOL     O122655   4.244   3.301   4.470  0.4231  0.1162 -0.3667
   48MOL     C222656   4.169   3.365   4.576  0.6177  0.1028  0.2605
   48MOL     C322657   4.223   3.513   4.558  0.5223 -0.0448 -0.6678
   48MOL     C422658   4.360   3.530   4.624  0.1823  0.4619 -0.9558
   48MOL     C522659   4.411   3.666   4.636 -0.2116 -0.0183  0.1932
   48MOL     O622660   4.331   3.746   4.724 -0.1157 -0.4271  0.2030
   48MOL     C722661   4.320   3.731   4.862 -0.2180 -1.4384 -0.4336
   48MOL     O822662   4.378   3.647   4.928 -0.1239 -0.1180 -0.4308
   48MOL     C922663   4.240   3.845   4.926 -0.1266  0.1849 -0.1385
   48MOL    C1022664   4.091   3.827   4.922  0.1294 -0.8253 -0.5189
   48MOL    C1122665   4.026   3.822   5.061 -0.7255  0.4643 -0.2862
   48MOL    O1222666   3.917   3.878   5.075 -0.1409 -0.2564  0.3636
   48MOL    H1322667   4.065   3.361   4.545  0.0475  0.5306  2.0599
   48MOL    H1422668   4.189   3.316   4.671 -0.0392 -0.3029  0.1936
   48MOL    H1522669   4.145   3.562   4.616 -0.7193 -0.6503 -1.8091
   48MOL    H1622670   4.205   3.548   4.456 -0.2793 -0.9648 -0.8552
   48MOL    H1722671   4.444   3.478   4.578  0.6133 -1.4641  1.8810
   48MOL    H1822672   4.352   3.482   4.722 -0.9814  0.7914 -0.8805
   48MOL    H1922673   4.517   3.679   4.658  0.0740 -0.5351 -0.8081
   48MOL    H2022674   4.407   3.721   4.541  0.4629 -0.7634 -0.2670
   48MOL    H2122675   4.265   3.932   4.865  1.2080  0.4102  0.7092
   48MOL    H2222676   4.271   3.859   5.030 -1.6632 -0.1092  0.3740
   48MOL    H2322677   4.045   3.916   4.880  1.7001  1.2965  2.0367
   48MOL    H2422678   4.060   3.739   4.866 -1.9654 -1.8080  2.0628
   48MOL    H2522679   4.336   3.296   4.492  0.5580 -0.1097 -0.9875
   48MOL    O2622680   4.094   3.739   5.141 -0.7527 -0.5743 -0.2660
   48MOL    C2722681   4.037   3.695   5.267 -0.3458 -0.5975 -0.0596
   48MOL    C2822682   3.934   3.580   5.238 -0.1340  0.4227 -0.1677
   48MOL    C2922683   3.998   3.451   5.192 -0.7996  0.2394  0.1938
   48MOL    C3022684   4.031   3.446   5.038 -0.5147 -0.4114 -0.4368
   48MOL    O3122685   4.043   3.313   5.001 -0.1381 -0.4706  0.3287
   48MOL    C3222686   4.159   3.261   4.980 -0.8244  0.2570  0.3197
   48MOL    O3322687   4.264   3.321   4.954  0.4552 -0.8729 -0.1006
   48MOL    C3422688   4.139   3.106   4.969  0.2583 -0.6826 -0.6352
   48MOL    C3522689   4.171   3.052   5.115  0.7539 -0.1605  0.1461
   48MOL    C3622690   4.102   2.921   5.135 -0.2245 -0.2904  0.2993
   48MOL    O3722691   4.026   2.873   5.048  0.1889  0.2674 -0.0377
   48MOL    H3822692   4.119   3.680   5.338  0.7889  2.1990 -0.7158
   48MOL    H3922693   3.980   3.781   5.302  0.1417 -0.7611  1.1740
   48MOL    H4022694   3.865   3.600   5.157 -0.0006  0.5172 -0.2590
   48MOL    H4122695   3.879   3.559   5.330  0.7128 -4.3274 -0.6303
   48MOL    H4222696   3.927   3.370   5.208  1.7788 -1.9353  0.9042
   48MOL    H4322697   4.083   3.428   5.256 -1.7459 -1.8255  0.7366
   48MOL    H4422698   3.946   3.494   4.989 -2.0805 -2.2871  0.4125
   48MOL    H4522699   4.122   3.503   5.021 -0.6779 -0.1285 -0.3855
   48MOL    H4622700   4.199   3.059   4.891  0.5353 -0.2280 -0.6982
   48MOL    H4722701   4.035   3.083   4.943  0.0860 -0.5427 -0.0869
   48MOL    H4822702   4.276   3.032   5.136  0.5278 -1.4582  0.0601
   48MOL    H4922703   4.139   3.122   5.192  1.5405  0.3183  0.0447
   48MOL    O5022704   4.121   2.875   5.259 -0.1012  0.2096 -0.1168
   48MOL    C5122705   4.056   2.755   5.295  0.1238 -0.7062 -0.8580
   48MOL    C5222706   3.935   2.789   5.383  0.1302  0.2571 -0.5712
   48MOL    C5322707   3.859   2.667   5.437 -0.2539 -0.5665 -0.8900
   48MOL    C5422708   3.723   2.711   5.497  0.5280  0.2962  0.1434
   48MOL    O5522709   3.636   2.611   5.541  0.8183 -0.0782 -1.0341
   48MOL    C5622710   3.642   2.569   5.674 -0.4483  0.3700  0.0752
   48MOL    O5722711   3.722   2.591   5.758  0.5674  0.1147  0.2339
   48MOL    C5822712   3.529   2.456   5.699  0.1358  0.0430 -0.2983
   48MOL    C5922713   3.454   2.488   5.831 -0.0504 -0.0841 -0.5509
   48MOL    C6022714   3.338   2.398   5.836  0.0970 -0.1941 -0.7020
   48MOL    O6122715   3.226   2.446   5.825 -0.2194 -0.3162  0.2834
   48MOL    H6222716   4.027   2.687   5.215 -0.0867  0.6284 -1.9284
   48MOL    H6322717   4.128   2.696   5.352  0.9456  1.8130  0.7999
   48MOL    H6422718   3.881   2.833   5.299 -0.0109 -1.6644 -1.5073
   48MOL    H6522719   3.944   2.872   5.454  1.7063  0.1571 -0.6360
   48MOL    H6622720   3.920   2.618   5.512 -0.9810 -3.2094 -1.9655
   48MOL    H6722721   3.850   2.584   5.366  1.0428 -2.8341  1.5343
   48MOL    H6822722   3.737   2.790   5.571  0.7565  0.5063 -0.1216
   48MOL    H6922723   3.660   2.774   5.434 -0.1728  1.1820  1.7160
   48MOL    H7022724   3.573   2.357   5.690  1.0364  0.2498  1.5164
   48MOL    H7122725   3.448   2.464   5.627 -0.2713  1.6963  0.3251
   48MOL    H7222726   3.507   2.457   5.922 -1.4860 -1.5117 -0.1685
   48MOL    H7322727   3.425   2.591   5.848  1.7329  0.3702 -0.1178
   48MOL    O7422728   3.370   2.267   5.858  0.1203 -0.0632  0.1979
   48MOL    C7522729   3.267   2.169   5.871  0.1963  0.4002 -0.0275
   48MOL    C7622730   3.259   2.143   6.019  0.5790 -0.6524  0.5363
   48MOL    C7722731   3.166   2.036   6.070 -0.3820 -0.3067 -0.1802
   48MOL    C7822732   3.153   2.028   6.222  0.7466  0.3186  0.8832
   48MOL    O7922733   3.071   1.912   6.249  0.4467  0.4023 -0.7166
   48MOL    C8022734   2.939   1.932   6.288 -0.6496  0.2053 -0.0233
   48MOL    O8122735   2.885   2.043   6.300  0.0607  0.7544 -0.3477
   48MOL    C8222736   2.859   1.810   6.303 -0.0054 -0.5026 -0.4584
   48MOL    C8322737   2.864   1.716   6.185  0.0418 -0.2988 -0.6151
   48MOL    C8422738   2.735   1.707   6.108  0.0396 -0.1881  0.2690
   48MOL    O8522739   2.737   1.685   5.986  0.0329 -0.2700 -0.1455
   48MOL    H8622740   3.165   2.201   5.848  0.4975  2.0830  0.8891
   48MOL    H8722741   3.295   2.075   5.825 -0.2240 -0.1484  0.8180
   48MOL    H8822742   3.218   2.239   6.054  2.5371 -0.1251  1.4718
   48MOL    H8922743   3.359   2.125   6.060  1.4665  0.7256 -0.9583
   48MOL    H9022744   3.190   1.934   6.041  1.2006  0.3255 -1.1651
   48MOL    H9122745   3.071   2.056   6.021 -0.9696  1.0384  1.4513
   48MOL    H9222746   3.255   2.008   6.256  1.1873  1.9674  0.5915
   48MOL    H9322747   3.119   2.125   6.257 -0.9307  0.1263 -0.1383
   48MOL    H9422748   2.758   1.848   6.317  0.3010 -0.0610  0.6855
   48MOL    H9522749   2.874   1.758   6.398 -1.7438  2.0831  1.3367
   48MOL    H9622750   2.939   1.753   6.116  1.4856 -0.1074  1.0074
   48MOL    H9722751   2.886   1.616   6.222 -3.3461 -1.0228 -0.4259
   48MOL    O9822752   2.624   1.711   6.192 -0.3418  0.0098 -0.5573
   48MOL    C9922753   2.488   1.698   6.144 -0.1740 -0.4592 -0.7803
   48MOL   C10022754   2.388   1.766   6.239  0.2445 -0.3486 -0.1233
   48MOL   C10122755   2.379   1.708   6.386 -0.7885 -0.4145  0.4809
   48MOL   C10222756   2.272   1.779   6.476 -0.2649 -0.1715  0.0481
   48MOL   O10322757   2.302   1.916   6.493 -0.1400  0.4139 -0.4506
   48MOL   C10422758   2.230   2.002   6.425  0.0640 -0.0390  0.0459
   48MOL   O10522759   2.150   1.968   6.341 -0.0966 -0.3488  0.1673
   48MOL   C10622760   2.271   2.153   6.448 -0.2889 -0.2629  0.5255
   48MOL   C10722761   2.268   2.190   6.600  0.2049  0.4972  0.6978
   48MOL   C10822762   2.314   2.328   6.636 -0.5775 -0.3787 -0.1438
   48MOL   O10922763   2.347   2.411   6.548 -0.1246 -0.4002  0.7601
   48MOL   H11022764   2.471   1.733   6.042  0.7604 -0.3411 -0.9021
   48MOL   H11122765   2.468   1.592   6.131 -3.8339 -0.3181  2.7592
   48MOL   H11222766   2.287   1.748   6.203 -0.4293  0.9311  1.1226
   48MOL   H11322767   2.406   1.873   6.241 -1.8709  0.1634 -3.3981
   48MOL   H11422768   2.475   1.726   6.434  0.5443 -0.5537 -2.0119
   48MOL   H11522769   2.363   1.600   6.379 -3.2787 -0.1416  1.5392
   48MOL   H11622770   2.171   1.749   6.450 -0.6190  0.4298  0.7171
   48MOL   H11722771   2.288   1.743   6.578 -1.2989  1.8133  0.9298
   48MOL   H11822772   2.192   2.212   6.401  0.7472  0.5920 -0.1549
   48MOL   H11922773   2.368   2.173   6.402  0.4701  1.1536  2.6756
   48MOL   H12022774   2.164   2.186   6.631 -0.7164  1.2258 -2.1754
   48MOL   H12122775   2.332   2.128   6.662 -2.0646 -1.6571  0.9684
   48MOL   O12222776   2.337   2.336   6.770 -0.4628 -0.5273  0.3963
   48MOL   C12322777   2.383   2.457   6.833 -0.4013  0.4273  0.5758
   48MOL   C12422778   2.323   2.471   6.972 -0.0772 -0.7512  0.4530
   48MOL   C12522779   2.379   2.371   7.073 -0.1803  0.5837 -0.3010
   48MOL   C12622780   2.530   2.383   7.104  0.4904 -0.3653  0.2881
   48MOL   O12722781   2.571   2.298   7.210  0.4207  0.4159 -0.8161
   48MOL   C12822782   2.661   2.211   7.194 -0.5706  0.3784  0.7340
   48MOL   O12922783   2.707   2.176   7.083 -0.4250  0.3259  0.2831
   48MOL   C13022784   2.706   2.156   7.329 -0.3451 -0.5107 -0.1370
   48MOL   C13122785   2.818   2.230   7.385  0.0491  0.4301 -0.4262
   48MOL   C13222786   2.906   2.135   7.464  0.1148 -0.0366 -0.3451
   48MOL   O13322787   2.890   2.118   7.589 -0.1959 -0.0021  0.3844
   48MOL   H13422788   2.490   2.467   6.852 -0.4653  1.0515  0.6311
   48MOL   H13522789   2.351   2.541   6.772 -1.2128  0.4160  0.9770
   48MOL   H13622790   2.214   2.465   6.976 -0.1860 -0.2216 -1.2249
   48MOL   H13722791   2.346   2.575   6.998  1.6569 -0.5501 -1.7303
   48MOL   H13822792   2.366   2.272   7.028  0.8051  0.2484  0.1470
   48MOL   H13922793   2.325   2.376   7.167 -0.5074 -2.6546 -0.2544
   48MOL   H14022794   2.579   2.357   7.010 -0.3893  0.8590 -0.5357
   48MOL   H14122795   2.553   2.487   7.130 -2.2096  0.3819 -0.0520
   48MOL   H14222796   2.700   2.047   7.329 -3.5119 -0.3975  0.3989
   48MOL   H14322797   2.627   2.164   7.403  0.3196 -0.3590  0.5613
   48MOL   H14422798   2.875   2.275   7.303  0.0475  1.5775  0.1971
   48MOL   H14522799   2.795   2.314   7.451  0.3680 -1.2142  1.8219
   48MOL   O14622800   3.006   2.088   7.396 -0.3552 -0.1041 -0.0965
   48MOL   C14722801   3.113   2.026   7.464  0.0079 -0.6175 -0.9985
   48MOL   C14822802   3.072   1.875   7.473  0.1406 -0.2967  0.0406
   48MOL   C14922803   3.029   1.816   7.611 -0.4531 -0.0764 -0.1526
   48MOL   C15022804   2.981   1.672   7.607  0.3275  0.4809  0.3941
   48MOL   O15122805   2.867   1.656   7.532  0.0907  0.4031  0.4231
   48MOL   C15222806   2.861   1.550   7.446 -0.7917 -0.0572 -1.0802
   48MOL   O15322807   2.950   1.472   7.415  0.1013 -0.4622 -0.1600
   48MOL   C15422808   2.731   1.541   7.371 -0.1504 -0.0662 -0.0341
   48MOL   C15522809   2.721   1.615   7.236  0.1721 -0.7801  0.5129
   48MOL   C15622810   2.711   1.524   7.113  0.6535 -0.0698  0.5108
   48MOL   O15722811   2.768   1.551   7.006 -0.0064  0.3825  0.4288
   48MOL   H15822812   3.203   2.025   7.403  0.8858  2.5831  0.1995
   48MOL   H15922813   3.141   2.065   7.562  1.2460  0.9919 -1.9716
   48MOL   H16022814   3.158   1.821   7.434  1.2570  0.9471  0.7255
   48MOL   H16122815   3.001   1.856   7.392 -0.3709  0.5341  0.2860
   48MOL   H16222816   2.961   1.882   7.665  0.9314 -0.0078  1.5634
   48MOL   H16322817   3.116   1.815   7.677 -0.1551  0.3910 -0.5319
   48MOL   H16422818   3.063   1.610   7.573 -0.0344  0.4602 -0.4482
   48MOL   H16522819   2.960   1.636   7.708  0.0361 -5.3390 -1.5756
   48MOL   H16622820   2.654   1.575   7.440  0.7409  0.7342  0.5636
   48MOL   H16722821   2.707   1.435   7.362  1.5011 -0.4880  0.4462
   48MOL   H16822822   2.631   1.677   7.240  0.5567 -0.1700 -0.2012
   48MOL   H16922823   2.813   1.672   7.226 -0.0782 -0.2336  1.2326
   48MOL   O17022824   2.653   1.397   7.134  0.0916 -0.3176  0.3222
   48MOL   C17122825   2.620   1.309   7.025  0.1664  0.0802 -0.0487
   48MOL   C17222826   2.538   1.187   7.066 -0.8700 -0.4051  0.2123
   48MOL   C17322827   2.589   1.108   7.187  0.7367  0.7530 -0.5077
   48MOL   C17422828   2.516   0.972   7.204  0.1818  0.2970  0.1174
   48MOL   O17522829   2.578   0.925   7.319  0.3278 -0.7038  0.0898
   48MOL   C17622830   2.540   0.811   7.375  0.1066 -0.2387  0.2637
   48MOL   O17722831   2.451   0.742   7.325  0.0515  0.2496 -0.5643
   48MOL   C17822832   2.626   0.753   7.487 -0.3348  0.1918 -0.0559
   48MOL   C17922833   2.532   0.656   7.571  0.0055 -0.4848 -0.7776
   48MOL   C18022834   2.560   0.665   7.721  0.2585  0.9484  0.1074
   48MOL   O18122835   2.642   0.739   7.766  0.2079 -0.5191 -0.4448
   48MOL   H18222836   2.577   1.374   6.949 -1.1440 -0.5766  0.1026
   48MOL   H18322837   2.719   1.280   6.989  0.0023 -1.7018  0.8290
   48MOL   H18422838   2.533   1.117   6.982  1.6829 -0.6283  0.2099
   48MOL   H18522839   2.436   1.224   7.076 -0.7457 -0.2338  0.8779
   48MOL   H18622840   2.581   1.171   7.275 -1.0756 -0.3113  0.1171
   48MOL   H18722841   2.695   1.081   7.182 -0.0208 -3.0910  1.6079
   48MOL   H18822842   2.408   0.985   7.211  0.1898  3.1216 -3.3032
   48MOL   H18922843   2.528   0.912   7.114 -0.3902  2.4113 -1.4080
   48MOL   H19022844   2.684   0.830   7.539 -1.0102  1.5051 -1.2237
   48MOL   H19122845   2.698   0.691   7.434 -0.6813  1.0463 -1.5638
   48MOL   H19222846   2.425   0.676   7.556  0.0019 -0.0182 -0.1240
   48MOL   H19322847   2.557   0.554   7.544  0.8471 -0.3005 -0.7084
   48MOL   O19422848   2.484   0.571   7.781 -0.3413 -0.5648  0.5690
   48MOL   C19522849   2.464   0.566   0.047  0.7166  0.1493 -0.0059
   48MOL   C19622850   2.336   0.481   0.077 -0.7565  0.8419 -1.1015
   48MOL   C19722851   2.339   0.338   0.021 -0.5732 -0.0566  0.4032
   48MOL   C19822852   2.207   0.274   0.054  0.9424  0.3137 -0.0779
   48MOL   O19922853   2.199   0.228   0.185  0.2568  0.2801  0.4766
   48MOL   C20022854   2.077   0.208   0.250  0.1600  0.1782 -0.1178
   48MOL   O20122855   1.965   0.234   0.208 -0.4422  0.0750 -0.2961
   48MOL   C20222856   2.091   0.142   0.388 -0.4728 -0.6409  0.0326
   48MOL   C20322857   2.176   0.224   0.482 -0.2373  0.0966  0.2879
   48MOL   C20422858   2.318   0.178   0.517  0.6543  0.2572 -0.5782
   48MOL   O20522859   2.365   0.201   0.630  0.0857 -0.3876  0.0388
   48MOL   H20622860   2.553   0.519   0.087  0.3384  0.0027  0.6783
   48MOL   H20722861   2.450   0.668   0.081  0.3110 -0.1895  0.8570
   48MOL   H20822862   2.247   0.527   0.035 -1.4280 -1.0709 -1.8090
   48MOL   H20922863   2.316   0.478   0.184  0.4113 -0.3044 -0.8923
   48MOL   H21022864   2.422   0.276   0.054 -0.7451  0.7846  2.5550
   48MOL   H21122865   2.345   0.351   7.788  1.3333  0.3546  0.5323
   48MOL   H21222866   2.117   0.334   0.043 -0.6070 -1.6266  1.7669
   48MOL   H21322867   2.200   0.189   7.861 -0.0619  0.2542  0.0986
   48MOL   H21422868   2.130   0.041   0.391 -1.0116 -0.8187  1.2727
   48MOL   H21522869   1.991   0.145   0.431  0.7698  0.1560  2.9899
   48MOL   H21622870   2.200   0.324   0.447  1.4900 -0.5030 -0.2593
   48MOL   H21722871   2.119   0.226   0.576 -0.8581  1.6849 -0.1021
   48MOL   O21822872   2.386   0.121   0.417  0.2530 -0.5353  0.0448
   48MOL   C21922873   2.515   0.077   0.441  0.1294  0.2763 -0.1026
   48MOL   C22022874   2.531   7.825   0.533 -0.7802 -0.6815  0.3367
   48MOL   C22122875   2.681   7.797   0.566  0.2041 -0.4551 -0.3147
   48MOL   C22222876   2.702   7.677   0.653 -0.0894  0.0445 -0.3657
   48MOL   O22322877   2.678   7.566   0.576 -0.3097  0.2645 -0.2530
   48MOL   C22422878   2.700   7.443   0.630 -0.0073  0.0254 -0.0571
   48MOL   O22522879   2.713   7.425   0.750 -0.2711  0.2363  0.7225
   48MOL   C22622880   2.703   7.332   0.529  0.0614 -0.1397  0.2157
   48MOL   C22722881   2.755   7.385   0.399 -0.8510  1.0946 -0.0540
   48MOL   C22822882   2.908   7.374   0.373 -0.3848 -0.1118 -0.0192
   48MOL   O22922883   2.959   7.397   0.265 -0.4073 -0.0334  0.1239
   48MOL   H23022884   2.565   0.069   0.344  1.0357  0.1526  0.3726
   48MOL   H23122885   2.571   0.161   0.482  1.0999  0.1298 -1.1125
   48MOL   H23222886   2.485   7.743   0.478 -2.4206  0.3542  0.1526
   48MOL   H23322887   2.480   7.835   0.629 -1.3408 -0.9444  0.0707
   48MOL   H23422888   2.723   0.015   0.604 -1.6358  1.0186 -1.7761
   48MOL   H23522889   2.723   7.771   0.469  1.5868  0.8620 -0.0766
   48MOL   H23622890   2.801   7.676   0.698 -0.2520  2.3674  0.0952
   48MOL   H23722891   2.624   7.684   0.730  0.3772  0.1402  0.1022
   48MOL   H23822892   2.597   7.309   0.516  0.3988 -1.3745 -0.4828
   48MOL   H23922893   2.752   7.243   0.569  0.2146 -0.7928 -1.3782
   48MOL   H24022894   2.710   7.324   0.321  0.5230  0.1038 -0.1041
   48MOL   H24122895   2.723   7.485   0.371 -1.2764  1.7685  2.7420
   48MOL   O24222896   2.968   7.326   0.479 -0.6260 -0.2556 -0.1316
   48MOL   C24322897   3.098   7.260   0.463  0.6174  0.5968 -0.2492
   48MOL   C24422898   3.211   7.366   0.467 -0.1008  0.0595  0.1223
   48MOL   C24522899   3.211   7.434   0.600  0.0855 -0.3055 -0.4822
   48MOL   C24622900   3.330   7.522   0.609  0.1737 -1.1940 -0.2729
   48MOL   O24722901   3.345   7.580   0.737  0.4086  0.3546  0.4701
   48MOL   C24822902   3.441   7.678   0.751  0.6340  0.1135 -0.5272
   48MOL   O24922903   3.486   7.743   0.657 -0.1463  0.0478  0.4405
   48MOL   C25022904   3.481   7.712   0.894 -0.0896 -0.3690 -0.4028
   48MOL   C25122905   3.583   7.606   0.952 -0.1886 -0.2800 -0.6193
   48MOL   C25222906   3.522   7.473   0.983 -0.2716  0.2916  0.2684
   48MOL   O25322907   3.530   7.383   0.902  0.3401 -0.3582 -0.2825
   48MOL   H25422908   3.113   7.180   0.536 -0.1561  0.0168 -0.7268
   48MOL   H25522909   3.098   7.217   0.363 -0.3472  2.6612 -1.1711
   48MOL   H25622910   3.209   7.440   0.388  0.6528  2.2049  2.0724
   48MOL   H25722911   3.299   7.305   0.445 -0.8993 -1.2945  0.5761
   48MOL   H25822912   3.222   7.358   0.678  2.0613  0.6322  0.2085
   48MOL   H25922913   3.118   7.487   0.621 -0.8731 -0.8078 -3.3130
   48MOL   H26022914   3.424   7.470   0.589  1.4659  0.0956  2.1095
   48MOL   H26122915   3.303   7.602   0.540 -0.7394 -1.7659 -0.5787
   48MOL   H26222916   3.390   7.711   0.954  0.7032 -2.5636  0.8229
   48MOL   H26322917   3.528   7.811   0.895  3.1887 -1.8659  0.7271
   48MOL   H26422918   3.668   7.585   0.886  0.7349 -2.0548  1.0719
   48MOL   H26522919   3.644   7.648   1.032  0.1098 -1.0616 -0.4293
   48MOL   O26622920   3.455   7.477   1.103 -0.1580 -0.4478  0.3405
   48MOL   C26722921   3.384   7.372   1.160 -0.0591  0.0899  0.4526
   48MOL   C26822922   3.466   7.247   1.180  0.2711  0.3981 -0.2016
   48MOL   C26922923   3.391   7.139   1.265 -0.4634 -0.5067  0.2217
   48MOL   C27022924   3.472   7.010   1.298 -0.6535 -0.0105  0.2134
   48MOL   O27122925   3.381   6.924   1.365 -0.1719  0.5313  0.6255
   48MOL   C27222926   3.411   6.810   1.430  0.1676 -0.8137 -0.0237
   48MOL   O27322927   3.522   6.763   1.433  0.5693  0.3921  0.6106
   48MOL   C27422928   3.290   6.757   1.504 -0.4590 -0.4839  0.6646
   48MOL   C27522929   3.302   6.609   1.532  0.3362  0.0910  0.6247
   48MOL   C27622930   3.298   6.588   1.682  1.0713 -0.5994 -0.3062
   48MOL   O27722931   3.187   6.578   1.740 -0.2069  0.0076  0.4504
   48MOL   H27822932   3.335   7.413   1.249 -1.2825  2.3293 -1.1923
   48MOL   H27922933   3.302   7.348   1.092  1.1764 -0.6022 -0.8377
   48MOL   H28022934   3.554   7.266   1.241 -1.0435  0.1233  1.8294
   48MOL   H28122935   3.475   7.194   1.085  0.1953 -0.0760  0.0564
   48MOL   H28222936   3.304   7.106   1.208 -0.9365 -0.4377  0.9000
   48MOL   H28322937   3.356   7.195   1.352  0.0682 -0.3398  0.3332
   48MOL   H28422938   3.505   6.968   1.203  1.7073  1.5702  0.3013
   48MOL   H28522939   3.560   7.022   1.362  0.0223  1.3698 -0.9426
   48MOL   H28622940   3.201   6.777   1.444  1.4869  0.3054 -2.0311
   48MOL   H28722941   3.255   6.805   1.596 -0.5103  1.3864 -0.2939
   48MOL   H28822942   3.204   6.577   1.496 -0.2776  0.7302  1.6875
   48MOL   H28922943   3.374   6.552   1.473 -0.6876 -2.4827  1.7733
   48MOL   O29022944   3.424   6.596   1.737 -0.2701 -0.0452 -0.2240
   48MOL   C29122945   3.424   6.594   1.885  0.1314  0.4271  0.5416
   48MOL   C29222946   3.563   6.657   1.910 -0.1393 -0.5825 -0.4402
   48MOL   C29322947   3.626   6.609   2.043  0.6286 -0.3048 -0.5227
   48MOL   C29422948   3.778   6.629   2.063  0.1191 -0.0597  0.7368
   48MOL   O29522949   3.796   6.762   2.097  0.1857 -0.2806  0.2376
   48MOL   C29622950   3.923   6.811   2.109 -0.7082 -0.5407 -0.8429
   48MOL   O29722951   4.026   6.747   2.094 -0.7505  0.3659 -0.4061
   48MOL   C29822952   3.917   6.959   2.143  0.1897  0.3046 -0.2202
   48MOL   C29922953   3.813   6.994   2.252  0.1674  0.0446  0.0460
   48MOL   C30022954   3.862   7.113   2.331 -0.3504 -0.0597 -0.4503
   48MOL   O30122955   3.977   7.142   2.351  0.0074  0.8880 -0.4445
   48MOL   H30222956   3.332   6.639   1.924 -1.0154  1.3469 -2.9219
   48MOL   H30322957   3.420   6.489   1.913 -0.5129  0.6978  1.4880
   48MOL   H30422958   3.556   6.766   1.907  2.2820 -0.4114 -0.7182
   48MOL   H30522959   3.643   6.643   1.838  1.9228  0.9655  1.5007
   48MOL   H30622960   3.604   6.507   2.074  3.6229 -0.6042  0.8380
   48MOL   H30722961   3.581   6.654   2.132  1.2971 -1.0827  0.2191
   48MOL   H30822962   3.814   6.571   2.149 -1.4742  0.7365  1.9642
   48MOL   H30922963   3.830   6.591   1.975 -0.4132 -0.2225  0.4895
   48MOL   H31022964   3.902   7.004   2.045 -2.3096 -0.1726 -0.0894
   48MOL   H31122965   4.014   6.995   2.178 -0.5525  1.0075  1.1812
   48MOL   H31222966   3.717   7.026   2.212  0.7587 -0.0722 -1.4729
   48MOL   H31322967   3.811   6.910   2.322  0.3724 -1.0988 -1.2860
   48MOL   O31422968   3.754   7.183   2.387 -0.2944 -0.4215 -0.3211
   48MOL   C31522969   3.789   7.279   2.480  0.9478 -0.6404 -0.4287
   48MOL   C31622970   3.657   7.305   2.560  0.8937  0.3237  0.3230
   48MOL   C31722971   3.592   7.184   2.633 -0.1647  0.0970  1.0660
   48MOL   C31822972   3.675   7.130   2.744 -0.3307  0.3208  0.3014
   48MOL   O31922973   3.609   7.016   2.800  0.5099  0.5214  0.4328
   48MOL   C32022974   3.646   6.964   2.914  0.2773 -0.4922 -0.3122
   48MOL   O32122975   3.724   7.010   2.995  0.0117 -0.5396 -0.4969
   48MOL   C32222976   3.572   6.831   2.959  0.1389 -0.5633 -0.4038
   48MOL   C32322977   3.642   6.710   2.897  0.2321  0.1040  0.1027
   48MOL   C32422978   3.552   6.586   2.908 -0.0834 -0.0537 -0.5129
   48MOL   O32522979   3.533   6.510   3.007  0.8178  0.3765 -0.1563
   48MOL   H32622980   3.875   7.248   2.540  2.7134  1.7595 -1.6312
   48MOL   H32722981   3.836   7.367   2.435  0.3030 -0.4941 -0.8070
   48MOL   H32822982   3.579   7.362   2.508  1.9867  3.1958  1.6959
   48MOL   H32922983   3.690   7.380   2.633  3.1686 -0.0093 -0.3241
   48MOL   H33022984   3.566   7.114   2.554 -0.8164 -0.3947  1.7132
   48MOL   H33122985   3.502   7.230   2.673  0.0133 -0.1980  1.8012
   48MOL   H33222986   3.777   7.110   2.710 -0.8721  1.0962 -1.7984
   48MOL   H33322987   3.677   7.211   2.817 -1.5679  0.5459  0.0896
   48MOL   H33422988   3.468   6.857   2.935 -0.1980  0.1014  1.6369
   48MOL   H33522989   3.581   6.827   3.067 -1.7499  1.6299 -0.1074
   48MOL   H33622990   3.664   6.725   2.791  0.1518  2.0351  0.3459
   48MOL   H33722991   3.741   6.696   2.941 -0.6348 -1.6637  1.5271
   48MOL   O33822992   3.495   6.573   2.780  0.1595 -0.0613 -0.1683
   48MOL   C33922993   3.412   6.456   2.760  0.7689 -1.0813  0.0511
   48MOL   C34022994   3.469   6.319   2.751 -0.0699 -0.3865 -0.0323
   48MOL   C34122995   3.360   6.219   2.696 -0.0067 -0.1645  0.4946
   48MOL   C34222996   3.402   6.073   2.679  0.2428 -0.4352 -0.1432
   48MOL   O34322997   3.455   6.032   2.800  0.6948 -0.2572 -0.3305
   48MOL   C34422998   3.385   5.951   2.873  0.5818  0.6124  0.1308
   48MOL   O34522999   3.272   5.908   2.847 -1.0343 -0.1523  0.0082
   48MOL   C34623000   3.447   5.918   3.012  0.1211 -0.0644 -0.4618
   48MOL   C34723001   3.553   5.802   3.016 -0.2741 -0.1727 -0.8736
   48MOL   C34823002   3.490   5.671   3.061  0.2644  0.0528  0.6503
   48MOL   O34923003   3.388   5.665   3.130  0.3641  0.2348 -0.4244
   48MOL   H35023004   3.344   6.450   2.845 -0.4038 -1.2208 -0.8751
   48MOL   H35123005   3.354   6.481   2.671  0.7281 -0.0876  0.3498
   48MOL   H35223006   3.500   6.288   2.851 -0.4638 -1.5127 -0.2518
   48MOL   H35323007   3.550   6.306   2.680 -0.3952  0.1051 -0.4900
   48MOL   H35423008   3.341   6.264   2.599 -1.3119 -0.2567  0.6927
   48MOL   H35523009   3.263   6.235   2.743 -1.9630  1.6862 -3.9110
   48MOL   H35623010   3.321   6.013   2.636  0.2539  0.8936 -2.1032
   48MOL   H35723011   3.484   6.068   2.608 -0.6079 -0.3120 -1.1572
   48MOL   H35823012   3.359   5.906   3.077  0.4802  2.4845  0.5505
   48MOL   H35923013   3.484   6.009   3.058 -0.5605  0.7225 -1.4433
   48MOL   H36023014   3.607   5.800   2.921 -0.7530 -2.5547 -1.1439
   48MOL   H36123015   3.628   5.819   3.093 -1.4278 -1.5483  0.5750
   48MOL   O36223016   3.562   5.574   3.016 -0.0393 -0.5652 -0.1120
   48MOL   C36323017   3.517   5.443   3.033 -0.4730  0.3700  0.5450
   48MOL   C36423018   3.644   5.364   2.982  0.0028 -0.6155 -0.3486
   48MOL   C36523019   3.611   5.214   2.982 -0.7379  0.2125 -0.0299
   48MOL   C36623020   3.723   5.129   2.926  0.2824  0.5967 -0.3078
   48MOL   O36723021   3.722   5.126   2.784  0.5748  0.1225  0.3397
   48MOL   C36823022   3.800   5.049   2.716 -0.3772  1.2037 -0.6873
   48MOL   O36923023   3.886   4.969   2.764  0.2904  0.0070  0.5932
   48MOL   C37023024   3.781   5.054   2.564  0.2806  0.2862 -0.2102
   48MOL   C37123025   3.677   4.952   2.507 -0.4134 -0.2779  0.1767
   48MOL   C37223026   3.532   4.987   2.537  0.6651  0.0876  0.3914
   48MOL   O37323027   3.466   5.070   2.468 -0.0156  0.0763  0.5540
   48MOL   H37423028   3.495   5.430   3.138 -0.1957 -3.2347  0.2232
   48MOL   H37523029   3.428   5.417   2.976  0.2979 -0.5678 -0.2815
   48MOL   H37623030   3.729   5.385   3.048 -2.3524 -2.1509  3.3729
   48MOL   H37723031   3.664   5.396   2.880 -0.0453  0.7246  0.0513
   48MOL   H37823032   3.523   5.187   2.924  0.9712 -0.1281 -2.4891
   48MOL   H37923033   3.580   5.185   3.083  1.4559  1.1028  0.9398
   48MOL   H38023034   3.820   5.155   2.966  1.0910 -0.2860 -1.6620
   48MOL   H38123035   3.699   5.030   2.963 -0.8917  1.2046  0.6149
   48MOL   H38223036   3.878   5.038   2.518  0.6267  0.8725  0.2991
   48MOL   H38323037   3.759   5.156   2.530 -0.7785 -0.1647 -0.9070
   48MOL   H38423038   3.699   4.940   2.401  1.5858 -4.7887  0.9851
   48MOL   H38523039   3.711   4.856   2.547  0.9485 -0.1760 -0.6832
   48MOL   O38623040   3.486   4.918   2.647 -0.4674 -0.1304  0.3095
   48MOL   C38723041   3.354   4.935   2.691 -0.0842  0.3071  0.2746
   48MOL   C38823042   3.358   4.926   2.843  0.5627 -0.1502  0.3223
   48MOL   C38923043   3.209   4.943   2.899  0.0254  0.1760  0.1437
   48MOL   C39023044   3.207   4.906   3.048  0.3158  0.4247 -0.5694
   48MOL   O39123045   3.084   4.916   3.117  0.3369 -0.0784  0.1660
   48MOL   C39223046   3.084   4.921   3.257  0.0195 -0.3195 -0.7520
   48MOL   O39323047   3.181   4.923   3.330  0.0036 -0.0284 -0.0191
   48MOL   C39423048   2.941   4.937   3.312 -0.8817  0.1297 -0.5291
   48MOL   C39523049   2.838   4.852   3.234 -0.0523  0.0331  0.0690
   48MOL   C39623050   2.730   4.929   3.155 -0.8717  0.2040  0.0474
   48MOL   O39723051   2.621   4.942   3.208  0.2763 -0.3850 -0.3498
   48MOL   H39823052   3.321   5.033   2.656  0.8785  0.7572  0.5961
   48MOL   H39923053   3.296   4.860   2.637  2.7283 -0.0778 -2.3891
   48MOL   H40023054   3.420   4.999   2.895  0.7731 -1.4447  1.9504
   48MOL   H40123055   3.398   4.827   2.865 -1.1901 -0.6691  1.3157
   48MOL   H40223056   3.137   4.878   2.850  0.0870  0.2195 -0.0048
   48MOL   H40323057   3.183   5.048   2.886 -3.1863 -0.7502 -1.3908
   48MOL   H40423058   3.254   4.809   3.067  0.2352  1.1362  3.7902
   48MOL   H40523059   3.279   4.978   3.086 -1.0302  0.1344  2.7324
   48MOL   H40623060   2.916   5.043   3.304 -2.0459 -0.1305 -0.3620
   48MOL   H40723061   2.941   4.911   3.418  2.7292  2.8436  0.2301
   48MOL   H40823062   2.898   4.789   3.169 -1.6698 -1.4555 -0.0216
   48MOL   H40923063   2.785   4.777   3.293 -0.5569 -1.2744 -1.9831
   48MOL   O41023064   2.780   4.972   3.042 -0.1920  0.3133  0.1447
   48MOL   C41123065   2.699   5.012   2.932  0.0435 -0.0440 -0.8623
   48MOL   C41223066   2.793   5.063   2.819  0.4719  0.2342  0.4230
   48MOL   C41323067   2.860   4.937   2.754  0.6295 -0.1854  0.6607
   48MOL   C41423068   2.771   4.882   2.637 -0.1617 -0.4657 -0.0188
   48MOL   O41523069   2.825   4.764   2.576  0.0670 -0.2092 -0.4625
   48MOL   C41623070   2.755   4.689   2.503 -0.1295  0.6515 -0.2888
   48MOL   O41723071   2.637   4.717   2.475 -0.0075 -0.4469 -0.4543
   48MOL   C41823072   2.833   4.569   2.449  0.1947 -0.4031 -0.0641
   48MOL   C41923073   2.756   4.501   2.332 -0.3632  0.0094 -0.1842
   48MOL   C42023074   2.796   4.355   2.313 -0.1289 -0.2711  0.6622
   48MOL   O42123075   2.880   4.302   2.386  0.3461 -0.4755  0.2033
   48MOL   H42223076   2.634   4.927   2.912 -1.4237  0.7382  0.4472
   48MOL   H42323077   2.636   5.093   2.969 -0.6607 -0.4284 -1.2097
   48MOL   H42423078   2.865   5.132   2.863  0.0079  0.8820  0.1726
   48MOL   H42523079   2.742   5.122   2.743  0.1712 -0.0471  0.4067
   48MOL   H42623080   2.872   4.866   2.836 -0.8259 -0.0950  0.9698
   48MOL   H42723081   2.960   4.961   2.720 -0.4347  0.2014 -2.3461
   48MOL   H42823082   2.666   4.875   2.664  0.1289 -3.2777  0.5500
   48MOL   H42923083   2.783   4.955   2.557 -0.0527  1.0515  1.3515
   48MOL   H43023084   2.857   4.510   2.538  0.7907  1.7225  1.2254
   48MOL   H43123085   2.932   4.603   2.420 -1.2940  3.7550 -0.5895
   48MOL   H43223086   2.648   4.502   2.348 -0.2911 -2.1624  0.6942
   48MOL   H43323087   2.764   4.552   2.237  0.8178  1.1190  0.4913
   48MOL   O43423088   2.720   4.290   2.222  1.0456 -0.7137  0.3169
   48MOL   C43523089   2.714   4.141   2.227  0.5073 -0.2913 -0.4530
   48MOL   C43623090   2.742   4.088   2.084  0.0505  0.0132 -0.5954
   48MOL   C43723091   2.630   4.132   1.985 -0.6600  0.2800 -0.0092
   48MOL   C43823092   2.671   4.111   1.834  0.2900 -0.3186 -0.1130
   48MOL   O43923093   2.797   4.180   1.818  0.2821 -0.1492  0.0906
   48MOL   C44023094   2.812   4.266   1.715  0.7237  0.1762  0.4769
   48MOL   O44123095   2.716   4.308   1.647 -0.0293  0.4694  1.1474
   48MOL   C44223096   2.957   4.315   1.702  0.1051 -0.0656 -0.3489
   48MOL   C44323097   3.015   4.313   1.559 -0.4563 -0.3476 -0.5769
   48MOL   C44423098   3.100   4.179   1.547  0.0035 -0.3031  0.6381
   48MOL   O44523099   3.223   4.189   1.540  0.3429  0.4336  0.0347
   48MOL   H44623100   2.795   4.099   2.287  3.0207  2.0067 -2.1285
   48MOL   H44723101   2.615   4.111   2.263  0.7030  2.1342  2.3077
   48MOL   H44823102   2.747   3.979   2.085 -0.3612 -0.0080 -0.8462
   48MOL   H44923103   2.831   4.140   2.049 -0.7533  1.8185  0.0285
   48MOL   H45023104   2.605   4.238   1.997 -0.8301  0.2841 -0.4130
   48MOL   H45123105   2.540   4.077   2.013  1.6515 -2.3488  2.5819
   48MOL   H45223106   2.690   4.004   1.823 -0.1734 -0.3858 -0.3100
   48MOL   H45323107   2.588   4.140   1.770  0.8757 -0.2575 -0.8455
   48MOL   H45423108   3.021   4.266   1.776  0.6891  1.1215 -0.0613
   48MOL   H45523109   2.962   4.419   1.734 -2.1660 -0.0421 -0.0045
   48MOL   H45623110   2.930   4.319   1.491 -0.5484 -0.4399 -0.4703
   48MOL   H45723111   3.081   4.399   1.545 -0.5631 -0.1882 -0.1065
   48MOL   O45823112   3.023   4.062   1.544 -0.4216 -0.0258 -0.6420
   48MOL   C45923113   3.090   3.934   1.549 -0.2198  0.1192 -0.0743
   48MOL   C46023114   3.113   3.908   1.699  0.0748 -0.2739  0.1255
   48MOL   C46123115   2.982   3.883   1.764  1.2398 -0.4754 -0.9988
   48MOL   C46223116   2.975   3.886   1.922  0.1676  0.0649  0.2990
   48MOL   O46323117   3.049   3.783   1.986 -0.4661  0.3092  0.0450
   48MOL   C46423118   3.061   3.784   2.117 -0.4267 -0.0112 -0.1407
   48MOL   O46523119   3.005   3.864   2.194  0.1022 -0.0518  0.0997
   48MOL   C46623120   3.145   3.668   2.168 -0.4623  0.3586  0.2530
   48MOL   C46723121   3.078   3.535   2.138 -0.1541 -0.4590 -0.7417
   48MOL   C46823122   3.144   3.432   2.220  0.6173  0.0963 -0.0595
   48MOL   O46923123   3.265   3.444   2.243  0.5260  0.0398  0.3015
   48MOL   H47023124   3.030   3.852   1.509 -0.7240 -0.7369  2.3415
   48MOL   H47123125   3.186   3.929   1.497 -2.1186  0.1012 -3.7704
   48MOL   H47223126   3.156   3.996   1.746 -1.5342 -0.0881  1.3041
   48MOL   H47323127   3.187   3.830   1.718  0.7611  0.3164 -0.0988
   48MOL   H47423128   2.945   3.786   1.731 -1.0459  0.5733 -1.6099
   48MOL   H47523129   2.902   3.946   1.726  1.4997 -1.0826 -2.5997
   48MOL   H47623130   2.994   3.982   1.971  1.7209  1.6005 -3.1192
   48MOL   H47723131   2.872   3.863   1.951 -0.1912  2.5329  1.1291
   48MOL   H47823132   3.162   3.677   2.275 -1.7682  0.0536  0.4869
   48MOL   H47923133   3.248   3.670   2.131  0.5631 -0.5448  2.8960
   48MOL   H48023134   2.977   3.535   2.178 -0.1825 -1.2158 -0.8175
   48MOL   H48123135   3.082   3.503   2.034 -0.5908 -0.0284 -0.8938
   48MOL   H48223136   3.083   3.347   2.250  2.1195 -1.0455 -0.1814
   49MOL     O123137   7.247   1.192   0.450 -0.0633 -0.5662 -0.3515
   49MOL     C223138   7.185   1.216   0.324  0.2509 -0.4169 -0.8630
   49MOL     C323139   7.211   1.108   0.217 -0.4755 -0.1822  0.5465
   49MOL     C423140   7.148   1.140   0.085  0.3266  0.5289 -0.4890
   49MOL     C523141   7.000   1.088   0.069 -0.1742 -0.4064 -1.2620
   49MOL     O623142   6.924   1.174   0.157 -0.2234  0.8894 -0.2293
   49MOL     C723143   6.810   1.121   0.216  0.1004  0.2296 -0.0124
   49MOL     O823144   6.762   1.006   0.185  0.1132 -1.0111 -0.2437
   49MOL     C923145   6.758   1.200   0.337  0.4458  0.2672  0.0634
   49MOL    C1023146   6.680   1.322   0.289  0.2535  0.0526 -0.1718
   49MOL    C1123147   6.727   1.458   0.346  0.6091  0.4052 -0.4338
   49MOL    O1223148   6.642   1.540   0.390  0.0607  0.5737 -0.3713
   49MOL    H1323149   7.080   1.235   0.344  0.2344  0.0558 -1.3786
   49MOL    H1423150   7.231   1.308   0.289  0.7387  0.2888  1.5394
   49MOL    H1523151   7.164   1.021   0.263 -1.7673 -0.0325 -0.4748
   49MOL    H1623152   7.320   1.103   0.208 -0.6002  0.4770 -1.4892
   49MOL    H1723153   7.204   1.084   0.010 -1.4810 -1.3531 -0.4996
   49MOL    H1823154   7.163   1.245   0.062 -0.8506  0.5860 -1.0428
   49MOL    H1923155   6.967   1.091   7.840  0.2865 -1.3112 -1.4446
   49MOL    H2023156   6.990   0.986   0.106 -0.5889 -0.1247 -0.5949
   49MOL    H2123157   6.841   1.231   0.400 -0.2575  3.5967 -0.5576
   49MOL    H2223158   6.706   1.131   0.404  0.1991  1.3916  1.0669
   49MOL    H2323159   6.682   1.331   0.181  1.8294 -0.4108 -0.2038
   49MOL    H2423160   6.577   1.304   0.320  0.4296 -2.3207 -0.8918
   49MOL    H2523161   7.191   1.142   0.507 -0.9438  1.9047  0.9981
   49MOL    O2623162   6.863   1.469   0.334 -0.1297  0.0333  0.4221
   49MOL    C2723163   6.930   1.590   0.376 -0.5653  0.6714  0.2657
   49MOL    C2823164   7.079   1.558   0.376  0.2546  0.2814  0.5670
   49MOL    C2923165   7.167   1.681   0.361 -0.1358  0.1386 -0.1943
   49MOL    C3023166   7.317   1.655   0.394 -0.4074 -0.4361  0.2484
   49MOL    O3123167   7.356   1.555   0.299 -0.6099 -0.1821 -0.6184
   49MOL    C3223168   7.481   1.567   0.252 -0.3409 -0.0901 -0.5599
   49MOL    O3323169   7.564   1.651   0.290  0.3306 -0.1061 -0.8472
   49MOL    C3423170   7.508   1.454   0.154  0.8183 -0.2615 -0.6685
   49MOL    C3523171   7.573   1.516   0.022 -0.0540  0.2265 -0.4823
   49MOL    C3623172   7.544   1.432   7.768 -0.4450 -0.2734  0.1532
   49MOL    O3723173   7.465   1.336   7.775 -0.1440  0.1027  0.1032
   49MOL    H3823174   6.912   1.665   0.299 -0.2261  0.5849  0.1031
   49MOL    H3923175   6.901   1.630   0.473 -3.2280 -1.5704  0.4764
   49MOL    H4023176   7.105   1.488   0.296  0.5104 -1.5510  2.2254
   49MOL    H4123177   7.093   1.500   0.466 -0.3645 -1.6389 -0.5491
   49MOL    H4223178   7.132   1.756   0.433 -0.7444  0.1956 -0.5501
   49MOL    H4323179   7.159   1.722   0.260  1.5414  1.0859  0.0378
   49MOL    H4423180   7.365   1.753   0.390 -2.6024  0.7493  1.3730
   49MOL    H4523181   7.317   1.616   0.496  0.5239  2.2035  1.2981
   49MOL    H4623182   7.424   1.387   0.142  0.3385  0.4217 -1.1632
   49MOL    H4723183   7.587   1.391   0.196  0.1077  0.5538  2.0098
   49MOL    H4823184   7.548   1.620   0.004 -0.7767 -0.3303 -2.8117
   49MOL    H4923185   7.681   1.502   0.033 -0.4292 -1.5186  1.3291
   49MOL    O5023186   7.591   1.489   7.657 -0.3624 -0.2932 -0.3797
   49MOL    C5123187   7.592   1.416   7.535  0.3938  0.1270 -0.4286
   49MOL    C5223188   7.730   1.335   7.521  0.4788 -0.6534 -0.1098
   49MOL    C5323189   7.858   1.434   7.518  0.3795 -0.2433 -0.7027
   49MOL    C5423190   0.113   1.366   7.510  0.1120  0.6994 -0.1959
   49MOL    O5523191   0.119   1.264   7.408  0.1015  0.0348 -0.2141
   49MOL    C5623192   0.102   1.133   7.430 -0.2854 -0.2455 -0.2734
   49MOL    O5723193   0.070   1.075   7.534 -0.2395  0.0567 -0.0039
   49MOL    C5823194   0.127   1.051   7.302  0.7919  0.0498 -0.6205
   49MOL    C5923195   0.112   0.900   7.325  0.0567 -0.0396  0.4855
   49MOL    C6023196   0.244   0.841   7.365  0.2164 -0.4359 -0.3806
   49MOL    O6123197   0.338   0.912   7.402  0.2401  0.8150  0.1273
   49MOL    H6223198   7.505   1.351   7.534  1.1243 -0.8584 -0.6942
   49MOL    H6323199   7.571   1.485   7.452 -1.1036 -2.1156 -1.9609
   49MOL    H6423200   7.726   1.267   7.436 -0.3114  0.0920 -0.6743
   49MOL    H6523201   7.758   1.273   7.606 -0.5074 -0.7395  0.1547
   49MOL    H6623202   7.866   1.501   7.604  0.1618 -0.4775 -0.5015
   49MOL    H6723203   7.851   1.503   7.434  0.0014  1.3832  0.6310
   49MOL    H6823204   0.196   1.435   7.496  0.8415 -0.1847 -0.2492
   49MOL    H6923205   0.132   1.321   7.608  2.0517  1.0124 -0.4047
   49MOL    H7023206   0.228   1.073   7.267  1.0660  1.3891  0.9391
   49MOL    H7123207   0.056   1.085   7.227 -0.4593 -1.9145 -0.3654
   49MOL    H7223208   0.036   0.874   7.398  0.3869 -1.7835  0.2252
   49MOL    H7323209   0.067   0.857   7.236 -0.5866  1.7908 -0.0926
   49MOL    O7423210   0.237   0.707   7.350 -0.0426 -0.3802 -0.8581
   49MOL    C7523211   0.355   0.627   7.361  0.1357 -0.3220  0.9398
   49MOL    C7623212   0.321   0.478   7.370  0.2280 -0.0930 -0.0503
   49MOL    C7723213   0.451   0.394   7.385  0.6044 -0.1380 -0.2567
   49MOL    C7823214   0.435   0.243   7.392  0.6173  0.1677 -0.5895
   49MOL    O7923215   0.379   0.208   7.524  0.5690  0.2556  0.0240
   49MOL    C8023216   0.332   0.081   7.547 -0.5452  0.4962  0.4833
   49MOL    O8123217   0.334   7.857   7.471  0.3842 -0.6355  0.9713
   49MOL    C8223218   0.293   0.069   7.692  0.2489  0.1293  0.6973
   49MOL    C8323219   0.147   0.026   7.720 -0.1179 -0.6571  0.0650
   49MOL    C8423220   0.041   0.129   7.686  0.4305 -0.1930  0.4926
   49MOL    O8523221   0.013   0.215   7.774 -0.3568 -0.4939 -0.1436
   49MOL    H8623222   0.422   0.652   7.279 -0.9136  1.7270  0.6553
   49MOL    H8723223   0.410   0.653   7.452 -0.1741  0.5734  0.8793
   49MOL    H8823224   0.271   0.451   7.276  2.7916 -3.1204 -0.6257
   49MOL    H8923225   0.252   0.470   7.454  0.0168 -0.1962 -0.2295
   49MOL    H9023226   0.500   0.427   7.476  1.4544 -1.7170 -0.1268
   49MOL    H9123227   0.525   0.429   7.314  2.1817  0.8333  1.7949
   49MOL    H9223228   0.377   0.203   7.309  2.4363 -0.4739 -1.5807
   49MOL    H9323229   0.532   0.196   7.376 -1.4160 -3.6401 -2.4209
   49MOL    H9423230   0.293   0.167   7.739 -2.1103 -0.7268  2.5844
   49MOL    H9523231   0.365   0.005   7.744 -1.7742 -1.9589  1.0041
   49MOL    H9623232   0.124   7.811   7.662 -0.9508 -1.1186  1.1058
   49MOL    H9723233   0.130   7.873   7.824  2.3646 -1.3338  0.3165
   49MOL    O9823234   0.000   0.130   7.559 -0.2760  0.1537 -0.0507
   49MOL    C9923235   7.801   0.241   7.506  1.0819  0.3496 -0.2604
   49MOL   C10023236   0.014   0.360   7.469 -0.0640 -0.0898 -0.4678
   49MOL   C10123237   7.819   0.485   7.410 -0.1491  0.2816  0.3202
   49MOL   C10223238   7.692   0.540   7.493  0.1650 -0.5212 -0.4909
   49MOL   O10323239   7.744   0.552   7.623 -0.1745 -0.4675  0.1418
   49MOL   C10423240   7.658   0.583   7.720 -0.0153 -0.2671 -0.0489
   49MOL   O10523241   7.535   0.585   7.711  0.0485  0.1346 -0.0228
   49MOL   C10623242   7.725   0.616   7.850  0.3335  0.3574 -0.1079
   49MOL   C10723243   7.796   0.497   0.033 -0.3912  0.1176 -0.2260
   49MOL   C10823244   0.064   0.530   0.053  0.2748 -0.1583 -0.8508
   49MOL   O10923245   0.106   0.561   0.168 -0.2839  0.3653  0.1868
   49MOL   H11023246   7.738   0.216   7.420 -0.1456  0.5744  0.5539
   49MOL   H11123247   7.749   0.280   7.593 -0.9516 -0.5802 -1.0246
   49MOL   H11223248   0.093   0.336   7.399  0.8301 -0.7298  0.7576
   49MOL   H11323249   0.071   0.387   7.558  1.7358 -0.2315 -1.5639
   49MOL   H11423250   7.778   0.456   7.313  2.1112  0.9403 -0.8750
   49MOL   H11523251   0.009   0.571   7.397  1.6594 -1.2530 -1.1216
   49MOL   H11623252   7.665   0.639   7.457  0.4965  0.0056  0.6888
   49MOL   H11723253   7.607   0.471   7.492 -0.3110 -0.0077  2.5838
   49MOL   H11823254   7.664   0.656   0.056  0.0445  1.8224 -1.0222
   49MOL   H11923255   7.799   0.693   7.825  0.0460 -0.1062 -2.5695
   49MOL   H12023256   7.763   0.487   0.136  1.5372 -2.6846  0.1796
   49MOL   H12123257   7.772   0.404   7.857  2.5502 -0.2139 -1.0952
   49MOL   O12223258   0.136   0.519   7.811  0.5696 -0.4719 -0.1093
   49MOL   C12323259   0.277   0.536   7.810  0.4486  0.5089 -0.3582
   49MOL   C12423260   0.299   0.671   7.736  0.2737  1.0011  0.2658
   49MOL   C12523261   0.277   0.791   7.832  0.0355  0.0126 -0.3339
   49MOL   C12623262   0.239   0.916   7.759  0.4993 -0.3189  0.2270
   49MOL   O12723263   0.197   1.030   7.841 -0.9290 -0.0680 -0.0355
   49MOL   C12823264   0.093   1.026   0.047  0.3621 -0.8999 -0.0011
   49MOL   O12923265   0.014   0.938   0.066 -0.4818  0.2038  0.0838
   49MOL   C13023266   0.072   1.157   0.125 -0.7436 -0.4293  0.0211
   49MOL   C13123267   0.025   1.266   0.019  0.7018  0.0137  0.8117
   49MOL   C13223268   0.114   1.388   0.033 -0.0925  0.0906 -0.0813
   49MOL   O13323269   0.195   1.420   7.818  0.2049 -0.1549 -0.2908
   49MOL   H13423270   0.309   0.535   0.040 -0.6415 -0.5118 -0.0228
   49MOL   H13523271   0.328   0.460   7.752 -1.4984 -0.0450 -1.3909
   49MOL   H13623272   0.243   0.677   7.642  1.3551 -0.6376 -0.5175
   49MOL   H13723273   0.401   0.672   7.698 -0.3881  0.8439 -1.5463
   49MOL   H13823274   0.359   0.807   0.028  0.0956  0.2086 -0.4480
   49MOL   H13923275   0.199   0.775   0.032 -1.6496  2.3009 -1.5589
   49MOL   H14023276   0.317   0.944   7.689 -1.2203  2.4490 -0.6429
   49MOL   H14123277   0.150   0.880   7.708  0.3783 -1.0162  0.9165
   49MOL   H14223278   0.159   1.185   0.183 -2.0814  2.0396  0.8744
   49MOL   H14323279   7.860   1.135   0.187 -1.9817  1.9879 -0.8055
   49MOL   H14423280   0.012   1.232   7.791 -4.8164  2.0647  0.6885
   49MOL   H14523281   7.796   1.296   0.035  1.2815  1.5229  1.9076
   49MOL   O14623282   0.092   1.454   0.148 -0.1882 -0.0577  0.4251
   49MOL   C14723283   0.161   1.573   0.172 -0.1542 -0.1801 -0.4877
   49MOL   C14823284   0.144   1.612   0.320 -0.6366 -0.5089  0.1440
   49MOL   C14923285   0.222   1.522   0.415 -0.0495  0.6447 -0.8474
   49MOL   C15023286   0.165   1.375   0.448 -0.1434 -0.3930 -0.0240
   49MOL   O15123287   0.189   1.341   0.583 -0.0832 -0.4813  0.1839
   49MOL   C15223288   0.323   1.329   0.623  0.6833  0.7012  0.4783
   49MOL   O15323289   0.418   1.353   0.547  0.1664 -0.7357  0.1055
   49MOL   C15423290   0.337   1.289   0.767 -0.0053 -0.0976  0.0523
   49MOL   C15523291   0.333   1.409   0.859 -0.7144 -0.8864 -0.0151
   49MOL   C15623292   0.225   1.389   0.962  0.1059 -0.0853 -0.2565
   49MOL   O15723293   0.117   1.443   0.940  0.2663 -0.0807  0.0884
   49MOL   H15823294   0.267   1.562   0.152  0.1193  0.4401  0.5872
   49MOL   H15923295   0.139   1.649   0.097  2.2163 -0.5867 -1.6579
   49MOL   H16023296   0.043   1.621   0.359 -0.1060  0.4868  1.3087
   49MOL   H16123297   0.179   1.714   0.337 -0.1940 -0.5324 -0.5921
   49MOL   H16223298   0.239   1.580   0.505 -0.3457 -0.7670  0.1377
   49MOL   H16323299   0.322   1.508   0.373  1.3464  0.5833  2.3673
   49MOL   H16423300   0.057   1.368   0.430 -0.3562  3.4926 -0.7266
   49MOL   H16523301   0.212   1.300   0.385  2.3218  0.9150  0.2290
   49MOL   H16623302   0.433   1.237   0.760  1.0385  1.8822 -0.7665
   49MOL   H16723303   0.256   1.222   0.795 -0.8816  1.0970  0.4051
   49MOL   H16823304   0.424   1.406   0.918  0.0573  0.0449 -1.1303
   49MOL   H16923305   0.335   1.509   0.815 -0.6431 -0.4383  0.9861
   49MOL   O17023306   0.259   1.304   1.058 -0.1496  0.3749  0.6218
   49MOL   C17123307   0.162   1.240   1.131  0.6353  0.8658 -0.6039
   49MOL   C17223308   0.214   1.171   1.260  0.7095  0.3278  0.0232
   49MOL   C17323309   0.313   1.056   1.234  0.3409  0.1074 -0.2694
   49MOL   C17423310   0.442   1.079   1.156 -0.8603 -0.3937 -0.3431
   49MOL   O17523311   0.516   1.182   1.217 -0.2252  0.5514  0.2321
   49MOL   C17623312   0.627   1.246   1.161 -0.6085 -0.1783  0.3565
   49MOL   O17723313   0.670   1.216   1.051 -0.2271  0.0451  0.4975
   49MOL   C17823314   0.686   1.346   1.251 -0.0879  0.4167 -0.2061
   49MOL   C17923315   0.730   1.306   1.394  0.1062 -0.4255 -0.1977
   49MOL   C18023316   0.870   1.250   1.399  0.2841 -0.6475  0.6208
   49MOL   O18123317   0.955   1.272   1.483 -0.2571  0.2921  0.4303
   49MOL   H18223318   0.087   1.318   1.145 -0.5406 -0.3922  0.2950
   49MOL   H18323319   0.121   1.168   1.060 -0.4089  0.8806 -0.0365
   49MOL   H18423320   0.127   1.133   1.313  1.1498  0.2170  0.6769
   49MOL   H18523321   0.259   1.240   1.331  0.1732  1.4349 -0.6992
   49MOL   H18623322   0.255   0.975   1.190 -1.1769  0.8616  0.2955
   49MOL   H18723323   0.346   1.013   1.329 -0.5692 -2.4067 -1.0556
   49MOL   H18823324   0.498   0.986   1.149 -1.2535 -0.9673  2.9865
   49MOL   H18923325   0.417   1.108   1.054  1.4224  3.2772  0.0394
   49MOL   H19023326   0.609   1.423   1.255 -1.5320 -0.9061 -1.6953
   49MOL   H19123327   0.770   1.385   1.194 -0.7033 -1.1318 -2.2440
   49MOL   H19223328   0.719   1.385   1.468 -4.8172  0.1962 -1.4008
   49MOL   H19323329   0.691   1.213   1.434 -0.1835 -0.6164 -0.9195
   49MOL   O19423330   0.894   1.169   1.292  0.2347  0.0078  0.0121
   49MOL   C19523331   1.032   1.125   1.265 -0.0265 -0.5621  0.6908
   49MOL   C19623332   1.098   1.238   1.184  0.0863  0.5419 -1.0348
   49MOL   C19723333   1.033   1.282   1.049 -0.1688 -0.0822  0.1299
   49MOL   C19823334   1.117   1.374   0.958 -0.4191  0.0714 -0.3425
   49MOL   O19923335   1.231   1.303   0.916 -0.2285 -0.5359  0.1671
   49MOL   C20023336   1.358   1.351   0.946 -0.4765 -0.1681 -0.5287
   49MOL   O20123337   1.378   1.454   1.014 -0.2711  0.3524 -0.5005
   49MOL   C20223338   1.466   1.250   0.901  0.3229 -1.0843 -0.5559
   49MOL   C20323339   1.434   1.103   0.946 -0.1857  0.5860 -0.4443
   49MOL   C20423340   1.351   1.029   0.843  0.3096 -0.2779 -0.3024
   49MOL   O20523341   1.361   1.040   0.720  0.1765 -0.4585  0.3461
   49MOL   H20623342   1.097   1.114   1.352  0.8161  0.0345  0.1422
   49MOL   H20723343   1.027   1.034   1.205  1.4399 -2.5636  3.4461
   49MOL   H20823344   1.199   1.202   1.167 -0.3387 -1.2585  0.0631
   49MOL   H20923345   1.105   1.325   1.248 -1.0430 -0.3610  0.3460
   49MOL   H21023346   0.936   1.324   1.076  0.0756 -0.9177  2.3601
   49MOL   H21123347   1.017   1.196   0.984  1.6646  0.0848 -0.5820
   49MOL   H21223348   1.058   1.401   0.871  0.7380  1.1578 -0.8138
   49MOL   H21323349   1.140   1.472   1.001 -1.6998 -0.7233  2.2369
   49MOL   H21423350   1.559   1.287   0.946  0.8315 -1.5931 -1.1801
   49MOL   H21523351   1.485   1.250   0.794  0.1212  0.0951 -0.5961
   49MOL   H21623352   1.530   1.053   0.958 -0.6209 -0.2848 -0.5412
   49MOL   H21723353   1.380   1.112   1.040  1.9000  1.8081  0.6871
   49MOL   O21823354   1.260   0.952   0.903  0.0865 -0.2335  0.2496
   49MOL   C21923355   1.174   0.871   0.829 -0.2351  0.6438  0.1443
   49MOL   C22023356   1.059   0.820   0.914  0.2339 -0.0363  0.4525
   49MOL   C22123357   1.102   0.736   1.031 -1.0890  0.4390 -0.1748
   49MOL   C22223358   0.990   0.695   1.126  0.2655 -0.3377  0.2731
   49MOL   O22323359   1.054   0.635   1.243  0.0251  0.4638 -0.0028
   49MOL   C22423360   1.067   0.701   1.352  0.0466 -0.2728 -0.9329
   49MOL   O22523361   1.040   0.819   1.372 -0.7731 -0.3668  0.1444
   49MOL   C22623362   1.129   0.623   1.464 -0.3064  0.4362  0.2682
   49MOL   C22723363   1.049   0.644   1.595 -0.1168 -0.6513 -0.4430
   49MOL   C22823364   1.095   0.536   1.693 -0.0602  0.3473  0.9376
   49MOL   O22923365   1.107   0.577   1.810 -0.3133 -0.2021  0.3442
   49MOL   H23023366   1.136   0.933   0.748  1.0594 -1.9486 -2.5892
   49MOL   H23123367   1.235   0.790   0.787  0.3759  1.1383  0.0639
   49MOL   H23223368   0.995   0.754   0.856  0.6775 -0.3818  0.3563
   49MOL   H23323369   0.995   0.904   0.940 -2.0800 -0.9339 -2.1735
   49MOL   H23423370   1.182   0.780   1.091 -0.6231  1.7300 -1.7262
   49MOL   H23523371   1.152   0.641   1.008 -0.2967  0.9798 -0.7185
   49MOL   H23623372   0.941   0.788   1.155 -0.1228 -0.8315  1.2201
   49MOL   H23723373   0.921   0.623   1.085 -2.9222  0.7674  3.3874
   49MOL   H23823374   1.232   0.646   1.489 -0.2222  0.2549  0.0911
   49MOL   H23923375   1.127   0.516   1.440 -0.1222  1.1416 -3.2511
   49MOL   H24023376   1.075   0.742   1.634 -1.4415 -0.4472 -0.0764
   49MOL   H24123377   0.941   0.638   1.592 -0.1017 -0.9723 -0.3593
   49MOL   O24223378   1.095   0.410   1.652 -0.4048 -0.0761  0.2508
   49MOL   C24323379   1.108   0.297   1.750  0.1313  0.3522  1.1906
   49MOL   C24423380   1.055   0.169   1.684 -0.1866 -0.2039  0.0248
   49MOL   C24523381   0.904   0.180   1.662  0.3338 -0.2195  0.5101
   49MOL   C24623382   0.859   0.068   1.568 -0.7063  0.2977  0.1974
   49MOL   O24723383   0.721   0.083   1.545  0.5778  0.3203 -0.0783
   49MOL   C24823384   0.629   0.014   1.612 -0.2695 -0.5867 -0.5867
   49MOL   O24923385   0.659   7.824   1.708 -0.1957 -0.0813 -0.2608
   49MOL   C25023386   0.488   0.021   1.557 -0.1549  0.3115  0.4163
   49MOL   C25123387   0.428   0.151   1.597 -0.0584  0.1514  0.6476
   49MOL   C25223388   0.364   0.221   1.480 -0.4626  0.1247  0.9854
   49MOL   O25323389   0.407   0.334   1.458 -0.1309 -0.0995 -0.2638
   49MOL   H25423390   1.205   0.273   1.794  1.8275  2.6359 -1.1602
   49MOL   H25523391   1.049   0.323   1.838 -0.6234 -0.4923  0.9420
   49MOL   H25623392   1.064   0.084   1.751  4.5247 -1.3779 -1.8819
   49MOL   H25723393   1.119   0.151   1.597  0.0532 -1.0893  0.3786
   49MOL   H25823394   0.888   0.271   1.605  0.3128 -1.9596 -2.3469
   49MOL   H25923395   0.850   0.192   1.757 -3.6225 -3.8059 -1.1121
   49MOL   H26023396   0.898   0.065   1.467  0.9923  0.3507  0.8439
   49MOL   H26123397   0.890   7.849   1.615 -0.0153 -0.0339 -0.9078
   49MOL   H26223398   0.423   7.816   1.592  1.6943 -0.9592  1.0600
   49MOL   H26323399   0.501   0.014   1.449  0.6998 -0.1747  0.5454
   49MOL   H26423400   0.352   0.126   1.671  0.2224  0.7150  1.1327
   49MOL   H26523401   0.495   0.223   1.645  0.9228 -1.1354  1.2300
   49MOL   O26623402   0.271   0.155   1.410 -0.3768  0.4592  0.5555
   49MOL   C26723403   0.218   0.206   1.292 -0.1535 -0.0762 -0.5724
   49MOL   C26823404   0.069   0.170   1.293 -0.3811 -0.6777  0.1570
   49MOL   C26923405   7.868   0.229   1.413  0.6118 -0.4380 -0.3489
   49MOL   C27023406   7.716   0.214   1.401  0.3945 -0.6104  0.3356
   49MOL   O27123407   7.670   0.286   1.518 -0.2298 -0.5821  0.7255
   49MOL   C27223408   7.545   0.344   1.512 -0.3727  0.3621 -0.9516
   49MOL   O27323409   7.465   0.345   1.417 -0.8859 -0.0640  0.0083
   49MOL   C27423410   7.511   0.417   1.643  0.1252 -0.0207  0.2820
   49MOL   C27523411   7.599   0.537   1.652 -0.9366  0.0668  0.5987
   49MOL   C27623412   7.622   0.576   1.805  0.2353  0.2265  0.1548
   49MOL   O27723413   7.541   0.548   1.894 -0.0973 -0.3261 -0.8135
   49MOL   H27823414   0.223   0.314   1.280  1.9022 -0.0492  0.3813
   49MOL   H27923415   0.277   0.176   1.205 -0.5712  2.0552 -1.6328
   49MOL   H28023416   0.057   0.064   1.313  2.0502 -0.8668  0.8614
   49MOL   H28123417   0.017   0.201   1.203  0.2005  0.6999  0.2764
   49MOL   H28223418   0.011   0.337   1.410 -6.1540  0.8708 -0.6748
   49MOL   H28323419   0.026   0.190   1.509  4.2956 -1.1582 -1.8074
   49MOL   H28423420   7.667   0.243   1.308 -0.4631 -3.6332 -0.2289
   49MOL   H28523421   7.692   0.108   1.413 -2.7682  0.2759  2.2646
   49MOL   H28623422   7.535   0.342   1.718  1.4000 -1.8403 -1.8918
   49MOL   H28723423   7.404   0.438   1.647  0.2768  0.9899 -0.5788
   49MOL   H28823424   7.696   0.513   1.609 -1.1809 -1.4740  0.8808
   49MOL   H28923425   7.555   0.618   1.594 -0.3908 -0.5566 -0.6898
   49MOL   O29023426   7.743   0.648   1.822  0.2478  0.4986 -0.4627
   49MOL   C29123427   7.778   0.694   1.951 -0.3545 -0.1782  0.7822
   49MOL   C29223428   0.032   0.634   1.996  0.4082 -0.6058 -0.1549
   49MOL   C29323429   0.092   0.707   2.122 -0.2056 -0.1356  0.0617
   49MOL   C29423430   0.208   0.634   2.196  0.3214  0.1254  0.0785
   49MOL   O29523431   0.173   0.505   2.233 -0.1212  0.6840 -0.2905
   49MOL   C29623432   0.205   0.454   2.357  0.0950  0.0048  0.2295
   49MOL   O29723433   0.260   0.516   2.443 -0.2901 -0.4170 -0.7569
   49MOL   C29823434   0.162   0.311   2.383  0.1395  0.0117 -0.2592
   49MOL   C29923435   0.265   0.199   2.359 -0.1916  0.0590  0.0572
   49MOL   C30023436   0.416   0.246   2.361  0.4624 -0.1100 -0.4207
   49MOL   O30123437   0.479   0.291   2.263  0.0686  0.0532  0.3497
   49MOL   H30223438   7.793   0.802   1.954 -0.7698 -0.1110  0.3806
   49MOL   H30323439   7.697   0.691   2.023  1.6737  0.9834  3.1628
   49MOL   H30423440   0.107   0.635   1.917 -0.5945  2.6549 -1.1396
   49MOL   H30523441   0.019   0.532   2.032  2.3429 -0.2802  1.5772
   49MOL   H30623442   0.003   0.714   2.186  1.2937  0.1496  2.1623
   49MOL   H30723443   0.120   0.806   2.086  0.1846 -1.2252 -2.8036
   49MOL   H30823444   0.291   0.622   2.126  0.1979 -0.1088 -0.0275
   49MOL   H30923445   0.250   0.695   2.276  1.4794  1.1509 -1.2892
   49MOL   H31023446   0.065   0.293   2.336  0.1119 -1.2821  0.2610
   49MOL   H31123447   0.149   0.310   2.491 -1.1005  1.6563 -0.3741
   49MOL   H31223448   0.257   0.123   2.437  1.4442  0.0347  0.2142
   49MOL   H31323449   0.259   0.143   2.266  0.6601 -0.9345  0.5742
   49MOL   O31423450   0.449   0.257   2.492  0.1204 -0.2445 -0.5927
   49MOL   C31523451   0.562   0.338   2.529  0.2340 -0.2426 -0.5539
   49MOL   C31623452   0.572   0.366   2.684 -0.2300 -0.6130  0.4211
   49MOL   C31723453   0.720   0.373   2.731 -0.1972 -0.6700  0.4526
   49MOL   C31823454   0.722   0.399   2.881  0.3941 -0.6094 -0.4990
   49MOL   O31923455   0.858   0.394   2.923 -0.0499 -0.6007  0.3486
   49MOL   C32023456   0.918   0.506   2.953  0.1877 -0.4535  1.3944
   49MOL   O32123457   0.867   0.617   2.940  0.1262 -0.4862 -0.1001
   49MOL   C32223458   1.064   0.492   2.990  0.4033 -0.3674  0.0426
   49MOL   C32323459   1.141   0.621   2.965 -0.2687  0.1482 -0.3371
   49MOL   C32423460   1.175   0.641   2.815  0.8643  0.1598 -0.5407
   49MOL   O32523461   1.144   0.567   2.715  0.3102  0.3402  0.2789
   49MOL   H32623462   0.647   0.280   2.492 -0.3746 -0.4641 -1.6160
   49MOL   H32723463   0.559   0.437   2.484  1.5610  0.0465 -0.0352
   49MOL   H32823464   0.518   0.299   2.750 -1.5027  0.2154  0.2457
   49MOL   H32923465   0.520   0.461   2.697  1.8415  0.5282  0.5267
   49MOL   H33023466   0.770   0.442   2.663 -0.2454 -1.0323  0.0473
   49MOL   H33123467   0.763   0.274   2.715  0.2370 -0.6199  1.2658
   49MOL   H33223468   0.678   0.498   2.897  1.3586  0.1078 -2.1667
   49MOL   H33323469   0.669   0.321   2.935  1.2791 -0.6899  0.2564
   49MOL   H33423470   1.116   0.413   2.934  0.7561 -0.5401  0.6133
   49MOL   H33523471   1.082   0.463   3.093  1.3948  1.2072  0.3140
   49MOL   H33623472   1.072   0.704   2.980  1.2780  1.4088 -0.0140
   49MOL   H33723473   1.222   0.642   3.035  0.2324 -2.6371 -0.0243
   49MOL   O33823474   1.253   0.750   2.798 -0.1358 -0.5283  0.6767
   49MOL   C33923475   1.322   0.772   2.674 -0.2058 -0.6256  0.4215
   49MOL   C34023476   1.377   0.913   2.661  0.3502 -0.7548 -0.0409
   49MOL   C34123477   1.273   1.008   2.618  0.4608 -0.4245 -0.1358
   49MOL   C34223478   1.308   1.159   2.640 -0.0328  0.6420 -0.1158
   49MOL   O34323479   1.429   1.204   2.573  0.2245  0.0336  0.5849
   49MOL   C34423480   1.413   1.262   2.455  0.1597  0.2529  0.5198
   49MOL   O34523481   1.304   1.265   2.388  0.9444 -0.0714 -0.2486
   49MOL   C34623482   1.550   1.292   2.401 -0.5680  0.2545  0.1634
   49MOL   C34723483   1.635   1.165   2.367  0.0302 -0.1382 -0.0457
   49MOL   C34823484   1.762   1.155   2.449 -0.0255  0.3341 -0.0173
   49MOL   O34923485   1.804   1.247   2.521  0.3592 -0.1012 -0.4791
   49MOL   H35023486   1.398   0.695   2.660  1.3415  0.8913  0.3251
   49MOL   H35123487   1.252   0.755   2.592 -1.2908  1.3828  0.8924
   49MOL   H35223488   1.455   0.916   2.585  0.0147 -0.5332 -0.3784
   49MOL   H35323489   1.418   0.946   2.757 -0.5794 -0.9243  0.4203
   49MOL   H35423490   1.185   0.982   2.676  0.6924 -1.1608 -0.1045
   49MOL   H35523491   1.239   1.010   2.515 -2.1013 -1.2294  0.6519
   49MOL   H35623492   1.215   1.213   2.625 -0.4379  0.1999  0.7552
   49MOL   H35723493   1.328   1.182   2.745 -0.6633 -0.6808  0.3092
   49MOL   H35823494   1.598   1.359   2.472 -0.1057  2.0062 -1.7703
   49MOL   H35923495   1.544   1.344   2.306  0.9825 -0.3471 -0.2943
   49MOL   H36023496   1.584   1.069   2.382 -0.8894  0.0028 -2.0610
   49MOL   H36123497   1.667   1.160   2.263  1.2929 -1.0303  0.3744
   49MOL   O36223498   1.815   1.039   2.432 -0.6913  0.1002  0.6249
   49MOL   C36323499   1.937   0.986   2.493 -0.4024 -0.1368 -0.5229
   49MOL   C36423500   2.064   1.026   2.403 -0.8760  0.7796 -0.3210
   49MOL   C36523501   2.068   0.961   2.268  0.2627 -0.2896  0.0517
   49MOL   C36623502   2.196   0.997   2.187 -0.1649 -0.1184 -0.3875
   49MOL   O36723503   2.216   1.140   2.164  0.2042  0.5161 -0.5843
   49MOL   C36823504   2.146   1.202   2.064 -0.5449 -0.3968  0.9203
   49MOL   O36923505   2.072   1.143   1.981  0.3501  0.1645  0.0041
   49MOL   C37023506   2.163   1.353   2.055 -0.0708 -0.9552 -0.1423
   49MOL   C37123507   2.053   1.423   1.983  0.1658 -0.4580  0.6146
   49MOL   C37223508   1.966   1.521   2.061  0.4162 -0.1531 -0.5701
   49MOL   O37323509   1.848   1.519   2.059 -1.0189 -0.3585  0.1304
   49MOL   H37423510   1.950   1.029   2.593 -0.9164 -0.3849 -0.3484
   49MOL   H37523511   1.938   0.877   2.493  2.4054 -0.2055 -4.0047
   49MOL   H37623512   2.154   1.002   2.459 -0.2133  2.2917 -0.7179
   49MOL   H37723513   2.072   1.133   2.383 -0.4790  0.4736 -1.8913
   49MOL   H37823514   1.972   0.972   2.217 -0.3132 -1.2411  0.9236
   49MOL   H37923515   2.076   0.854   2.287 -2.6595 -0.1113  2.6617
   49MOL   H38023516   2.286   0.970   2.241  0.5321 -1.0702 -1.9770
   49MOL   H38123517   2.208   0.947   2.091  3.0503  0.4884 -0.3285
   49MOL   H38223518   2.251   1.372   1.994 -0.6351 -0.5023 -0.8247
   49MOL   H38323519   2.183   1.402   2.150 -2.6847 -1.0368  0.5175
   49MOL   H38423520   2.102   1.483   1.907  0.4565 -1.6953 -0.1823
   49MOL   H38523521   1.991   1.351   1.930 -1.4430 -0.5466  2.5380
   49MOL   O38623522   2.046   1.604   2.130  0.1389  0.1817 -0.1320
   49MOL   C38723523   1.987   1.702   2.217 -0.3887  0.0397  0.5624
   49MOL   C38823524   1.954   1.667   2.367 -0.3109  0.2991 -0.2957
   49MOL   C38923525   1.895   1.791   2.431  0.2373 -0.0850 -0.4064
   49MOL   C39023526   1.890   1.781   2.589  0.3258 -0.2580  0.0653
   49MOL   O39123527   1.796   1.684   2.624  0.2786 -0.3237  0.1486
   49MOL   C39223528   1.745   1.679   2.751 -0.8933 -0.0836 -0.4905
   49MOL   O39323529   1.757   1.775   2.830 -0.0468  0.4801  0.0786
   49MOL   C39423530   1.664   1.554   2.783 -0.1861  0.6266  0.1183
   49MOL   C39523531   1.516   1.574   2.797 -0.1729  0.0014  0.4132
   49MOL   C39623532   1.450   1.504   2.910 -0.0920  0.0945 -0.2656
   49MOL   O39723533   1.407   1.387   2.888 -0.5540  0.4726  0.5930
   49MOL   H39823534   2.066   1.777   2.223 -1.8052  1.8489 -2.1122
   49MOL   H39923535   1.912   1.768   2.172  1.4437  1.7077 -0.1156
   49MOL   H40023536   2.043   1.626   2.413  0.7394  0.2081 -2.3706
   49MOL   H40123537   1.886   1.582   2.364  1.0562 -0.8510  0.8728
   49MOL   H40223538   1.794   1.800   2.391 -0.9832  0.8472  2.6566
   49MOL   H40323539   1.951   1.881   2.404  1.0613 -0.4891 -0.0746
   49MOL   H40423540   1.994   1.759   2.614  0.3820  1.1346  1.1111
   49MOL   H40523541   1.863   1.878   2.632  1.4377  1.0035 -2.0042
   49MOL   H40623542   1.718   1.513   2.869 -2.3727  1.0352  1.7421
   49MOL   H40723543   1.689   1.487   2.701  1.9594 -0.9133  1.9591
   49MOL   H40823544   1.506   1.679   2.823 -0.4977 -0.1206  0.7826
   49MOL   H40923545   1.466   1.561   2.700  2.0538  1.1120 -0.9234
   49MOL   O41023546   1.435   1.578   3.024 -0.9753 -0.0419  0.2927
   49MOL   C41123547   1.356   1.538   3.131 -0.7242  1.1495 -0.4309
   49MOL   C41223548   1.235   1.634   3.154  0.2920 -0.6541 -0.3574
   49MOL   C41323549   1.146   1.588   3.267  0.6990 -0.5229  0.8502
   49MOL   C41423550   1.216   1.594   3.400  0.0646  0.2342 -0.6222
   49MOL   O41523551   1.316   1.493   3.422  1.0137 -0.0710 -0.2505
   49MOL   C41623552   1.282   1.380   3.473 -0.4518  0.0636 -0.3097
   49MOL   O41723553   1.170   1.344   3.512 -0.5830 -0.0870 -0.5254
   49MOL   C41823554   1.407   1.291   3.486  0.0999  0.7032 -0.3666
   49MOL   C41923555   1.445   1.242   3.338  0.4423  0.0236 -1.5161
   49MOL   C42023556   1.579   1.287   3.282 -0.7577  0.6424 -0.2472
   49MOL   O42123557   1.650   1.364   3.348 -0.3237  0.0239  0.4579
   49MOL   H42223558   1.328   1.433   3.122 -1.9115  1.5506 -1.6689
   49MOL   H42323559   1.417   1.541   3.221 -1.4929  0.9227  0.0980
   49MOL   H42423560   1.182   1.640   3.059 -1.3072  0.6857  0.5778
   49MOL   H42523561   1.273   1.734   3.174 -1.4859 -0.1079  0.4824
   49MOL   H42623562   1.101   1.489   3.254 -2.1818  0.6303  1.5261
   49MOL   H42723563   1.063   1.659   3.273 -1.1290 -2.5127 -0.0034
   49MOL   H42823564   1.258   1.694   3.396 -0.5627  0.4913 -0.8087
   49MOL   H42923565   1.137   1.593   3.475 -0.1746  1.8153 -0.8339
   49MOL   H43023566   1.386   1.210   3.555 -1.7614  1.3863 -0.0895
   49MOL   H43123567   1.488   1.347   3.532  0.9971  1.2292 -2.5252
   49MOL   H43223568   1.438   1.134   3.327  1.5327 -0.0449 -1.6136
   49MOL   H43323569   1.371   1.292   3.276 -1.2253  0.1992  0.5600
   49MOL   O43423570   1.599   1.238   3.155  0.2069 -0.3785 -0.5884
   49MOL   C43523571   1.714   1.268   3.077  0.1277  0.1320 -0.0219
   49MOL   C43623572   1.765   1.151   2.997  0.0731  0.0239 -0.0380
   49MOL   C43723573   1.662   1.100   2.902  0.7935  0.3400 -0.0926
   49MOL   C43823574   1.736   1.037   2.784 -0.2396  0.7185 -0.4352
   49MOL   O43923575   1.807   0.913   2.814  0.2364  0.1828  0.1900
   49MOL   C44023576   1.732   0.796   2.827 -0.1298  0.6767  0.3819
   49MOL   O44123577   1.619   0.783   2.789 -0.0088  0.0441  0.5244
   49MOL   C44223578   1.813   0.681   2.871 -0.9028  0.3090  0.0378
   49MOL   C44323579   1.913   0.654   2.765 -0.5111 -0.2169  0.5973
   49MOL   C44423580   1.839   0.596   2.648 -0.5710 -0.4425  0.2570
   49MOL   O44523581   1.832   0.475   2.633 -0.7654  0.1797  0.2880
   49MOL   H44623582   1.702   1.352   3.008  2.3563 -0.0808 -0.6933
   49MOL   H44723583   1.794   1.291   3.148  2.2677 -4.3769 -0.8278
   49MOL   H44823584   1.807   1.076   3.065  0.2221 -0.5299 -0.7363
   49MOL   H44923585   1.850   1.201   2.950  0.8535 -0.0914  1.1989
   49MOL   H45023586   1.593   1.177   2.869 -1.4779 -1.2656  0.7766
   49MOL   H45123587   1.599   1.030   2.958  0.1803 -2.0022 -3.5004
   49MOL   H45223588   1.667   1.040   2.700 -1.2911 -0.0255  0.3941
   49MOL   H45323589   1.811   1.115   2.765 -0.8164  1.6482  1.0220
   49MOL   H45423590   1.755   0.595   2.904 -1.0630  0.4675  0.1667
   49MOL   H45523591   1.874   0.706   2.958 -1.5124  0.1594  0.5127
   49MOL   H45623592   1.965   0.739   2.721  1.5451 -0.9849  1.4924
   49MOL   H45723593   1.992   0.585   2.795 -0.3233  0.1534  0.9597
   49MOL   O45823594   1.780   0.688   2.566  0.6127  0.5804  0.0168
   49MOL   C45923595   1.700   0.645   2.457  0.0257  0.3652 -0.8090
   49MOL   C46023596   1.637   0.764   2.379  0.5204  0.1476  0.2176
   49MOL   C46123597   1.540   0.720   2.268  0.0627 -0.5543 -0.0980
   49MOL   C46223598   1.459   0.841   2.212 -0.1435 -0.0804  0.0575
   49MOL   O46323599   1.346   0.796   2.136  0.5486 -0.0960  0.0814
   49MOL   C46423600   1.235   0.752   2.194  0.3297 -0.6865  0.3203
   49MOL   O46523601   1.211   0.750   2.318  0.0008  0.1948 -0.2436
   49MOL   C46623602   1.122   0.722   2.098  0.1516  1.1414  0.1023
   49MOL   C46723603   1.057   0.839   2.020 -0.2925 -0.1048 -0.0588
   49MOL   C46823604   0.964   0.925   2.104  0.0129 -0.0843 -0.4241
   49MOL   O46923605   0.874   0.883   2.177  0.6332 -0.2486 -0.4280
   49MOL   H47023606   1.760   0.584   2.390 -0.5753  0.0884 -1.1062
   49MOL   H47123607   1.625   0.571   2.487  1.9825 -1.9951 -1.6125
   49MOL   H47223608   1.713   0.820   2.324  0.4034 -0.2224 -0.3198
   49MOL   H47323609   1.590   0.838   2.444  1.9340  0.2364  1.1689
   49MOL   H47423610   1.468   0.651   2.311 -0.9675 -0.0784 -1.0277
   49MOL   H47523611   1.599   0.666   2.193 -0.5785 -0.5131 -0.6373
   49MOL   H47623612   1.436   0.912   2.292  0.3839  0.3044 -0.1300
   49MOL   H47723613   1.532   0.882   2.142 -1.1556 -0.5441 -1.2954
   49MOL   H47823614   1.032   0.674   2.138  0.8207 -1.4910 -1.3754
   49MOL   H47923615   1.159   0.642   2.033  1.8039 -0.5038  2.9605
   49MOL   H48023616   1.125   0.908   1.971  0.1569  0.6994  1.6714
   49MOL   H48123617   0.996   0.801   1.938 -0.4297 -2.1636  0.9497
   49MOL   H48223618   0.972   1.033   2.099 -0.4029 -0.0694 -0.8236
   50MOL     O123619   2.196   7.564   3.760 -0.0597  0.3124 -0.8476
   50MOL     C223620   2.058   7.558   3.784  0.1921  0.2612  0.3311
   50MOL     C323621   2.016   7.526   3.929  0.4487  0.4780 -0.3698
   50MOL     C423622   1.868   7.529   3.953 -0.0115  0.2019 -0.2197
   50MOL     C523623   1.836   7.482   4.102  0.0092 -0.2849  0.7180
   50MOL     O623624   1.697   7.451   4.110 -0.1236 -0.0490 -0.0529
   50MOL     C723625   1.607   7.546   4.158 -0.2610  0.5428  0.3551
   50MOL     O823626   1.632   7.662   4.195  0.3260 -0.1811  0.1642
   50MOL     C923627   1.464   7.508   4.129  0.1309 -0.5912  0.4617
   50MOL    C1023628   1.409   7.542   3.994  0.3319  0.1180 -0.9466
   50MOL    C1123629   1.255   7.541   3.996  0.1763 -0.1775 -0.2899
   50MOL    O1223630   1.192   7.456   3.942  0.0333  0.3648  0.2567
   50MOL    H1323631   2.019   7.654   3.750  0.4975  0.5211  0.7171
   50MOL    H1423632   2.007   7.480   3.726  0.7019  0.5443 -0.5079
   50MOL    H1523633   2.058   7.599   3.998 -1.6192  1.6029 -0.2643
   50MOL    H1623634   2.058   7.430   3.959  1.9664  0.9903 -0.8113
   50MOL    H1723635   1.825   7.460   3.880 -0.0675  0.2237 -0.2071
   50MOL    H1823636   1.821   7.625   3.933  2.9904  1.5005 -1.2633
   50MOL    H1923637   1.895   7.392   4.117 -0.5558 -0.8225 -0.2913
   50MOL    H2023638   1.861   7.563   4.172  1.6004 -0.2995  0.1985
   50MOL    H2123639   1.404   7.548   4.210  1.8787 -0.6931  1.8289
   50MOL    H2223640   1.466   7.400   4.144  0.8541 -1.0029 -2.3064
   50MOL    H2323641   1.447   7.640   3.964 -0.2438  0.6455  0.0195
   50MOL    H2423642   1.442   7.477   3.913  0.6526 -1.5279  0.4684
   50MOL    H2523643   2.229   7.649   3.785  0.4993 -0.0406 -0.3719
   50MOL    O2623644   1.200   7.647   4.059 -0.5557  0.1693 -0.5717
   50MOL    C2723645   1.060   7.684   4.057 -0.3665  0.2208 -0.2592
   50MOL    C2823646   0.986   7.607   4.172  0.9800  0.0986  0.3775
   50MOL    C2923647   0.839   7.637   4.199 -0.2301 -0.0722  0.3428
   50MOL    C3023648   0.777   7.543   4.312 -0.6021  0.6075  0.1654
   50MOL    O3123649   0.638   7.572   4.338  0.0659 -0.6357 -0.2513
   50MOL    C3223650   0.548   7.521   4.254 -0.9375 -0.2522 -0.0832
   50MOL    O3323651   0.578   7.444   4.159 -0.5116 -0.0438 -0.4929
   50MOL    C3423652   0.401   7.539   4.293 -0.0176 -0.6189  0.1465
   50MOL    C3523653   0.379   7.650   4.392  0.3538 -0.4047 -0.7513
   50MOL    C3623654   0.263   7.742   4.352  0.2402  0.2254  0.6120
   50MOL    O3723655   0.256   7.784   4.239 -0.1186  0.4246 -0.5445
   50MOL    H3823656   1.054   7.790   4.081  0.2319 -0.0555  1.1400
   50MOL    H3923657   1.014   7.673   3.959 -1.4889 -1.9233  0.4690
   50MOL    H4023658   1.044   7.624   4.263  1.5894  0.7428 -0.1259
   50MOL    H4123659   0.994   7.501   4.152  0.0866  0.0140  0.4489
   50MOL    H4223660   0.800   7.614   4.100 -0.7193  1.6853  0.1101
   50MOL    H4323661   0.835   7.741   4.233  2.7710  0.7298 -1.5766
   50MOL    H4423662   0.780   7.437   4.287  0.8819  0.8557 -0.7979
   50MOL    H4523663   0.833   7.556   4.404  0.6798  3.4305 -0.9601
   50MOL    H4623664   0.355   7.447   4.329  0.4772 -1.4163 -1.2117
   50MOL    H4723665   0.346   7.557   4.201 -0.4333 -0.9649  0.3249
   50MOL    H4823666   0.350   7.601   4.484 -2.2884  1.8957 -0.2888
   50MOL    H4923667   0.459   7.723   4.403 -0.0906  0.0121 -0.2496
   50MOL    O5023668   0.169   7.768   4.450 -0.2428  0.0123  0.2442
   50MOL    C5123669   0.056   7.857   4.437  0.5021  0.3906  0.2195
   50MOL    C5223670   0.099   0.128   4.429  0.2260  0.7179  1.1611
   50MOL    C5323671   0.175   0.170   4.545  0.2446 -0.6092 -0.1480
   50MOL    C5423672   0.250   0.301   4.534 -0.7706  0.0593  0.1200
   50MOL    O5523673   0.179   0.422   4.532 -0.4687  0.2047 -0.1264
   50MOL    C5623674   0.222   0.519   4.449  0.6794  1.1135 -0.2125
   50MOL    O5723675   0.327   0.517   4.385 -0.5315 -0.4293 -0.1997
   50MOL    C5823676   0.153   0.647   4.460  0.0382  0.8094  0.0664
   50MOL    C5923677   0.012   0.633   4.398 -0.8103 -0.4021  0.0488
   50MOL    C6023678   7.771   0.684   4.486 -0.8848  0.3090  0.0980
   50MOL    O6123679   7.684   0.602   4.513 -0.0674 -0.0651 -0.2144
   50MOL    H6223680   7.851   7.829   4.369  0.5760 -0.3556  0.4413
   50MOL    H6323681   0.014   7.845   4.537  2.6752  0.4015  1.1711
   50MOL    H6423682   0.005   0.183   4.429  0.6502  1.4495  1.4576
   50MOL    H6523683   0.147   0.152   4.334 -0.3161  1.0061  0.9548
   50MOL    H6623684   0.255   0.101   4.573  0.6995 -0.0824 -0.1541
   50MOL    H6723685   0.116   0.176   4.636  2.7484  0.8656  1.4493
   50MOL    H6823686   0.329   0.325   4.605 -1.2093  0.8522  0.3460
   50MOL    H6923687   0.308   0.287   4.442  1.1007 -0.6246  1.3753
   50MOL    H7023688   0.197   0.731   4.405  1.6102 -0.1311 -0.1683
   50MOL    H7123689   0.149   0.678   4.564 -0.3147  2.1016 -0.3149
   50MOL    H7223690   0.006   0.691   4.306  0.8141 -0.4256 -0.0852
   50MOL    H7323691   7.861   0.535   4.358 -3.1692 -0.3723  1.3956
   50MOL    O7423692   7.788   0.803   4.542  1.0279  0.2268  0.0002
   50MOL    C7523693   7.686   0.854   4.629  0.9390 -0.2053  0.1026
   50MOL    C7623694   7.719   1.001   4.670  0.5544  0.1666 -0.5073
   50MOL    C7723695   7.840   1.016   4.758 -0.6394  1.1848  0.3560
   50MOL    C7823696   7.859   1.157   4.823  0.8144  0.3181 -0.2089
   50MOL    O7923697   0.040   1.242   4.726 -0.0872 -0.2631  0.0933
   50MOL    C8023698   0.059   1.372   4.753 -0.1539  0.2498 -0.1034
   50MOL    O8123699   0.027   1.435   4.852  0.0345 -0.0920 -0.6469
   50MOL    C8223700   0.110   1.444   4.630  0.3718 -0.5797  0.8834
   50MOL    C8323701   0.053   1.402   4.484 -0.0846  0.0824 -0.4534
   50MOL    C8423702   7.786   1.447   4.473  1.4565  0.7986 -0.0550
   50MOL    O8523703   7.746   1.561   4.501 -0.6695  0.3307  0.5364
   50MOL    H8623704   7.584   0.844   4.592  1.6201 -2.7157 -1.2261
   50MOL    H8723705   7.690   0.796   4.722 -4.3363 -0.0889  0.5438
   50MOL    H8823706   7.628   1.040   4.717  1.0023 -0.1421  0.6193
   50MOL    H8923707   7.731   1.057   4.576 -2.3181 -1.0847 -1.6850
   50MOL    H9023708   0.058   0.982   4.712 -1.2127 -0.7836  0.6057
   50MOL    H9123709   7.810   0.946   4.836 -1.0499 -1.1805 -1.8551
   50MOL    H9223710   7.768   1.200   4.865 -0.3050 -0.4264 -1.8654
   50MOL    H9323711   0.059   1.136   4.900  0.8287 -1.5130 -0.6994
   50MOL    H9423712   0.218   1.457   4.625  0.0278  2.1859 -0.0739
   50MOL    H9523713   0.076   1.543   4.659 -1.3416 -1.6116  2.5046
   50MOL    H9623714   0.117   1.448   4.409 -0.8823  1.1962 -0.4728
   50MOL    H9723715   0.060   1.296   4.461  1.4459  0.0832 -0.0231
   50MOL    O9823716   7.702   1.355   4.430  0.3059  0.0938 -0.4281
   50MOL    C9923717   7.571   1.382   4.386 -0.3861 -0.1919  0.2920
   50MOL   C10023718   7.471   1.351   4.495 -0.2190 -0.1297 -0.3757
   50MOL   C10123719   7.450   1.204   4.518 -0.4436 -0.4432  0.0704
   50MOL   C10223720   7.372   1.186   4.652  0.1199 -0.0297  0.4227
   50MOL   O10323721   7.234   1.222   4.636 -0.1521  0.3666  0.3734
   50MOL   C10423722   7.169   1.260   4.743 -0.1777 -0.6997  0.5645
   50MOL   O10523723   7.213   1.259   4.859  0.6710 -0.8983 -0.3955
   50MOL   C10623724   7.030   1.322   4.708 -0.0874 -0.2166  0.0455
   50MOL   C10723725   6.922   1.215   4.675  0.2112  0.2622  0.2276
   50MOL   C10823726   6.796   1.230   4.760 -0.6426  0.3130 -0.5033
   50MOL   O10923727   6.759   1.140   4.828  0.2485  0.5845 -0.0658
   50MOL   H11023728   7.578   1.487   4.358  0.6337 -0.3402 -0.0388
   50MOL   H11123729   7.549   1.335   4.290  1.2962 -1.7007  0.6060
   50MOL   H11223730   7.377   1.401   4.473 -0.9094 -1.4173 -0.4129
   50MOL   H11323731   7.497   1.406   4.586  0.7935  0.5365 -1.0607
   50MOL   H11423732   7.544   1.153   4.538  0.7485  0.7798 -2.1513
   50MOL   H11523733   7.422   1.160   4.422 -1.5537  2.2826 -0.9263
   50MOL   H11623734   7.376   1.081   4.680  0.8149 -0.3732 -0.9118
   50MOL   H11723735   7.421   1.236   4.735  1.0932 -2.1657  1.1766
   50MOL   H11823736   7.036   1.386   4.620  1.9981  1.2792  1.2208
   50MOL   H11923737   7.001   1.389   4.789 -0.4137  1.2177 -1.2280
   50MOL   H12023738   6.903   1.223   4.568  1.5306 -2.0838 -0.2008
   50MOL   H12123739   6.954   1.113   4.697  0.7991  0.4235  0.1300
   50MOL   O12223740   6.754   1.352   4.755  0.1728 -0.2119 -0.1042
   50MOL   C12323741   6.647   1.392   4.844 -0.3611  0.1753 -0.2665
   50MOL   C12423742   6.706   1.454   4.968 -0.2502 -0.6598  0.0795
   50MOL   C12523743   6.612   1.520   5.057 -0.1049  0.1339 -0.1435
   50MOL   C12623744   6.681   1.616   5.156 -0.2504  0.2270 -0.1548
   50MOL   O12723745   6.586   1.692   5.241  0.0162 -0.4785 -0.2162
   50MOL   C12823746   6.521   1.794   5.182 -0.2971 -0.5996 -0.7939
   50MOL   O12923747   6.551   1.842   5.072  0.3750 -0.2609  0.1019
   50MOL   C13023748   6.418   1.844   5.270 -0.5104  0.2315 -0.3052
   50MOL   C13123749   6.369   1.984   5.237 -1.3434 -0.5566  0.4243
   50MOL   C13223750   6.225   2.005   5.287 -0.1325  0.1778 -0.6479
   50MOL   O13323751   6.203   1.989   5.407  0.2761 -0.2654 -0.8046
   50MOL   H13423752   6.585   1.466   4.793 -0.2276 -1.0188 -2.2226
   50MOL   H13523753   6.578   1.315   4.877  0.2053 -0.5913 -0.8486
   50MOL   H13623754   6.777   1.528   4.931 -2.1009  0.1403 -1.9951
   50MOL   H13723755   6.757   1.380   5.030 -1.4232 -3.3158 -2.0403
   50MOL   H13823756   6.565   1.438   5.111 -0.1108  0.5881  0.5523
   50MOL   H13923757   6.538   1.577   5.001 -0.0991  1.2535  0.9513
   50MOL   H14023758   6.739   1.556   5.226  3.1353  0.9478 -2.2541
   50MOL   H14123759   6.753   1.685   5.113  0.9942 -2.0100 -1.7423
   50MOL   H14223760   6.462   1.846   5.370 -1.0105  1.1481 -0.0977
   50MOL   H14323761   6.337   1.771   5.268  1.4000 -1.9377 -1.2617
   50MOL   H14423762   6.430   2.064   5.279 -0.8767  0.5481 -2.2372
   50MOL   H14523763   6.363   1.999   5.129  0.7266 -1.1962  0.1930
   50MOL   O14623764   6.131   2.016   5.188 -0.0510 -0.1163  0.1813
   50MOL   C14723765   6.003   2.068   5.221 -0.1275 -0.2346 -0.7848
   50MOL   C14823766   5.892   2.009   5.147  0.2859 -0.7504 -0.4535
   50MOL   C14923767   5.892   2.030   4.988  0.2063 -0.0914 -0.0005
   50MOL   C15023768   5.886   2.174   4.931 -0.5532  0.0799 -0.2480
   50MOL   O15123769   6.016   2.237   4.941  0.5206 -0.0315 -0.5699
   50MOL   C15223770   6.036   2.369   4.979  0.8421 -0.1106 -1.0502
   50MOL   O15323771   5.949   2.455   4.994 -0.7682  0.2463  0.0341
   50MOL   C15423772   6.178   2.415   4.990  0.8918  0.3565 -0.3906
   50MOL   C15523773   6.269   2.301   5.044 -0.2779  0.5551 -0.2494
   50MOL   C15623774   6.385   2.256   4.956 -0.3449 -0.6256  0.0638
   50MOL   O15723775   6.380   2.267   4.832 -0.3825 -0.1539 -0.4313
   50MOL   H15823776   5.976   2.050   5.325 -1.4981  2.6356 -0.5660
   50MOL   H15923777   5.991   2.176   5.210 -0.6966 -0.3164 -1.0076
   50MOL   H16023778   5.797   2.046   5.185  0.3885 -0.4124 -0.5337
   50MOL   H16123779   5.886   1.904   5.178  0.4091 -1.1781 -1.7986
   50MOL   H16223780   5.798   1.988   4.953 -0.5862  2.1690 -0.7209
   50MOL   H16323781   5.972   1.976   4.939 -0.2030 -0.2170 -0.5348
   50MOL   H16423782   5.845   2.186   4.830 -2.3947  0.3421  0.5042
   50MOL   H16523783   5.804   2.224   4.983  0.3954 -0.9833  2.3531
   50MOL   H16623784   6.178   2.499   5.058 -0.1456 -0.5810  0.7850
   50MOL   H16723785   6.208   2.435   4.887  1.2388 -0.0940 -0.3819
   50MOL   H16823786   6.323   2.341   5.130  0.1850 -3.9407  1.6947
   50MOL   H16923787   6.225   2.210   5.084  1.7404  0.1734  1.1869
   50MOL   O17023788   6.496   2.222   5.030  0.0589  0.0524  0.1237
   50MOL   C17123789   6.617   2.190   4.967  0.2055  0.0053  0.7663
   50MOL   C17223790   6.729   2.139   5.060 -0.6134  0.2544 -0.1281
   50MOL   C17323791   6.827   2.054   4.989  0.2795 -0.3726  0.3880
   50MOL   C17423792   6.937   2.009   5.080  0.3656  0.3921  0.0466
   50MOL   O17523793   6.885   1.921   5.182 -0.3741  0.8998  0.4393
   50MOL   C17623794   6.948   1.898   5.299  0.2320 -0.5419 -0.5153
   50MOL   O17723795   7.063   1.936   5.329 -0.5604  0.3251 -0.2978
   50MOL   C17823796   6.854   1.819   5.396  0.0364 -0.2668  0.5468
   50MOL   C17923797   6.908   1.800   5.538  0.4738 -0.5889 -0.3724
   50MOL   C18023798   6.815   1.842   5.652  0.2204 -0.0843 -0.1142
   50MOL   O18123799   6.695   1.884   5.636  0.1000 -0.0955 -0.2379
   50MOL   H18223800   6.598   2.136   4.874 -1.6867 -0.3201  1.3262
   50MOL   H18323801   6.663   2.286   4.943  0.2337  0.4736  2.6166
   50MOL   H18423802   6.681   2.089   5.144  1.1889  0.0016  0.7883
   50MOL   H18523803   6.779   2.225   5.105 -1.2374  0.6481 -0.1816
   50MOL   H18623804   6.860   2.109   4.901  0.4641 -1.4939 -0.2523
   50MOL   H18723805   6.765   1.973   4.951  0.0460  0.1276 -0.3109
   50MOL   H18823806   6.997   1.938   5.024 -0.7253  0.8506 -1.7400
   50MOL   H18923807   6.989   2.095   5.123 -2.2584  0.8211  2.5553
   50MOL   H19023808   6.829   1.729   5.339  1.5997  0.8504 -1.9879
   50MOL   H19123809   6.771   1.889   5.399  0.1293 -0.0673 -0.8913
   50MOL   H19223810   6.932   1.695   5.559 -1.7585 -0.9835  0.3316
   50MOL   H19323811   6.998   1.857   5.560 -0.6360  0.0449  2.8342
   50MOL   O19423812   6.889   1.827   5.771 -0.4424  0.4256  0.2470
   50MOL   C19523813   6.832   1.882   5.890 -0.1393  0.1593 -0.4212
   50MOL   C19623814   6.846   2.037   5.888 -0.4880 -0.0952  0.6931
   50MOL   C19723815   6.817   2.089   6.032  0.0894  0.4285  0.2136
   50MOL   C19823816   6.824   2.240   6.049  0.6405 -0.0351 -0.1369
   50MOL   O19923817   6.776   2.273   6.181  0.3559 -0.5074  0.0405
   50MOL   C20023818   6.857   2.314   6.272 -0.4300 -0.0676 -0.2519
   50MOL   O20123819   6.978   2.344   6.259 -0.2744 -0.0086  0.5310
   50MOL   C20223820   6.782   2.363   6.397 -0.1363  0.1216  0.1558
   50MOL   C20323821   6.884   2.435   6.488  0.1006  0.5886 -0.4798
   50MOL   C20423822   6.833   2.458   6.634  0.6455 -0.5622 -0.5089
   50MOL   O20523823   6.873   2.555   6.704 -0.2226 -0.6377 -0.1237
   50MOL   H20623824   6.728   1.857   5.915 -0.3380 -0.5337 -1.8909
   50MOL   H20723825   6.896   1.835   5.964 -0.2554  2.3508  1.1005
   50MOL   H20823826   6.784   2.089   5.815 -0.9148 -0.7206  0.6049
   50MOL   H20923827   6.948   2.067   5.866 -1.3505  0.7206 -2.5207
   50MOL   H21023828   6.888   2.042   6.100  0.0278 -0.8140 -0.5702
   50MOL   H21123829   6.718   2.061   6.067  1.0565 -0.2620  2.4977
   50MOL   H21223830   6.918   2.287   6.020 -0.9342  2.9285 -0.6707
   50MOL   H21323831   6.756   2.291   5.981 -2.2980 -2.1982  1.1067
   50MOL   H21423832   6.729   2.281   6.446 -0.0629  0.0136  0.0529
   50MOL   H21523833   6.705   2.434   6.368  0.5712  0.3674 -1.1918
   50MOL   H21623834   6.978   2.379   6.497 -1.3821 -1.7433  1.2041
   50MOL   H21723835   6.912   2.522   6.430 -2.7844  1.1252 -1.0881
   50MOL   O21823836   6.743   2.359   6.671  0.1798 -0.1236  0.3501
   50MOL   C21923837   6.681   2.380   6.791  0.6524  0.7018 -0.0482
   50MOL   C22023838   6.598   2.254   6.822  0.1104  0.3394 -0.6220
   50MOL   C22123839   6.494   2.235   6.714 -0.3118  0.2037 -0.2830
   50MOL   C22223840   6.424   2.093   6.726 -0.1985  0.3435 -0.4885
   50MOL   O22323841   6.330   2.104   6.825  0.9705 -0.0967 -0.1195
   50MOL   C22423842   6.358   2.054   6.955  0.6090 -0.2955  0.2159
   50MOL   O22523843   6.459   1.995   6.995 -0.4864 -0.1409  0.4569
   50MOL   C22623844   6.239   2.087   7.043  0.3530 -0.3080  0.1449
   50MOL   C22723845   6.258   2.231   7.079  0.4560 -0.6502  0.3235
   50MOL   C22823846   6.119   2.290   7.109 -0.2068  0.3423 -0.0675
   50MOL   O22923847   6.081   2.381   7.034 -0.6022  0.2186  0.3188
   50MOL   H23023848   6.761   2.374   6.865 -0.5741 -2.1162  1.1202
   50MOL   H23123849   6.634   2.478   6.797 -1.7370 -0.4583  0.9517
   50MOL   H23223850   6.560   2.261   6.923 -0.3816  0.8540 -0.8356
   50MOL   H23323851   6.674   2.177   6.831 -0.3143  0.1585  1.6875
   50MOL   H23423852   6.547   2.234   6.619  0.7280  1.0582  0.2901
   50MOL   H23523853   6.429   2.322   6.719 -0.0645  0.3154  1.1942
   50MOL   H23623854   6.377   2.064   6.632 -2.0226 -1.9063  1.0836
   50MOL   H23723855   6.507   2.025   6.742 -1.8988 -1.3042  1.5634
   50MOL   H23823856   6.232   2.025   7.132  0.8901 -0.2264  0.2461
   50MOL   H23923857   6.147   2.064   6.989  0.6170 -0.9147 -0.0577
   50MOL   H24023858   6.323   2.237   7.166  1.9926 -1.0463 -0.7825
   50MOL   H24123859   6.303   2.295   7.002  0.9160  0.4072  1.4476
   50MOL   O24223860   6.057   2.227   7.211 -0.5217 -0.4002  0.6027
   50MOL   C24323861   5.931   2.273   7.247 -0.3714  0.3911  0.6018
   50MOL   C24423862   5.910   2.273   7.405 -0.4198  0.0272 -0.7575
   50MOL   C24523863   5.978   2.393   7.473 -0.0890 -0.7654  0.2601
   50MOL   C24623864   5.975   2.394   7.626 -0.2097  0.0651  0.2931
   50MOL   O24723865   5.848   2.438   7.667  0.7782  0.0891  0.2619
   50MOL   C24823866   5.769   2.356   7.730  0.1724  0.3683 -0.2565
   50MOL   O24923867   5.804   2.242   7.763 -0.3335  0.1356 -0.4237
   50MOL   C25023868   5.627   2.403   7.754  0.2031 -0.1195  0.5849
   50MOL   C25123869   5.606   2.553   7.749 -0.3482 -0.3725 -0.1116
   50MOL   C25223870   5.676   2.627   7.856 -0.8567 -0.5191  0.0327
   50MOL   O25323871   5.672   2.590   0.098  0.0924 -0.0608 -0.3921
   50MOL   H25423872   5.900   2.371   7.210 -2.4114 -0.0320  1.1218
   50MOL   H25523873   5.856   2.199   7.218 -0.7820  0.4921  1.3742
   50MOL   H25623874   5.956   2.177   7.429 -0.1766  0.2909 -0.1630
   50MOL   H25723875   5.807   2.277   7.440 -0.3062  0.6706 -0.4804
   50MOL   H25823876   5.936   2.488   7.439  0.7595 -0.2447  0.6542
   50MOL   H25923877   6.084   2.386   7.448 -0.2111 -0.8754 -0.2298
   50MOL   H26023878   5.997   2.290   7.648  2.3994  0.5519  0.1834
   50MOL   H26123879   6.056   2.452   7.671 -0.1493 -0.3228  0.6809
   50MOL   H26223880   5.588   2.379   7.853  1.8514  2.9963  2.0902
   50MOL   H26323881   5.559   2.352   7.686 -1.2765  0.9989  1.2041
   50MOL   H26423882   5.633   2.596   7.653  1.1170 -0.5516  0.2055
   50MOL   H26523883   5.502   2.574   7.774 -0.6388 -0.0078 -1.6128
   50MOL   O26623884   5.734   2.741   7.810  0.0243  0.1283  0.4242
   50MOL   C26723885   5.790   2.834   0.027 -0.4416  0.3823  1.0944
   50MOL   C26823886   5.886   2.929   7.835 -0.5483  0.0116  0.3683
   50MOL   C26923887   6.027   2.874   7.787  0.7150 -0.0636 -0.2259
   50MOL   C27023888   6.021   2.743   7.708 -0.1812  0.1653  0.1717
   50MOL   O27123889   6.153   2.684   7.694 -0.6847  0.7875 -0.4599
   50MOL   C27223890   6.232   2.731   7.600 -0.0676 -0.3384  0.1408
   50MOL   O27323891   6.197   2.829   7.526  0.1041 -0.0318 -0.6438
   50MOL   C27423892   6.367   2.667   7.597  0.2447 -0.3004  0.4291
   50MOL   C27523893   6.379   2.525   7.548 -0.1030  0.4386 -0.0720
   50MOL   C27623894   6.392   2.520   7.395  0.3731 -0.2741  1.8857
   50MOL   O27723895   6.301   2.469   7.327 -0.1065  0.3774 -1.1691
   50MOL   H27823896   5.707   2.883   0.078 -1.5920  0.2634 -0.6410
   50MOL   H27923897   5.837   2.769   0.101 -1.7300 -2.5676 -0.6023
   50MOL   H28023898   5.901   3.008   0.034  1.1766 -1.0741  1.2246
   50MOL   H28123899   5.834   2.987   7.759  1.1250  0.2411 -0.6379
   50MOL   H28223900   6.093   2.847   7.870 -2.2837 -1.8615  1.6768
   50MOL   H28323901   6.074   2.954   7.730  1.9478 -2.3281 -2.4481
   50MOL   H28423902   5.964   2.666   7.761 -0.9297 -1.4001 -2.8272
   50MOL   H28523903   5.959   2.755   7.619 -0.9702 -0.9033  0.5526
   50MOL   H28623904   6.390   2.660   7.703 -1.5482  0.3265  0.8736
   50MOL   H28723905   6.438   2.732   7.547  0.2682 -0.2612  0.5139
   50MOL   H28823906   6.458   2.475   7.604  0.0600 -1.1310 -1.6624
   50MOL   H28923907   6.292   2.471   7.586  1.4028 -1.1247  1.2458
   50MOL   O29023908   6.507   2.581   7.348  0.2777  0.3949  0.0328
   50MOL   C29123909   6.529   2.595   7.208  0.6207  0.1632 -0.4410
   50MOL   C29223910   6.673   2.643   7.197  0.6234  0.4256 -0.0501
   50MOL   C29323911   6.697   2.676   7.052  0.3352 -0.6777  0.4572
   50MOL   C29423912   6.828   2.750   7.026 -0.0250  0.2993 -0.6882
   50MOL   O29523913   6.830   2.872   7.102 -0.8629  0.2489 -0.2742
   50MOL   C29623914   6.809   2.990   7.030  0.1706  0.2140 -0.2608
   50MOL   O29723915   6.767   3.002   6.917  0.3465 -0.3117  0.5661
   50MOL   C29823916   6.862   3.111   7.112 -0.3772 -0.4044 -0.1305
   50MOL   C29923917   6.790   3.148   7.244 -0.3908  0.0326  0.7894
   50MOL   C30023918   6.761   3.296   7.253 -0.3680 -0.0486 -0.1013
   50MOL   O30123919   6.653   3.334   7.298  0.5799 -0.0617 -0.1462
   50MOL   H30223920   6.515   2.501   7.156 -3.4020  0.3653  0.0717
   50MOL   H30323921   6.461   2.671   7.169 -0.4080 -0.8586 -0.6718
   50MOL   H30423922   6.745   2.574   7.240  1.5901  1.0828 -0.6070
   50MOL   H30523923   6.681   2.744   7.237  2.6635  0.3526 -0.2128
   50MOL   H30623924   6.623   2.748   7.016  0.3377 -2.0801 -2.5236
   50MOL   H30723925   6.690   2.581   6.998  1.0203 -0.6001  0.2282
   50MOL   H30823926   6.910   2.688   7.062  0.9969  2.2938  0.5451
   50MOL   H30923927   6.860   2.768   6.923 -0.0802  0.5941 -0.6557
   50MOL   H31023928   6.878   3.195   7.045 -0.9812 -0.4495 -0.3325
   50MOL   H31123929   6.962   3.089   7.149  0.1167  2.7159  0.5639
   50MOL   H31223930   6.699   3.090   7.263 -0.0505 -1.9931 -3.3717
   50MOL   H31323931   6.859   3.131   7.327  0.5347  0.5828  0.1332
   50MOL   O31423932   6.862   3.373   7.213  0.7236  0.0568 -0.2179
   50MOL   C31523933   6.836   3.510   7.188 -0.5084 -0.2411  0.2386
   50MOL   C31623934   6.850   3.600   7.315 -0.5741  0.2786  0.4517
   50MOL   C31723935   6.793   3.735   7.284  0.6662  0.5566  0.0662
   50MOL   C31823936   6.638   3.727   7.267 -0.1988  0.0922  0.4238
   50MOL   O31923937   6.585   3.857   7.239  0.0865  0.1072  0.9736
   50MOL   C32023938   6.600   3.910   7.118 -0.5784 -0.2054  0.1800
   50MOL   O32123939   6.654   3.856   7.022 -0.4552 -0.2421 -0.1940
   50MOL   C32223940   6.549   4.057   7.107  0.1396  0.0198 -0.1121
   50MOL   C32323941   6.464   4.111   7.230 -0.1467  0.3169 -0.0837
   50MOL   C32423942   6.545   4.207   7.312 -0.5144 -1.2406 -0.1257
   50MOL   O32523943   6.494   4.316   7.349 -0.6004 -0.5364 -0.8133
   50MOL   H32623944   6.917   3.547   7.125 -0.1814  1.5849  1.6842
   50MOL   H32723945   6.738   3.523   7.142 -0.1743  0.5328 -0.2667
   50MOL   H32823946   6.957   3.618   7.332 -0.1867 -1.1589 -0.3971
   50MOL   H32923947   6.806   3.548   7.400 -0.3895 -1.3071 -0.4027
   50MOL   H33023948   6.829   3.762   7.185 -0.4776 -0.6981 -0.7069
   50MOL   H33123949   6.814   3.809   7.362  0.1755  1.2999 -0.5001
   50MOL   H33223950   6.617   3.656   7.187  1.6893 -0.9974  0.8788
   50MOL   H33323951   6.601   3.679   7.358  0.5100  0.3406  0.8407
   50MOL   H33423952   6.485   4.066   7.019  0.1288 -0.9049 -0.2079
   50MOL   H33523953   6.642   4.112   7.094 -0.8338  1.6593 -0.2074
   50MOL   H33623954   6.381   4.166   7.186  1.2609  2.1346 -0.5120
   50MOL   H33723955   6.431   4.036   7.302  1.0544  0.8367  1.0405
   50MOL   O33823956   6.668   4.155   7.339  0.1847 -0.0358  0.0028
   50MOL   C33923957   6.756   4.243   7.416  0.4112 -0.0904  0.4027
   50MOL   C34023958   6.883   4.174   7.433 -0.2016 -0.2016  0.9524
   50MOL   C34123959   6.962   4.179   7.308  0.2555  0.2421 -0.0607
   50MOL   C34223960   7.102   4.116   7.316 -0.2275 -0.0955  0.2515
   50MOL   O34323961   7.099   3.984   7.370  0.0593  0.4867  0.4011
   50MOL   C34423962   7.206   3.941   7.447  0.3215  0.1156  0.0242
   50MOL   O34523963   7.312   4.007   7.460 -0.7319  0.2149 -0.3352
   50MOL   C34623964   7.186   3.806   7.514 -0.3502 -0.1305  0.8909
   50MOL   C34723965   7.042   3.793   7.566 -0.2351 -0.3039  0.6109
   50MOL   C34823966   7.019   3.676   7.656 -0.8263  0.2049 -0.6183
   50MOL   O34923967   7.015   3.686   7.781  0.2409 -0.5286 -0.8180
   50MOL   H35023968   6.770   4.339   7.367 -1.6255  0.3315  0.5729
   50MOL   H35123969   6.700   4.261   7.508 -0.8431 -0.4782 -0.2610
   50MOL   H35223970   6.882   4.077   7.483 -0.6966 -1.3921 -1.2933
   50MOL   H35323971   6.952   4.226   7.499  1.0409  0.0258 -0.4892
   50MOL   H35423972   6.970   4.277   7.262 -0.7335 -0.4841 -1.8131
   50MOL   H35523973   6.904   4.124   7.234 -0.5230  0.8038  0.1326
   50MOL   H35623974   7.145   4.108   7.216 -2.6649  1.4391 -0.9483
   50MOL   H35723975   7.181   4.169   7.370 -0.1571 -1.2689  1.3215
   50MOL   H35823976   7.258   3.799   7.595 -1.2126 -0.9197  1.5950
   50MOL   H35923977   7.216   3.720   7.453 -1.0932  0.9489 -1.0592
   50MOL   H36023978   7.002   3.889   7.600  0.6368  0.1787  0.2975
   50MOL   H36123979   6.983   3.761   7.480 -2.3678 -2.2486  2.7194
   50MOL   O36223980   6.994   3.559   7.585 -0.1191  0.1576  0.1029
   50MOL   C36323981   6.949   3.442   7.659 -0.1161 -0.7446 -0.4407
   50MOL   C36423982   6.802   3.417   7.635  0.4089  0.0540  0.6897
   50MOL   C36523983   6.713   3.535   7.686  0.0770 -0.0933  0.1825
   50MOL   C36623984   6.560   3.506   7.688 -0.3980  0.3291 -0.2016
   50MOL   O36723985   6.497   3.529   7.561 -0.1504 -0.0230 -0.3776
   50MOL   C36823986   6.377   3.464   7.535  0.4125  0.3435  0.2759
   50MOL   O36923987   6.311   3.386   7.608  0.0888 -0.1573  0.0279
   50MOL   C37023988   6.331   3.505   7.392 -0.0118 -0.1144  0.1611
   50MOL   C37123989   6.191   3.561   7.389  0.5685  0.0470  0.1431
   50MOL   C37223990   6.191   3.700   7.332  0.4716 -0.0358  0.1683
   50MOL   O37323991   6.250   3.789   7.390  0.1983  0.7496 -0.2499
   50MOL   H37423992   7.002   3.354   7.624 -0.3478 -0.7372 -0.8108
   50MOL   H37523993   6.971   3.453   7.766 -1.7166  3.5933 -0.4426
   50MOL   H37623994   6.773   3.325   7.685  1.3497 -1.5332 -1.6001
   50MOL   H37723995   6.780   3.393   7.531  0.3292 -1.2663  0.9951
   50MOL   H37823996   6.739   3.612   7.613 -0.0938  1.1317  1.4079
   50MOL   H37923997   6.742   3.570   7.785  0.7499  1.9547 -0.7165
   50MOL   H38023998   6.555   3.403   7.724  0.1227  0.2167 -0.4461
   50MOL   H38123999   6.520   3.579   7.760 -0.5587  0.4131 -0.3768
   50MOL   H38224000   6.343   3.420   7.325 -0.3895 -0.8024  0.9454
   50MOL   H38324001   6.402   3.577   7.352  0.0701 -0.4815 -0.3508
   50MOL   H38424002   6.127   3.500   7.325 -1.0514 -0.1471  1.8940
   50MOL   H38524003   6.135   3.567   7.482  1.1764 -0.6120  0.5543
   50MOL   O38624004   6.132   3.712   7.214  0.2727  0.3275 -0.2087
   50MOL   C38724005   6.121   3.836   7.144  0.6933 -0.6817  0.2084
   50MOL   C38824006   6.238   3.865   7.050  0.2094 -0.2384  0.8228
   50MOL   C38924007   6.255   3.770   6.931 -1.0455 -0.4211  0.8453
   50MOL   C39024008   6.328   3.634   6.963  0.3170 -0.6308  0.3336
   50MOL   O39124009   6.264   3.534   7.039 -0.3584  0.1385  0.0261
   50MOL   C39224010   6.154   3.485   6.989  0.6474 -0.0404 -0.4180
   50MOL   O39324011   6.107   3.497   6.878  0.4503 -0.1396  0.2622
   50MOL   C39424012   6.077   3.394   7.083  0.1958 -0.1713 -0.0853
   50MOL   C39524013   5.975   3.308   7.020  0.7729 -0.4178 -0.0730
   50MOL   C39624014   5.866   3.255   7.112  0.2321 -0.1648 -1.0543
   50MOL   O39724015   5.752   3.294   7.123 -0.0708  0.3771 -0.4893
   50MOL   H39824016   6.035   3.844   7.078  0.1524  0.3108  1.0151
   50MOL   H39924017   6.122   3.919   7.214  2.1497  0.7183 -1.4255
   50MOL   H40024018   6.328   3.861   7.112  0.7311 -0.8238  0.0354
   50MOL   H40124019   6.226   3.969   7.020  0.0518 -0.1648  1.1352
   50MOL   H40224020   6.312   3.827   6.858 -0.8381 -1.4970  0.1572
   50MOL   H40324021   6.155   3.760   6.889 -0.1870 -1.9662 -0.8850
   50MOL   H40424022   6.358   3.590   6.868 -0.3293 -3.4467  1.3640
   50MOL   H40524023   6.423   3.664   7.008 -0.1511  0.6563  0.4539
   50MOL   H40624024   6.021   3.464   7.146 -1.2782 -2.1002  0.8064
   50MOL   H40724025   6.145   3.332   7.141  1.2443 -0.4960 -1.6638
   50MOL   H40824026   5.917   3.371   6.952  1.3599  0.8828  0.6134
   50MOL   H40924027   6.028   3.227   6.969  0.3788  0.7220 -2.3809
   50MOL   O41024028   5.916   3.152   7.176 -0.0755  0.2145 -0.5397
   50MOL   C41124029   5.853   3.097   7.290  0.1459 -0.4489  0.3618
   50MOL   C41224030   5.961   3.076   7.402  0.3328 -0.6732  0.3876
   50MOL   C41324031   6.023   3.208   7.461 -0.6508 -0.3378 -0.6496
   50MOL   C41424032   5.930   3.286   7.548  0.8082 -0.0247  0.4147
   50MOL   O41524033   5.848   3.358   7.464 -0.8154 -0.7218  0.4466
   50MOL   C41624034   5.774   3.456   7.514  0.2783  0.7071 -0.5403
   50MOL   O41724035   5.770   3.497   7.633 -0.4544 -0.6288 -0.3112
   50MOL   C41824036   5.702   3.532   7.403  0.5644  0.2696  0.1301
   50MOL   C41924037   5.796   3.585   7.296  0.0638  0.3509  0.1901
   50MOL   C42024038   5.813   3.736   7.318  0.0388  0.5489  0.2073
   50MOL   O42124039   5.811   3.814   7.224  0.2021 -0.2440 -0.9102
   50MOL   H42224040   5.776   3.162   7.332  0.0112 -2.2205  3.0254
   50MOL   H42324041   5.795   3.006   7.275 -0.0104 -0.4367  0.8821
   50MOL   H42424042   6.033   3.008   7.357  0.9983 -0.1476  0.6428
   50MOL   H42524043   5.909   3.026   7.484 -1.2781  1.7196  0.8995
   50MOL   H42624044   6.074   3.265   7.383  1.4534 -0.4810  0.5660
   50MOL   H42724045   6.118   3.185   7.510  0.1763 -0.5930 -2.3325
   50MOL   H42824046   5.859   3.221   7.599 -0.0859  1.9158  1.7059
   50MOL   H42924047   5.976   3.346   7.627  0.0630 -1.1329  1.7055
   50MOL   H43024048   5.643   3.610   7.450  1.0497 -1.2690  3.4344
   50MOL   H43124049   5.626   3.465   7.361  2.0622 -0.1859 -1.9198
   50MOL   H43224050   5.897   3.547   7.313 -0.0500  0.1377  0.4051
   50MOL   H43324051   5.755   3.562   7.198 -1.1105 -2.9730  1.3908
   50MOL   O43424052   5.849   3.770   7.445  0.2181  1.2274 -0.1467
   50MOL   C43524053   5.839   3.907   7.478  0.7841  0.8195  0.5760
   50MOL   C43624054   5.865   3.911   7.633  0.1591 -0.4731  0.2632
   50MOL   C43724055   5.744   3.860   7.721  0.0183 -0.8628  0.5150
   50MOL   C43824056   5.785   3.854   7.868  0.3082  0.5727  0.1487
   50MOL   O43924057   5.831   3.983   0.037  0.3752  0.4160  0.5267
   50MOL   C44024058   5.752   4.056   0.120 -0.5796  0.7612 -0.0185
   50MOL   O44124059   5.642   4.015   0.164 -0.4130 -0.1841 -0.3383
   50MOL   C44224060   5.811   4.195   0.146  0.2760 -0.5404  0.4237
   50MOL   C44324061   5.865   4.209   0.292 -0.2170 -0.9078  0.2199
   50MOL   C44424062   6.014   4.252   0.306  0.1205 -0.7247 -0.0688
   50MOL   O44524063   6.096   4.181   0.261 -0.1607 -0.1751 -0.0057
   50MOL   H44624064   5.917   3.959   7.422  0.7033  3.0897  2.5111
   50MOL   H44724065   5.744   3.955   7.452  2.1431  1.7965 -2.8825
   50MOL   H44824066   5.892   4.015   7.648 -0.6037  0.3814 -3.6517
   50MOL   H44924067   5.952   3.849   7.653 -0.4907 -1.3056  0.5617
   50MOL   H45024068   5.708   3.762   7.692 -1.2229 -0.1817 -0.3164
   50MOL   H45124069   5.664   3.931   7.701  0.7086 -0.6982 -1.7568
   50MOL   H45224070   5.706   3.826   0.063 -1.8536  3.0590 -1.2303
   50MOL   H45324071   5.874   3.791   0.002 -0.8767 -0.8641  2.4125
   50MOL   H45424072   5.739   4.276   0.138  0.6303 -0.1883  0.7533
   50MOL   H45524073   5.892   4.206   0.074 -0.5166  1.1032 -0.2231
   50MOL   H45624074   5.801   4.265   0.360  1.5967  1.3243  0.1605
   50MOL   H45724075   5.858   4.109   0.332  2.0179 -0.2380  2.3889
   50MOL   O45824076   6.034   4.381   0.344  0.5432  0.2089 -0.1762
   50MOL   C45924077   6.169   4.429   0.352 -0.6060  0.0137  0.5428
   50MOL   C46024078   6.166   4.575   0.393  0.5488 -0.3529 -0.1230
   50MOL   C46124079   6.311   4.636   0.396 -0.2565 -0.2994 -1.0285
   50MOL   C46224080   6.312   4.771   0.477  0.4750 -0.1518  0.2871
   50MOL   O46324081   6.252   4.876   0.396  0.0401  0.2343 -0.3134
   50MOL   C46424082   6.143   4.942   0.430 -0.1993  0.2532  0.3833
   50MOL   O46524083   6.072   4.923   0.527  0.0916  0.2362  0.7435
   50MOL   C46624084   6.104   5.054   0.330  0.3748 -0.2710 -0.1090
   50MOL   C46724085   6.203   5.169   0.359 -0.2688 -0.2466 -0.2254
   50MOL   C46824086   6.316   5.203   0.260  0.8818 -0.3398  0.3574
   50MOL   O46924087   6.421   5.138   0.254 -0.1911  0.3986 -0.0817
   50MOL   H47024088   6.230   4.377   0.426  0.6046  0.6152 -0.0060
   50MOL   H47124089   6.236   4.405   0.269 -0.5317  0.2885  0.5223
   50MOL   H47224090   6.125   4.581   0.494  1.6985  0.7623  0.2957
   50MOL   H47324091   6.105   4.637   0.327 -0.1346  0.1640  0.9694
   50MOL   H47424092   6.359   4.646   0.298  2.0343  0.4669  0.1431
   50MOL   H47524093   6.372   4.569   0.456  1.6756  1.6339 -0.8087
   50MOL   H47624094   6.247   4.759   0.564 -1.0154  1.4920 -0.5568
   50MOL   H47724095   6.406   4.812   0.514  0.6454 -0.1507 -0.1433
   50MOL   H47824096   6.004   5.084   0.359  1.1738  0.0446  2.4647
   50MOL   H47924097   6.117   5.012   0.230  0.1204 -1.4526  0.3399
   50MOL   H48024098   6.142   5.259   0.373 -0.9531 -0.7807  0.2738
   50MOL   H48124099   6.254   5.164   0.455  2.9648  1.3313 -1.7708
   50MOL   H48224100   6.297   5.302   0.219  0.9068 -1.0678 -1.4488
   51MOL     O124101   0.797   3.356   4.707  0.0764  0.5421 -0.0975
   51MOL     C224102   0.749   3.436   4.593 -0.5259  0.1959  0.4339
   51MOL     C324103   0.595   3.451   4.607  0.1734  0.0572 -0.2650
   51MOL     C424104   0.543   3.554   4.509  0.1416  0.7463  0.0318
   51MOL     C524105   0.397   3.583   4.529 -0.2460  0.4086  0.4486
   51MOL     O624106   0.371   3.658   4.642  0.6078  0.5508  0.1103
   51MOL     C724107   0.318   3.785   4.635  0.1400 -0.0964 -0.4538
   51MOL     O824108   0.321   3.851   4.538  0.0742 -0.0182  0.3590
   51MOL     C924109   0.241   3.835   4.758 -0.0144  0.2635 -0.0842
   51MOL    C1024110   0.260   3.986   4.781 -0.5672 -0.5440 -0.1151
   51MOL    C1124111   0.153   4.046   4.877 -0.0498  0.1091  0.4933
   51MOL    O1224112   0.085   3.972   4.952  0.6938 -1.1374  0.2384
   51MOL    H1324113   0.794   3.535   4.599  1.7813 -0.7646 -0.6556
   51MOL    H1424114   0.784   3.389   4.501  0.0799  1.2216  0.1399
   51MOL    H1524115   0.575   3.473   4.712 -0.2214 -0.1899 -0.2899
   51MOL    H1624116   0.561   3.348   4.596 -1.8365  0.4687  1.7501
   51MOL    H1724117   0.561   3.520   4.407 -1.6466  1.2938 -0.4839
   51MOL    H1824118   0.597   3.649   4.510  2.8965 -0.7860 -0.3214
   51MOL    H1924119   0.367   3.623   4.432 -1.4669  0.2841  0.7644
   51MOL    H2024120   0.343   3.488   4.536 -1.2185  1.0406  1.8094
   51MOL    H2124121   0.269   3.780   4.848 -2.2500  0.8397  1.0184
   51MOL    H2224122   0.134   3.814   4.758  0.2826 -1.4633  2.1069
   51MOL    H2324123   0.354   4.007   4.832 -1.2441 -0.9122  1.3129
   51MOL    H2424124   0.253   4.043   4.689 -1.4414  0.4188  0.5362
   51MOL    H2524125   0.809   3.420   4.775 -1.3400 -0.8846  1.5268
   51MOL    O2624126   0.140   4.182   4.871  0.0561 -0.0623 -0.1186
   51MOL    C2724127   0.042   4.250   4.953 -0.2066 -0.1265  0.4858
   51MOL    C2824128   0.085   4.396   4.972 -0.3276  0.6215  0.4728
   51MOL    C2924129   7.865   4.497   5.049 -0.0477 -0.0833  0.2946
   51MOL    C3024130   0.059   4.639   5.046  0.6710 -0.4632 -0.0936
   51MOL    O3124131   0.195   4.644   5.090  0.1312  0.1520  0.0347
   51MOL    C3224132   0.233   4.660   5.216  0.7836 -0.5589  1.2442
   51MOL    O3324133   0.163   4.655   5.318  0.0003  0.2032  0.0760
   51MOL    C3424134   0.383   4.683   5.226  0.2755 -0.2173 -0.0477
   51MOL    C3524135   0.452   4.557   5.190 -0.6500 -0.1337  0.3157
   51MOL    C3624136   0.486   4.550   5.034  0.3286 -0.7107  0.1767
   51MOL    O3724137   0.551   4.641   4.978 -0.5223  0.2455  0.5787
   51MOL    H3824138   7.817   4.224   4.916 -0.9714  3.2066  0.0648
   51MOL    H3924139   0.042   4.210   5.054 -0.5280  2.5891  1.5993
   51MOL    H4024140   0.104   4.433   4.871 -0.4943 -0.4056  0.0670
   51MOL    H4124141   0.179   4.392   5.026  0.8521  1.8402 -1.4412
   51MOL    H4224142   7.840   4.469   5.151 -0.4612 -0.1607  0.1706
   51MOL    H4324143   7.775   4.500   4.988 -0.2816  1.8921  0.7056
   51MOL    H4424144   0.047   4.695   4.954  1.3485 -0.0962  0.0326
   51MOL    H4524145   0.002   4.701   5.116  3.1026  1.1219  0.5543
   51MOL    H4624146   0.403   4.711   5.329 -0.3775  0.7060 -0.1713
   51MOL    H4724147   0.428   4.760   5.163  1.3125  0.3167  1.3319
   51MOL    H4824148   0.551   4.553   5.235 -0.1557  2.6144 -0.4676
   51MOL    H4924149   0.394   4.466   5.204  0.3881 -1.0679 -1.3160
   51MOL    O5024150   0.438   4.441   4.971 -0.8467  0.2728  0.2643
   51MOL    C5124151   0.463   4.415   4.835  0.4491  0.5712 -0.4548
   51MOL    C5224152   0.558   4.290   4.815 -0.2034  0.0237 -0.7773
   51MOL    C5324153   0.706   4.294   4.870  0.7898 -0.1048 -0.0196
   51MOL    C5424154   0.726   4.286   5.021  0.2225 -0.2453  0.0402
   51MOL    O5524155   0.666   4.168   5.067 -0.0991 -0.7427  0.3284
   51MOL    C5624156   0.598   4.173   5.180  0.1530 -0.5512  0.5831
   51MOL    O5724157   0.596   4.265   5.268  0.3459 -0.2027 -0.1218
   51MOL    C5824158   0.522   4.043   5.202  0.2954 -0.1734 -0.1589
   51MOL    C5924159   0.527   3.999   5.345 -0.5493  0.7691 -0.8733
   51MOL    C6024160   0.649   3.924   5.377 -0.4486  0.0989  0.1646
   51MOL    O6124161   0.737   3.900   5.292  0.1233  0.4253 -0.5993
   51MOL    H6224162   0.370   4.385   4.788  0.5072  0.2252 -0.3538
   51MOL    H6324163   0.513   4.495   4.780  1.7131  1.8348  2.4321
   51MOL    H6424164   0.557   4.278   4.706  0.0284  2.3557 -1.0595
   51MOL    H6524165   0.518   4.194   4.848  1.0512 -0.0497  0.5549
   51MOL    H6624166   0.757   4.375   4.819  1.4285 -1.6365 -1.8924
   51MOL    H6724167   0.758   4.207   4.830  1.3143  1.5909 -3.1918
   51MOL    H6824168   0.832   4.278   5.048  0.0976  0.1996  0.6734
   51MOL    H6924169   0.699   4.382   5.065  1.3030  0.2494 -0.3512
   51MOL    H7024170   0.549   3.959   5.138  1.7515 -1.5767  2.2070
   51MOL    H7124171   0.421   4.056   5.163 -0.3926  0.1478  1.6683
   51MOL    H7224172   0.537   4.073   5.424  0.4001 -0.0628 -0.2104
   51MOL    H7324173   0.441   3.937   5.371 -0.1583  0.7474  0.3824
   51MOL    O7424174   0.654   3.883   5.508 -0.1681  0.4348 -0.1307
   51MOL    C7524175   0.771   3.821   5.558  1.0271  0.7410  0.2291
   51MOL    C7624176   0.770   3.850   5.710  0.0213 -0.1972  0.4073
   51MOL    C7724177   0.903   3.796   5.772  0.9919  0.4543  0.2996
   51MOL    C7824178   0.880   3.800   5.924  0.2142  0.3340 -0.6106
   51MOL    O7924179   0.801   3.687   5.968  0.2627  0.3483  0.3405
   51MOL    C8024180   0.871   3.586   6.030  0.0308 -0.2251  0.1782
   51MOL    O8124181   0.986   3.601   6.074 -0.0178 -0.7202  0.1405
   51MOL    C8224182   0.787   3.454   6.049 -0.1387 -0.4988  0.1140
   51MOL    C8324183   0.862   3.321   6.047  0.7209 -0.4921 -0.3067
   51MOL    C8424184   0.962   3.308   6.168  0.4804 -0.7989 -0.2274
   51MOL    O8524185   1.083   3.285   6.152  0.1053 -0.5274  0.1160
   51MOL    H8624186   0.767   3.714   5.540  2.0581  0.9923 -1.5912
   51MOL    H8724187   0.852   3.875   5.510 -0.9828  1.4318 -2.5257
   51MOL    H8824188   0.687   3.800   5.759 -1.0812  2.1852  1.0384
   51MOL    H8924189   0.755   3.957   5.728 -1.9749 -0.7094  1.9203
   51MOL    H9024190   0.976   3.870   5.739  1.3971 -1.3270 -3.0458
   51MOL    H9124191   0.940   3.701   5.731 -1.4566  0.6021 -2.4415
   51MOL    H9224192   0.973   3.803   5.981 -0.4443 -1.4285  0.5958
   51MOL    H9324193   0.828   3.892   5.948  0.4118 -0.1419  1.7598
   51MOL    H9424194   0.705   3.430   5.982 -0.6674  1.3174  0.0798
   51MOL    H9524195   0.753   3.463   6.152 -0.2811 -1.8502  0.1882
   51MOL    H9624196   0.789   3.241   6.031 -0.5352  0.1842  1.7227
   51MOL    H9724197   0.927   3.307   5.962  1.1272  0.2074 -0.1137
   51MOL    O9824198   0.901   3.316   6.284  0.0458 -0.3216 -0.1364
   51MOL    C9924199   0.974   3.321   6.403 -0.0311  0.6303  0.1111
   51MOL   C10024200   0.945   3.188   6.484  0.3746 -0.2675 -0.0315
   51MOL   C10124201   1.040   3.155   6.601  0.3945  0.4127  0.4640
   51MOL   C10224202   0.989   3.040   6.695  0.7796 -0.9301 -0.0628
   51MOL   O10324203   0.992   2.910   6.637  0.8483  0.8379  0.2949
   51MOL   C10424204   1.066   2.814   6.695 -0.2721  0.1094  0.0652
   51MOL   O10524205   1.140   2.821   6.790  0.2915  0.6577  0.2438
   51MOL   C10624206   1.038   2.681   6.622 -0.0000  0.4303 -0.3409
   51MOL   C10724207   1.125   2.676   6.501  0.6835 -0.1123 -0.1857
   51MOL   C10824208   1.085   2.565   6.404  0.0644  0.4838 -0.3357
   51MOL   O10924209   1.047   2.591   6.289 -0.0866 -0.4315 -0.6630
   51MOL   H11024210   1.082   3.335   6.395 -0.3008  4.0382  1.8984
   51MOL   H11124211   0.944   3.398   6.473  4.0165  0.7218  1.9256
   51MOL   H11224212   0.951   3.102   6.418 -3.2357 -1.9322  1.6635
   51MOL   H11324213   0.844   3.191   6.525  0.5817  0.2098  0.4518
   51MOL   H11424214   1.044   3.249   6.656  1.7980  0.5026  0.2459
   51MOL   H11524215   1.140   3.139   6.560 -0.3442  0.9512 -1.6221
   51MOL   H11624216   1.031   3.043   6.796 -0.2729 -0.9099  0.3831
   51MOL   H11724217   0.883   3.052   6.718  0.6889 -0.4102 -0.7511
   51MOL   H11824218   0.933   2.676   6.592 -0.9595 -0.5142  2.9060
   51MOL   H11924219   1.062   2.594   6.684  0.6486  1.8785  1.4851
   51MOL   H12024220   1.127   2.770   6.446 -0.5185  0.4158  0.6602
   51MOL   H12124221   1.226   2.660   6.539  0.0385 -0.6367  1.3166
   51MOL   O12224222   1.111   2.438   6.454  1.1739 -0.1353  0.5659
   51MOL   C12324223   1.072   2.326   6.375 -0.5583 -0.6352 -0.1605
   51MOL   C12424224   1.038   2.209   6.460  0.6392 -0.6467 -0.4411
   51MOL   C12524225   1.151   2.161   6.550  0.5506 -0.1622 -0.1058
   51MOL   C12624226   1.129   2.023   6.602 -0.0272 -0.1066  0.0788
   51MOL   O12724227   1.241   1.987   6.685  1.0315  0.0097  0.8727
   51MOL   C12824228   1.222   1.954   6.815 -0.4091  0.3305  0.3222
   51MOL   O12924229   1.111   1.952   6.876 -0.2251 -0.5747  0.1125
   51MOL   C13024230   1.351   1.913   6.889 -0.9040 -0.6914 -0.1854
   51MOL   C13124231   1.481   2.001   6.861  0.1802 -0.2908  1.0601
   51MOL   C13224232   1.541   1.967   6.722  0.5229  0.2047 -0.0288
   51MOL   O13324233   1.586   2.055   6.648 -0.3785 -0.4544 -0.3424
   51MOL   H13424234   0.990   2.353   6.309 -0.4392  0.2066  0.0242
   51MOL   H13524235   1.157   2.304   6.311 -0.3571 -0.6111  0.0985
   51MOL   H13624236   1.011   2.129   6.392 -0.0435 -3.6933  3.2480
   51MOL   H13724237   0.949   2.228   6.520  1.4918  0.6033  0.4655
   51MOL   H13824238   1.185   2.233   6.624 -2.4764  1.0230  0.1898
   51MOL   H13924239   1.242   2.142   6.493  0.2263 -0.0357 -0.6660
   51MOL   H14024240   1.037   2.013   6.659 -0.9029  0.4910 -1.2223
   51MOL   H14124241   1.116   1.962   6.512 -1.1052  0.9174 -0.4698
   51MOL   H14224242   1.382   1.811   6.864 -0.8484 -1.1508  1.6737
   51MOL   H14324243   1.315   1.907   6.992 -1.8128 -2.4488 -0.5844
   51MOL   H14424244   1.463   2.104   6.892 -0.1761 -0.2006  0.5458
   51MOL   H14524245   1.556   1.971   6.934  1.8380  3.6671  1.1241
   51MOL   O14624246   1.544   1.832   6.693 -0.1401 -0.5808 -0.0006
   51MOL   C14724247   1.564   1.787   6.565 -0.3268 -0.4487  0.4068
   51MOL   C14824248   1.720   1.773   6.533 -0.4727 -0.5948  0.8444
   51MOL   C14924249   1.785   1.672   6.626  0.0364 -0.5663  0.1398
   51MOL   C15024250   1.931   1.657   6.608 -0.0739 -0.0411  0.0260
   51MOL   O15124251   1.973   1.526   6.642 -0.3251 -0.3747 -0.4112
   51MOL   C15224252   2.066   1.473   6.566 -0.4479  0.3407  0.1852
   51MOL   O15324253   2.109   1.527   6.460 -0.1565 -0.1196  0.2069
   51MOL   C15424254   2.126   1.337   6.608 -0.7018 -0.1719  0.8117
   51MOL   C15524255   2.279   1.335   6.584 -0.0488 -0.2800 -0.0221
   51MOL   C15624256   2.365   1.428   6.670 -0.1537 -0.6616 -0.9761
   51MOL   O15724257   2.323   1.470   6.781  0.2220  0.4107  0.3683
   51MOL   H15824258   1.520   1.688   6.570 -1.4758  0.0331  0.0124
   51MOL   H15924259   1.500   1.845   6.497  0.1743 -0.5001 -0.1185
   51MOL   H16024260   1.781   1.863   6.535 -2.1826  0.6765 -0.9154
   51MOL   H16124261   1.717   1.729   6.433  1.2511  1.7663 -0.2963
   51MOL   H16224262   1.721   1.583   6.615 -0.6731  0.0128 -0.4926
   51MOL   H16324263   1.783   1.696   6.732 -0.3648  0.1680 -0.0337
   51MOL   H16424264   1.970   1.691   6.511  0.5695 -2.0813 -0.4529
   51MOL   H16524265   1.973   1.723   6.684  2.3985 -0.9465 -0.4857
   51MOL   H16624266   2.066   1.259   6.561 -1.1036  1.0267 -0.6979
   51MOL   H16724267   2.117   1.327   6.717 -0.3683  0.1853  0.8717
   51MOL   H16824268   2.313   1.232   6.580 -1.0161 -0.5985 -0.2687
   51MOL   H16924269   2.291   1.368   6.481 -3.1605  1.3099  0.0479
   51MOL   O17024270   2.475   1.477   6.621  0.4576  0.1940 -0.1182
   51MOL   C17124271   2.562   1.563   6.697  0.4862  0.3613  0.2370
   51MOL   C17224272   2.708   1.547   6.649  0.1112 -0.1155 -0.0685
   51MOL   C17324273   2.781   1.419   6.684 -0.4975 -0.1905  0.0530
   51MOL   C17424274   2.924   1.397   6.635  0.5207  0.4489 -0.4342
   51MOL   O17524275   2.952   1.261   6.658  0.0381 -0.3020 -0.1788
   51MOL   C17624276   3.084   1.219   6.662  0.2432  0.2639 -0.0499
   51MOL   O17724277   3.174   1.290   6.618  0.1237 -0.3574 -0.3399
   51MOL   C17824278   3.094   1.079   6.721  0.1037 -0.5348  1.0630
   51MOL   C17924279   3.173   0.990   6.633  0.4330  0.1848 -0.3991
   51MOL   C18024280   3.094   0.875   6.573 -0.2993 -0.1557 -0.4971
   51MOL   O18124281   3.008   0.811   6.637 -0.0946 -0.5715 -0.2896
   51MOL   H18224282   2.527   1.666   6.697  1.3982  0.6975 -1.1594
   51MOL   H18324283   2.562   1.520   6.797  1.4041 -0.8717 -0.2772
   51MOL   H18424284   2.772   1.626   6.687  0.6221 -0.2763 -0.5986
   51MOL   H18524285   2.716   1.557   6.541  2.2816  1.5048  0.2244
   51MOL   H18624286   2.717   1.337   6.650  1.1211 -1.4830  0.0703
   51MOL   H18724287   2.787   1.412   6.792 -1.2796  0.7030  0.1613
   51MOL   H18824288   2.931   1.403   6.526  0.4456 -2.0182 -0.5881
   51MOL   H18924289   2.999   1.464   6.678  0.4344  0.8335 -0.8760
   51MOL   H19024290   2.990   1.045   6.723  0.4987 -1.9224 -0.7300
   51MOL   H19124291   3.139   1.085   6.821 -0.3746 -1.4846  1.3381
   51MOL   H19224292   3.211   1.044   6.547  2.5716  0.3632  0.6243
   51MOL   H19324293   3.264   0.946   6.674  0.1819  0.3123  0.3090
   51MOL   O19424294   3.124   0.850   6.450 -0.3647 -0.2098  0.1288
   51MOL   C19524295   3.065   0.748   6.371 -0.6495  0.0678 -0.1951
   51MOL   C19624296   3.108   0.771   6.220  0.9126  0.3449 -0.2562
   51MOL   C19724297   3.265   0.777   6.203 -0.2334  0.1020  0.0970
   51MOL   C19824298   3.311   0.809   6.054  0.3522 -0.2906  0.2365
   51MOL   O19924299   3.275   0.708   5.961  0.5635 -0.5585  0.0371
   51MOL   C20024300   3.167   0.719   5.892 -0.5076  0.2600  0.2298
   51MOL   O20124301   3.087   0.812   5.902  0.4733  0.1883 -0.1120
   51MOL   C20224302   3.127   0.603   5.798  0.0711 -0.6201 -0.3574
   51MOL   C20324303   2.980   0.592   5.779 -0.4066  0.1260 -0.7957
   51MOL   C20424304   2.906   0.549   5.912  0.0434 -0.4151  0.9819
   51MOL   O20524305   2.799   0.593   5.933  1.2710 -0.1244 -0.3799
   51MOL   H20624306   3.101   0.654   6.412 -0.2914  0.4292  0.3201
   51MOL   H20724307   2.957   0.747   6.387 -0.6518  0.0779 -0.2124
   51MOL   H20824308   3.046   0.841   6.164 -3.0571 -1.3414  1.8794
   51MOL   H20924309   3.082   0.678   6.169  0.8907  1.2459 -1.9465
   51MOL   H21024310   3.298   0.679   6.237  3.1545  1.4732  0.9656
   51MOL   H21124311   3.314   0.848   6.269 -2.2540  0.1108  1.6748
   51MOL   H21224312   3.268   0.900   6.013 -1.6243 -1.5713 -0.6415
   51MOL   H21324313   3.418   0.826   6.056  0.4820 -1.1090  0.6774
   51MOL   H21424314   3.167   0.513   5.846  1.0350 -0.4583 -0.8546
   51MOL   H21524315   3.175   0.622   5.702 -0.3952 -0.9685 -0.6639
   51MOL   H21624316   2.935   0.686   5.748 -0.4744 -0.2418 -1.8365
   51MOL   H21724317   2.963   0.521   5.698 -0.9535 -0.7953  0.1088
   51MOL   O21824318   2.967   0.456   5.983 -0.2554  0.1922 -0.4441
   51MOL   C21924319   2.915   0.418   6.110 -0.0251  0.6147 -0.0637
   51MOL   C22024320   3.011   0.308   6.171  0.5734  0.5193 -0.3349
   51MOL   C22124321   3.152   0.359   6.192  0.0146 -0.0249 -0.3743
   51MOL   C22224322   3.250   0.257   6.241  1.0128  0.1092 -0.1451
   51MOL   O22324323   3.383   0.308   6.251 -0.1980 -0.2487  0.0463
   51MOL   C22424324   3.461   0.296   6.141  0.1604 -0.5178  0.8976
   51MOL   O22524325   3.429   0.250   6.028  0.0019 -0.2542 -0.0821
   51MOL   C22624326   3.591   0.383   6.152  0.3121  0.1739 -0.6816
   51MOL   C22724327   3.552   0.533   6.160  0.0342 -0.2603  0.2699
   51MOL   C22824328   3.591   0.611   6.035  0.4840 -0.4723 -0.5051
   51MOL   O22924329   3.644   0.720   6.042 -0.4537  0.2861  0.0291
   51MOL   H23024330   2.909   0.506   6.174  1.4258  0.3350  0.4570
   51MOL   H23124331   2.814   0.385   6.083 -0.0408  0.6762 -0.0794
   51MOL   H23224332   3.023   0.232   6.094 -0.2385  0.2530 -0.2108
   51MOL   H23324333   2.979   0.253   6.260 -1.2111 -1.4521 -2.1450
   51MOL   H23424334   3.153   0.447   6.256 -0.3290 -0.3388  0.0636
   51MOL   H23524335   3.189   0.392   6.095  1.1825 -0.1403  0.0215
   51MOL   H23624336   3.214   0.223   6.338 -0.1133 -0.2249 -0.6759
   51MOL   H23724337   3.247   0.169   6.178  1.1523  0.3841 -0.5398
   51MOL   H23824338   3.664   0.366   6.073  1.0818 -0.2667  0.1149
   51MOL   H23924339   3.640   0.353   6.245 -2.1580 -1.5183  0.1157
   51MOL   H24024340   3.444   0.539   6.172 -0.1401 -1.5605 -0.5740
   51MOL   H24124341   3.599   0.579   6.247  2.0620  1.3523 -1.6134
   51MOL   O24224342   3.555   0.552   5.928 -0.1043  0.5187 -0.0473
   51MOL   C24324343   3.580   0.614   5.801 -0.0412  0.4954 -0.3727
   51MOL   C24424344   3.491   0.541   5.699 -0.1595  0.7667  0.0120
   51MOL   C24524345   3.512   0.388   5.681  0.2721  0.3257  1.0169
   51MOL   C24624346   3.424   0.332   5.578  0.6116  0.2728 -0.4782
   51MOL   O24724347   3.293   0.318   5.630  0.0828  0.2667 -0.0946
   51MOL   C24824348   3.246   0.199   5.658  0.9568  0.1972 -0.2075
   51MOL   O24924349   3.308   0.099   5.640  0.6073  0.7674 -0.0945
   51MOL   C25024350   3.103   0.206   5.712 -0.7461 -0.0499 -0.1939
   51MOL   C25124351   3.035   0.069   5.691  0.0066  0.0556 -0.2172
   51MOL   C25224352   2.921   0.063   5.588  0.0624  0.2364  0.0998
   51MOL   O25324353   2.816   0.121   5.609 -0.2336 -0.1201 -0.0921
   51MOL   H25424354   3.556   0.720   5.806 -0.3161  0.3494  2.0366
   51MOL   H25524355   3.687   0.616   5.784  0.4580  0.6547  2.6189
   51MOL   H25624356   3.494   0.590   5.602  1.8704 -0.9915 -0.8162
   51MOL   H25724357   3.387   0.545   5.733  0.7032 -2.7156  3.3874
   51MOL   H25824358   3.500   0.347   5.782  4.1162  1.7637  2.1395
   51MOL   H25924359   3.614   0.363   5.652 -0.1580 -0.3009  0.0218
   51MOL   H26024360   3.421   0.394   5.488 -1.4592 -0.0767 -0.6890
   51MOL   H26124361   3.468   0.239   5.543  1.1361  1.1150 -2.1214
   51MOL   H26224362   3.047   0.290   5.673  2.5373  2.3571  0.1351
   51MOL   H26324363   3.112   0.228   5.818  2.6279 -3.4392  0.3411
   51MOL   H26424364   3.110   7.865   5.681  1.1491  1.2436 -1.3793
   51MOL   H26524365   2.981   0.070   5.786  1.5436 -2.0935  0.7133
   51MOL   O26624366   2.960   7.863   5.481 -0.3585 -0.3612  0.3633
   51MOL   C26724367   2.865   7.841   5.376 -0.6462 -0.4050  0.4782
   51MOL   C26824368   2.911   7.718   5.289 -0.0744 -0.2294 -0.1841
   51MOL   C26924369   2.832   7.658   5.173  0.4590  0.4421 -0.2344
   51MOL   C27024370   2.826   7.762   5.057  0.0112  0.0695 -0.1491
   51MOL   O27124371   2.741   7.716   4.953  0.0927 -0.2491  0.5587
   51MOL   C27224372   2.668   7.803   4.877 -0.5189 -0.4497 -0.5948
   51MOL   O27324373   2.654   0.052   4.903  1.0386 -0.0943 -0.3834
   51MOL   C27424374   2.586   7.736   4.770 -0.0965 -0.3525  0.1015
   51MOL   C27524375   2.656   7.620   4.692  0.4682 -0.0339  0.2372
   51MOL   C27624376   2.705   7.676   4.563 -0.7857 -0.1710  0.3545
   51MOL   O27724377   2.828   7.698   4.549 -0.5893 -0.2761 -0.2378
   51MOL   H27824378   2.770   7.816   5.425 -0.5322  2.0047  1.9750
   51MOL   H27924379   2.862   0.060   5.320  1.8917 -0.3388  0.3922
   51MOL   H28024380   2.931   7.642   5.365 -0.2523 -2.5880 -2.4407
   51MOL   H28124381   3.007   7.742   5.242 -0.7796  0.5088 -1.2634
   51MOL   H28224382   2.733   7.635   5.213  1.0092  1.7029  1.9829
   51MOL   H28324383   2.881   7.563   5.151 -0.5317  0.4658 -2.6270
   51MOL   H28424384   2.807   7.863   5.093  0.9158  0.2137 -0.0629
   51MOL   H28524385   2.923   7.774   5.009 -1.3278 -0.5277 -3.1767
   51MOL   H28624386   2.562   7.826   4.713  0.3812 -1.5382 -2.0183
   51MOL   H28724387   2.500   7.692   4.821  1.1977 -1.1747  1.6072
   51MOL   H28824388   2.741   7.590   4.753  0.4646 -2.8543 -1.0369
   51MOL   H28924389   2.580   7.541   4.691  1.0001 -0.5561  0.5844
   51MOL   O29024390   2.608   7.691   4.465  0.2507 -0.4149  0.8629
   51MOL   C29124391   2.645   7.721   4.331  0.5908 -0.1893  0.2629
   51MOL   C29224392   2.511   7.727   4.249 -0.7009 -0.2334  0.0119
   51MOL   C29324393   2.430   7.596   4.243 -0.2449  0.2926 -0.0997
   51MOL   C29424394   2.307   7.603   4.145 -0.2589 -0.3476  0.8019
   51MOL   O29524395   2.197   7.675   4.202  0.0548 -0.2842  0.1722
   51MOL   C29624396   2.136   7.623   4.309 -0.0018 -0.2557 -0.6499
   51MOL   O29724397   2.158   7.521   4.378  0.0043 -0.1403  0.1473
   51MOL   C29824398   2.022   7.711   4.357  0.0072  0.0564  0.3808
   51MOL   C29924399   2.065   7.785   4.482 -0.0422  0.0004 -0.2705
   51MOL   C30024400   2.147   0.036   4.450 -0.0072 -0.7178 -0.4202
   51MOL   O30124401   2.167   0.067   4.331  0.4111  0.3331  0.4750
   51MOL   H30224402   2.702   7.815   4.327  0.5540 -0.2166 -1.2185
   51MOL   H30324403   2.703   7.636   4.295  2.1078  1.1958 -0.6413
   51MOL   H30424404   2.536   7.739   4.144  2.1996  0.7803  0.7586
   51MOL   H30524405   2.449   7.808   4.286  0.2529  1.1376 -1.3336
   51MOL   H30624406   2.388   7.572   4.340 -2.4636 -0.4698 -1.1984
   51MOL   H30724407   2.492   7.512   4.210 -0.1121  0.3396  0.0315
   51MOL   H30824408   2.343   7.646   4.052 -1.3324  0.6965  0.8611
   51MOL   H30924409   2.270   7.503   4.126 -3.5032  1.4193 -2.7031
   51MOL   H31024410   1.941   7.646   4.390 -0.0949  0.6025  1.2278
   51MOL   H31124411   1.980   7.769   4.275  1.0277 -1.1682 -1.0310
   51MOL   H31224412   1.970   7.823   4.520  0.3636  1.1887 -0.4436
   51MOL   H31324413   2.117   7.733   4.563  0.4575  1.5862  0.4484
   51MOL   O31424414   2.177   0.102   4.557 -0.6641  0.0005 -0.1732
   51MOL   C31524415   2.241   0.228   4.554  0.0257  0.2760 -0.1996
   51MOL   C31624416   2.365   0.214   4.643  0.6431  0.0545 -0.1293
   51MOL   C31724417   2.334   0.190   4.791 -0.0200  1.0082  0.2133
   51MOL   C31824418   2.244   0.292   4.856  0.1906  0.4570  0.5681
   51MOL   O31924419   2.105   0.257   4.842  0.2456  0.0827 -0.2210
   51MOL   C32024420   2.017   0.348   4.873 -0.0885 -0.5577 -0.5323
   51MOL   O32124421   2.046   0.460   4.910  0.1372 -0.0381 -0.1125
   51MOL   C32224422   1.879   0.287   4.858  0.8998 -0.3070  0.6077
   51MOL   C32324423   1.771   0.383   4.907 -0.3859  0.1917 -0.0845
   51MOL   C32424424   1.628   0.329   4.883 -0.7014  0.4931 -0.3215
   51MOL   O32524425   1.564   0.260   4.967  0.0831  0.2687 -0.0785
   51MOL   H32624426   2.261   0.248   4.449  1.3280 -0.2638 -0.0608
   51MOL   H32724427   2.162   0.294   4.591  0.1793 -0.0480  0.7315
   51MOL   H32824428   2.422   0.305   4.630 -0.1375  0.5863  0.1672
   51MOL   H32924429   2.425   0.134   4.600 -1.5783 -0.7203 -1.9384
   51MOL   H33024430   2.434   0.194   4.834 -0.0326  1.0796  0.2362
   51MOL   H33124431   2.311   0.084   4.797 -0.5635  1.1084 -0.1437
   51MOL   H33224432   2.258   0.278   4.964  0.5469  0.9326  0.5854
   51MOL   H33324433   2.259   0.395   4.823  1.1145 -0.1414 -0.8981
   51MOL   H33424434   1.869   0.212   4.936 -0.1273 -0.8140 -0.0006
   51MOL   H33524435   1.863   0.261   4.753 -0.2163  0.1168  0.6655
   51MOL   H33624436   1.773   0.389   5.015 -4.3074 -2.8187  0.2609
   51MOL   H33724437   1.790   0.477   4.855 -2.1456 -0.3477 -1.7566
   51MOL   O33824438   1.594   0.360   4.761 -0.7349  0.0667 -0.0471
   51MOL   C33924439   1.474   0.312   4.703 -0.0456  0.1143  0.3893
   51MOL   C34024440   1.476   0.315   4.549 -0.0903 -0.7431 -0.4997
   51MOL   C34124441   1.468   0.454   4.481  0.2002  0.7334 -0.3641
   51MOL   C34224442   1.456   0.462   4.334  0.7342  0.4686  0.3085
   51MOL   O34324443   1.464   0.593   4.276  0.0117  0.0899  0.0434
   51MOL   C34424444   1.438   0.606   4.144  0.3561  0.2497 -0.0324
   51MOL   O34524445   1.398   0.518   4.064  0.4623  0.1106  0.3406
   51MOL   C34624446   1.437   0.745   4.095  0.6643 -0.3987 -0.9253
   51MOL   C34724447   1.353   0.777   3.974  0.2416 -0.3640  0.1191
   51MOL   C34824448   1.337   0.928   3.949 -0.2845  0.1315 -0.2147
   51MOL   O34924449   1.409   1.012   4.007 -0.0456  0.0750  0.0952
   51MOL   H35024450   1.464   0.208   4.733  0.4343 -0.5936 -1.7955
   51MOL   H35124451   1.383   0.364   4.734 -0.0125  1.0541 -1.0153
   51MOL   H35224452   1.382   0.278   4.509 -1.4214  1.8940  0.1168
   51MOL   H35324453   1.553   0.249   4.509 -0.9965 -2.5301  0.6444
   51MOL   H35424454   1.557   0.509   4.512 -0.6889  1.4305  1.0094
   51MOL   H35524455   1.377   0.494   4.524  0.1723 -1.1307  1.3856
   51MOL   H35624456   1.529   0.408   4.273  0.9930 -0.8451  1.7306
   51MOL   H35724457   1.373   0.405   4.293 -0.6560  3.7957 -1.6929
   51MOL   H35824458   1.542   0.774   4.088  0.8534 -0.9356 -0.4391
   51MOL   H35924459   1.400   0.811   4.173 -0.5552  1.0485 -2.7016
   51MOL   H36024460   1.401   0.729   3.889 -0.1426  0.8986 -0.8350
   51MOL   H36124461   1.253   0.736   3.986  0.1508 -0.1964 -0.0438
   51MOL   O36224462   1.245   0.948   3.856 -0.3158  0.0979 -0.4804
   51MOL   C36324463   1.257   1.068   3.780 -0.1029  0.0764  0.2206
   51MOL   C36424464   1.183   1.039   3.651 -0.2313 -0.6432 -0.5338
   51MOL   C36524465   1.047   0.978   3.670  0.2714  0.9146  0.0187
   51MOL   C36624466   0.955   1.050   3.769  0.0506  0.0074 -0.2715
   51MOL   O36724467   0.914   1.170   3.706  0.1293 -0.0551 -0.5409
   51MOL   C36824468   0.848   1.263   3.775 -0.3342  0.0649 -1.0056
   51MOL   O36924469   0.800   1.248   3.885 -0.1152  0.4084  0.3419
   51MOL   C37024470   0.814   1.383   3.684 -0.2002 -0.6589  0.0582
   51MOL   C37124471   0.702   1.356   3.584  0.9976 -0.1772 -0.3571
   51MOL   C37224472   0.708   1.448   3.459  0.4953 -0.1434 -0.1664
   51MOL   O37324473   0.781   1.545   3.462 -0.3644  0.3886 -0.1353
   51MOL   H37424474   1.201   1.149   3.826  0.8282  1.1977 -0.5746
   51MOL   H37524475   1.362   1.097   3.773 -0.0627 -0.1240 -0.0511
   51MOL   H37624476   1.256   0.981   3.594  1.5122  0.7016  0.2928
   51MOL   H37724477   1.163   1.128   3.592  2.4270  0.9438  0.8823
   51MOL   H37824478   1.059   0.874   3.701 -0.5803  0.6925 -0.3736
   51MOL   H37924479   1.007   0.967   3.569 -3.4865  0.1635  1.4941
   51MOL   H38024480   0.867   0.991   3.793  0.7655 -0.7030  0.6431
   51MOL   H38124481   1.009   1.068   3.863 -1.0175 -0.9150  0.5222
   51MOL   H38224482   0.904   1.398   3.625 -1.1254  1.0525 -0.9622
   51MOL   H38324483   0.791   1.480   3.730  2.5693  0.1548 -0.1571
   51MOL   H38424484   0.702   1.252   3.551 -0.5790 -0.0998 -0.6411
   51MOL   H38524485   0.610   1.380   3.638  0.7541 -0.2065 -0.7606
   51MOL   O38624486   0.631   1.413   3.358 -0.9829 -0.5627  0.2290
   51MOL   C38724487   0.616   1.498   3.240 -0.2653  0.0540  0.4903
   51MOL   C38824488   0.682   1.429   3.118 -0.4994  0.0817 -0.5039
   51MOL   C38924489   0.830   1.389   3.139 -0.7476 -0.2098 -0.1425
   51MOL   C39024490   0.903   1.316   3.022 -0.2492 -0.0980 -0.3846
   51MOL   O39124491   1.029   1.266   3.066 -0.5368  0.0145 -0.6722
   51MOL   C39224492   1.087   1.153   3.007 -0.0390 -0.2389  0.4303
   51MOL   O39324493   1.039   1.094   2.912  0.2137 -0.2112  0.2086
   51MOL   C39424494   1.217   1.126   3.073  0.3811  0.4954  0.8608
   51MOL   C39524495   1.271   0.985   3.028 -0.0350 -0.1055 -0.1872
   51MOL   C39624496   1.360   0.921   3.129 -0.1752  0.3781 -0.3109
   51MOL   O39724497   1.484   0.911   3.123  0.0281  0.1669  0.4771
   51MOL   H39824498   0.512   1.511   3.211  0.2843  1.5982 -0.8659
   51MOL   H39924499   0.656   1.596   3.267  2.0357 -1.4820  2.8458
   51MOL   H40024500   0.668   1.492   3.031 -2.4709 -0.2474 -0.4609
   51MOL   H40124501   0.624   1.340   3.090 -0.7297  0.1504 -0.2436
   51MOL   H40224502   0.852   1.333   3.230  0.3233  1.1643  0.4753
   51MOL   H40324503   0.890   1.479   3.157 -1.8353  0.4048  0.4936
   51MOL   H40424504   0.843   1.233   2.984 -2.1230  1.2215 -0.4284
   51MOL   H40524505   0.917   1.379   2.935 -1.5263  0.8321  0.0554
   51MOL   H40624506   1.202   1.132   3.181  0.1479  0.0086  0.8534
   51MOL   H40724507   1.286   1.201   3.034  1.2810 -1.0748 -0.6408
   51MOL   H40824508   1.190   0.914   3.017 -0.8838  0.7970  0.1421
   51MOL   H40924509   1.311   0.988   2.926 -0.8180  3.3236 -0.4552
   51MOL   O41024510   1.292   0.845   3.227  0.3326 -0.1382 -0.2439
   51MOL   C41124511   1.360   0.793   3.337 -0.2855  0.6164 -0.3584
   51MOL   C41224512   1.312   0.660   3.365  0.9226 -0.2607 -0.7729
   51MOL   C41324513   1.153   0.658   3.371 -0.3118 -0.7578 -0.2869
   51MOL   C41424514   1.101   0.521   3.406 -0.4031  0.0156 -0.3613
   51MOL   O41524515   0.962   0.529   3.382 -0.6428  0.5563  0.4115
   51MOL   C41624516   0.893   0.413   3.381  0.1807  0.8107  0.1793
   51MOL   O41724517   0.933   0.299   3.389  0.0871 -0.4141 -0.3587
   51MOL   C41824518   0.738   0.418   3.382 -0.2297 -0.3068  0.4076
   51MOL   C41924519   0.694   0.360   3.240 -0.1404  0.4732  0.1883
   51MOL   C42024520   0.596   0.245   3.246  0.0638 -0.3310  0.6084
   51MOL   O42124521   0.525   0.220   3.350 -0.3691  0.6459 -0.2956
   51MOL   H42224522   1.464   0.772   3.316 -0.1758 -0.8252  1.5033
   51MOL   H42324523   1.357   0.859   3.424 -0.1142 -0.7119  0.6726
   51MOL   H42424524   1.346   0.619   3.460 -1.4104 -1.7576 -0.5364
   51MOL   H42524525   1.354   0.590   3.293  2.1339  0.0348 -0.3601
   51MOL   H42624526   1.114   0.681   3.271 -0.8545 -0.5380 -0.0272
   51MOL   H42724527   1.112   0.734   3.438  0.2597  0.1092 -0.9115
   51MOL   H42824528   1.158   0.441   3.360  2.0227  0.4473  1.7458
   51MOL   H42924529   1.119   0.509   3.513  0.4485 -0.6375 -0.5823
   51MOL   H43024530   0.689   0.512   3.409 -2.6788 -1.3086 -0.3422
   51MOL   H43124531   0.700   0.352   3.459 -0.5121 -0.6059  0.0173
   51MOL   H43224532   0.654   0.432   3.169 -1.2822 -0.1711  0.1626
   51MOL   H43324533   0.778   0.311   3.191 -1.6114 -0.2203 -1.6925
   51MOL   O43424534   0.596   0.169   3.131  0.6031 -0.4946 -0.8108
   51MOL   C43524535   0.509   0.062   3.119  0.0923 -0.0264 -0.1330
   51MOL   C43624536   0.482   0.037   2.969 -0.0347  0.2751  0.0716
   51MOL   C43724537   0.602   7.868   2.888 -0.0055 -0.6820 -0.1494
   51MOL   C43824538   0.567   7.829   2.739 -0.0260  0.2774  0.4610
   51MOL   O43924539   0.698   7.809   2.682 -0.2620  0.4840 -0.3397
   51MOL   C44024540   0.715   7.801   2.547  0.2089 -0.6736  0.3567
   51MOL   O44124541   0.632   7.806   2.458  0.2605 -0.5743 -0.4778
   51MOL   C44224542   0.869   7.815   2.519  0.2956 -0.1980 -0.3238
   51MOL   C44324543   0.919   7.704   2.416 -0.0967 -0.3620 -0.4171
   51MOL   C44424544   0.943   7.566   2.464 -0.1626 -0.5007 -0.0578
   51MOL   O44524545   0.904   7.477   2.402 -0.3404 -0.8348  0.2963
   51MOL   H44624546   0.549   7.848   3.168  0.9281  0.2383 -0.3355
   51MOL   H44724547   0.411   0.091   3.157  1.1417  2.0224  1.1221
   51MOL   H44824548   0.437   0.127   2.927 -0.6763  0.6447  1.5188
   51MOL   H44924549   0.405   7.836   2.954 -0.7548  0.9794  0.1475
   51MOL   H45024550   0.653   7.792   2.948  0.2886  0.2756  0.8120
   51MOL   H45124551   0.676   0.073   2.883 -1.1107  0.3289 -0.6962
   51MOL   H45224552   0.503   7.741   2.734 -0.0211  0.4170 -4.0859
   51MOL   H45324553   0.506   0.029   2.688  0.2773 -1.3559 -2.3916
   51MOL   H45424554   0.926   7.804   2.611  0.9608  1.8899 -0.4568
   51MOL   H45524555   0.890   0.038   2.476 -0.6775 -0.2942 -1.0284
   51MOL   H45624556   0.862   7.699   2.323  0.1197  0.7442 -0.6107
   51MOL   H45724557   1.019   7.724   2.379 -0.1364  1.1762  0.2681
   51MOL   O45824558   0.990   7.552   2.584 -0.7249 -0.5919  0.3115
   51MOL   C45924559   1.010   7.429   2.648 -0.8538 -0.4886  0.4712
   51MOL   C46024560   1.070   7.461   2.782 -0.6815  0.5539 -0.5755
   51MOL   C46124561   0.982   7.534   2.878 -0.6058  0.0161 -0.0189
   51MOL   C46224562   1.045   7.582   3.013  0.7331 -0.2463 -0.9624
   51MOL   O46324563   0.939   7.664   3.070  0.3176  0.0397  0.1022
   51MOL   C46424564   0.930   7.684   3.198  0.4675 -0.4680 -0.4383
   51MOL   O46524565   1.013   7.649   3.280 -0.3623 -0.0345 -0.1195
   51MOL   C46624566   0.809   7.768   3.236  0.4798 -0.0572  0.4179
   51MOL   C46724567   0.856   0.006   3.325 -0.2897 -0.6834 -1.1213
   51MOL   C46824568   0.784   0.026   3.459 -0.5491 -0.5979  0.3143
   51MOL   O46924569   0.671   7.859   3.482  0.1906  0.2240 -0.6044
   51MOL   H47024570   0.915   7.377   2.664 -0.9367  0.6281  4.1360
   51MOL   H47124571   1.071   7.363   2.587  2.2818  2.5135  0.2053
   51MOL   H47224572   1.169   7.506   2.770 -0.5743 -0.0631 -1.9778
   51MOL   H47324573   1.096   7.366   2.828 -1.4786 -0.1702 -1.5963
   51MOL   H47424574   0.894   7.479   2.910  0.1187  1.0024  4.0298
   51MOL   H47524575   0.948   7.620   2.820 -1.7387  0.4694  1.2739
   51MOL   H47624576   1.073   7.490   3.064 -0.4131 -0.7627 -1.2599
   51MOL   H47724577   1.129   7.647   2.986 -1.4197  1.6844 -3.2119
   51MOL   H47824578   0.740   7.701   3.286  0.8529  0.1553  1.2254
   51MOL   H47924579   0.764   7.810   3.146  2.1152 -0.3464 -0.5603
   51MOL   H48024580   0.964   0.002   3.341 -0.4013 -2.6648 -0.7176
   51MOL   H48124581   0.848   0.093   3.260  1.6267  1.6581  1.6804
   51MOL   H48224582   0.850   0.082   3.526 -0.2970  0.2557 -0.6373
   52MOL     O124583   3.231   5.584   6.833 -0.0825 -0.4147  0.3358
   52MOL     C224584   3.329   5.607   6.736 -0.0543 -0.3452 -0.0879
   52MOL     C324585   3.255   5.651   6.608  0.3670  0.0114 -0.0272
   52MOL     C424586   3.339   5.661   6.481 -0.0068  0.8041 -0.7245
   52MOL     C524587   3.256   5.662   6.345  0.0731  0.4447 -0.6526
   52MOL     O624588   3.211   5.794   6.338 -0.7461  0.2970 -0.0731
   52MOL     C724589   3.120   5.825   6.243  0.4751 -0.6537  0.3893
   52MOL     O824590   3.059   5.749   6.163 -0.0978 -0.8434  0.2619
   52MOL     C924591   3.088   5.972   6.262  0.3999  0.4287  0.7240
   52MOL    C1024592   2.966   6.034   6.184  0.6462  0.7853 -0.2393
   52MOL    C1124593   3.028   6.138   6.098 -0.0391  0.4892  0.8103
   52MOL    O1224594   3.026   6.261   6.119  0.1759 -0.0515  0.5645
   52MOL    H1324595   3.389   5.691   6.771 -0.1818 -0.7735  1.1834
   52MOL    H1424596   3.388   5.519   6.712  2.5380  1.5254 -0.8614
   52MOL    H1524597   3.199   5.743   6.622 -0.4997 -0.7903  2.0799
   52MOL    H1624598   3.185   5.569   6.591  0.4634 -0.2350  0.7350
   52MOL    H1724599   3.382   5.561   6.474 -1.1950  0.2210  0.1777
   52MOL    H1824600   3.427   5.725   6.485  1.6403 -1.3109 -1.9463
   52MOL    H1924601   3.319   5.629   6.263 -1.1814 -3.7376 -0.0676
   52MOL    H2024602   3.181   5.583   6.357  1.1598 -0.3363  1.3420
   52MOL    H2124603   3.176   6.029   6.234  1.2204 -0.7209  0.9257
   52MOL    H2224604   3.069   5.983   6.369 -3.9406  0.9680 -0.0183
   52MOL    H2324605   2.908   5.964   6.124  1.7102  0.1410 -0.5290
   52MOL    H2424606   2.899   6.073   6.261 -1.8870  0.8998 -2.4343
   52MOL    H2524607   3.264   5.577   6.922 -2.4860  1.7579  1.4723
   52MOL    O2624608   3.097   6.076   6.000  0.0375  0.0810  0.1226
   52MOL    C2724609   3.188   6.150   5.923 -0.1037 -0.2114 -0.5326
   52MOL    C2824610   3.316   6.190   5.998 -0.4817 -0.1312  0.5077
   52MOL    C2924611   3.401   6.290   5.913  0.0157  0.5294  0.0181
   52MOL    C3024612   3.443   6.230   5.782 -0.3198 -0.2300  0.1613
   52MOL    O3124613   3.554   6.131   5.805  0.1042  0.0911  0.0038
   52MOL    C3224614   3.625   6.075   5.705  0.5293  0.4731 -0.3104
   52MOL    O3324615   3.646   6.132   5.598  0.6493  1.0152  0.6117
   52MOL    C3424616   3.695   5.946   5.739 -0.0979 -0.9080 -0.4507
   52MOL    C3524617   3.601   5.829   5.735  0.3172  0.0686  0.4205
   52MOL    C3624618   3.563   5.769   5.872  0.3775  0.6437  0.3435
   52MOL    O3724619   3.507   5.836   5.960  0.6608  0.0662 -0.1815
   52MOL    H3824620   3.208   6.086   5.838  2.7007 -0.3289  0.1727
   52MOL    H3924621   3.140   6.237   5.878 -0.9245 -1.9203 -3.0638
   52MOL    H4024622   3.374   6.097   6.006 -1.4580 -0.8722 -0.9030
   52MOL    H4124623   3.293   6.228   6.098 -0.2287  1.1284  0.0969
   52MOL    H4224624   3.488   6.318   5.973  0.8478  0.1181 -0.9763
   52MOL    H4324625   3.346   6.380   5.887 -1.7380 -0.9526 -1.5525
   52MOL    H4424626   3.362   6.183   5.726 -0.8452 -0.9548  1.4913
   52MOL    H4524627   3.464   6.320   5.725 -0.2129  1.1797  2.3390
   52MOL    H4624628   3.737   5.951   5.839  0.2914  0.2835 -0.6608
   52MOL    H4724629   3.787   5.949   5.681  0.6008 -1.0972  0.6434
   52MOL    H4824630   3.517   5.851   5.670  0.3315 -0.9076  0.0562
   52MOL    H4924631   3.651   5.744   5.687  0.0734 -0.6517  1.4365
   52MOL    O5024632   3.588   5.638   5.885 -0.5865 -0.2671 -0.3957
   52MOL    C5124633   3.552   5.572   6.011  0.5051 -0.4304  0.2282
   52MOL    C5224634   3.659   5.594   6.118 -0.4584  0.1050 -0.1760
   52MOL    C5324635   3.630   5.510   6.248  0.6857  0.2072  0.2386
   52MOL    C5424636   3.753   5.515   6.343 -0.4250  0.1829  0.2705
   52MOL    O5524637   3.777   5.648   6.400 -0.3537 -0.3074 -0.0323
   52MOL    C5624638   3.721   5.693   6.508  0.1341 -0.5003 -0.2978
   52MOL    O5724639   3.661   5.632   6.600 -0.3177 -0.4242 -0.3709
   52MOL    C5824640   3.739   5.844   6.528  0.2303  0.4531  0.2578
   52MOL    C5924641   3.707   5.895   6.669  0.0144  0.6464 -0.5830
   52MOL    C6024642   3.807   5.988   6.725  0.0267  0.1192  0.7218
   52MOL    O6124643   3.859   5.969   6.830 -0.4408 -0.1447  0.3931
   52MOL    H6224644   3.460   5.612   6.053  0.4198  0.6096 -0.9041
   52MOL    H6324645   3.538   5.466   5.989 -1.4978 -0.0682 -0.3486
   52MOL    H6424646   3.682   5.694   6.155  2.5749 -0.1549 -1.2294
   52MOL    H6524647   3.757   5.562   6.083 -0.1451  0.8965 -0.0382
   52MOL    H6624648   3.628   5.405   6.216 -0.3466 -0.3797  2.1470
   52MOL    H6724649   3.534   5.516   6.299  1.4852  0.5066  1.7530
   52MOL    H6824650   3.748   5.435   6.416  0.0836 -0.4151 -0.3487
   52MOL    H6924651   3.842   5.501   6.282 -1.8482 -1.7032 -1.4582
   52MOL    H7024652   3.682   5.888   6.447  1.0649  1.3108  0.1228
   52MOL    H7124653   3.844   5.862   6.506  0.3427 -1.0692 -0.5498
   52MOL    H7224654   3.620   5.960   6.659  1.6399  2.6520 -2.0982
   52MOL    H7324655   3.677   5.820   6.743 -0.7137  1.6740  0.1786
   52MOL    O7424656   3.836   6.083   6.642  0.0039 -0.3412 -0.1055
   52MOL    C7524657   3.919   6.198   6.682 -0.9402  0.1866 -0.2355
   52MOL    C7624658   4.003   6.254   6.569 -0.4261  0.3423 -0.2253
   52MOL    C7724659   4.072   6.391   6.604  0.0098  0.5502  0.3942
   52MOL    C7824660   4.181   6.427   6.499 -0.0556 -0.5139 -0.5389
   52MOL    O7924661   4.296   6.340   6.497 -0.3776 -0.0185 -0.1234
   52MOL    C8024662   4.402   6.377   6.424 -0.5454 -0.5137 -0.0075
   52MOL    O8124663   4.400   6.462   6.332 -0.5902  0.3641 -0.3759
   52MOL    C8224664   4.530   6.317   6.489  0.3805 -0.2167  0.4564
   52MOL    C8324665   4.603   6.415   6.586 -0.4990  0.2349 -0.0798
   52MOL    C8424666   4.577   6.385   6.728  0.3259  0.2338  0.2820
   52MOL    O8524667   4.612   6.281   6.776  0.1085  0.2067  0.3322
   52MOL    H8624668   3.847   6.270   6.722 -0.6802  0.1899  0.2261
   52MOL    H8724669   3.990   6.177   6.762 -1.3521 -0.0878  0.0625
   52MOL    H8824670   3.937   6.272   6.483  0.6029 -1.6394 -1.4605
   52MOL    H8924671   4.071   6.178   6.531 -1.3778 -1.2076  1.1560
   52MOL    H9024672   4.122   6.369   6.699 -0.8095  0.1160  0.7309
   52MOL    H9124673   4.007   6.474   6.631 -2.5973 -1.1137 -0.5799
   52MOL    H9224674   4.146   6.444   6.398 -0.0689  0.2931 -0.4042
   52MOL    H9324675   4.221   6.521   6.536  1.6677 -1.2645 -0.4671
   52MOL    H9424676   4.600   6.266   6.423 -0.1670 -0.3184 -0.0469
   52MOL    H9524677   4.490   6.233   6.545  0.0468 -0.4090 -0.0665
   52MOL    H9624678   4.710   6.426   6.567 -0.5609  0.7826 -0.1195
   52MOL    H9724679   4.569   6.515   6.557 -1.9643 -0.1326  0.3475
   52MOL    O9824680   4.529   6.484   6.803  0.0085 -0.0807 -0.6274
   52MOL    C9924681   4.491   6.465   6.939 -0.3955  0.2724 -0.3838
   52MOL   C10024682   4.402   6.585   6.988  0.2057 -0.1315 -0.4868
   52MOL   C10124683   4.382   6.584   7.147  0.2387 -0.2612  0.1505
   52MOL   C10224684   4.323   6.710   7.208  0.6036  0.2174 -0.0046
   52MOL   O10324685   4.299   6.700   7.348 -0.6584 -0.1199 -0.1322
   52MOL   C10424686   4.168   6.711   7.395 -0.0827 -0.8497  0.7419
   52MOL   O10524687   4.067   6.736   7.332  0.1788  0.5072  0.4825
   52MOL   C10624688   4.165   6.662   7.540  0.4040  0.0384 -0.1047
   52MOL   C10724689   4.030   6.630   7.589 -0.0431  0.7277  0.8485
   52MOL   C10824690   3.954   6.750   7.654 -0.1758 -0.6115  0.1067
   52MOL   O10924691   3.957   6.759   7.774 -0.0552 -0.6357 -0.2503
   52MOL   H11024692   4.437   6.371   6.954  3.0897 -1.8294 -0.3944
   52MOL   H11124693   4.582   6.471   6.998  0.3617  0.0612 -1.5014
   52MOL   H11224694   4.313   6.586   6.925 -1.4464  0.6460  1.7836
   52MOL   H11324695   4.459   6.677   6.980 -0.4835  0.4224  0.8496
   52MOL   H11424696   4.482   6.581   7.190  0.2000 -2.2308  0.1210
   52MOL   H11524697   4.331   6.498   7.189 -0.9012 -0.0145 -0.7009
   52MOL   H11624698   4.384   6.798   7.186 -2.4525  1.8685 -2.3197
   52MOL   H11724699   4.225   6.733   7.166  1.8555 -0.2183 -3.3816
   52MOL   H11824700   4.214   6.726   7.614 -0.3976  1.2183 -0.5734
   52MOL   H11924701   4.222   6.569   7.550 -0.7640 -1.0579 -3.0093
   52MOL   H12024702   3.976   6.600   7.500  2.6327 -1.1141 -0.2277
   52MOL   H12124703   4.032   6.549   7.662  0.4640  1.5764  1.7792
   52MOL   O12224704   3.884   6.827   7.572  1.2549 -0.2311 -0.4104
   52MOL   C12324705   3.812   6.947   7.618  0.2480  0.0442 -0.4275
   52MOL   C12424706   3.875   7.077   7.577  0.5939  0.2798  0.0313
   52MOL   C12524707   3.871   7.108   7.428 -0.6403 -0.1563 -0.5363
   52MOL   C12624708   3.733   7.146   7.379 -0.2858 -0.9161 -0.1072
   52MOL   O12724709   3.744   7.155   7.240 -0.5130  0.1400  0.2792
   52MOL   C12824710   3.728   7.040   7.171  0.0705 -1.1876  0.3595
   52MOL   O12924711   3.715   6.931   7.225  0.1220  0.1666  0.3428
   52MOL   C13024712   3.737   7.051   7.017 -0.1118 -0.8805 -0.8017
   52MOL   C13124713   3.860   7.135   6.976 -0.1902 -0.6855  0.1571
   52MOL   C13224714   3.810   7.260   6.899  0.1772 -0.4204 -0.0168
   52MOL   O13324715   3.732   7.343   6.946  0.1525  0.8463  0.2896
   52MOL   H13424716   3.716   6.940   7.567 -0.7193  0.4443  1.3169
   52MOL   H13524717   3.795   6.954   7.725 -1.5966 -0.7045 -0.6467
   52MOL   H13624718   3.979   7.063   7.605  0.3250  0.1691  0.9823
   52MOL   H13724719   3.834   7.155   7.640  1.3635 -0.0736  0.9802
   52MOL   H13824720   3.909   7.024   7.371  0.7714 -1.1374  1.7919
   52MOL   H13924721   3.942   7.188   7.404 -0.8526  0.3863  0.5785
   52MOL   H14024722   3.651   7.075   7.389 -0.0399 -1.3301 -0.8983
   52MOL   H14124723   3.705   7.244   7.417  2.1775 -0.0913 -0.3162
   52MOL   H14224724   3.638   7.092   6.997 -0.6729 -1.2581  1.0580
   52MOL   H14324725   3.730   6.954   6.968  1.9613 -0.7977 -1.2994
   52MOL   H14424726   3.919   7.172   7.060 -2.5384  0.7060  1.2267
   52MOL   H14524727   3.915   7.073   6.904 -0.1213 -0.7746  0.2866
   52MOL   O14624728   3.877   7.274   6.782 -0.0898  0.3452  0.0762
   52MOL   C14724729   3.847   7.383   6.694 -0.6474  0.1314 -0.0387
   52MOL   C14824730   3.881   7.343   6.545 -0.1225  0.1223 -0.1538
   52MOL   C14924731   4.031   7.353   6.497  0.9997 -0.6651  0.2020
   52MOL   C15024732   4.031   7.343   6.349  0.0068  0.1395  0.1201
   52MOL   O15124733   3.983   7.455   6.284  0.3191  0.0408  0.4447
   52MOL   C15224734   4.046   7.567   6.267  0.1234 -0.3568 -0.0630
   52MOL   O15324735   4.160   7.593   6.305 -0.5420 -0.6419  0.1853
   52MOL   C15424736   3.960   7.673   6.203 -0.3037 -0.2225 -0.0600
   52MOL   C15524737   3.860   7.735   6.303  0.7384  0.3547 -0.0240
   52MOL   C15624738   3.776   7.832   6.229 -0.8174 -0.6288 -0.6864
   52MOL   O15724739   3.763   0.074   6.272 -0.1774  0.0792  0.2776
   52MOL   H15824740   3.748   7.427   6.708 -0.7933 -0.2304  0.0595
   52MOL   H15924741   3.914   7.467   6.715  1.2813 -1.3347 -0.1652
   52MOL   H16024742   3.841   7.421   6.480 -0.0735  0.3146  0.0505
   52MOL   H16124743   3.822   7.256   6.514  0.3555 -0.2366 -0.0475
   52MOL   H16224744   4.092   7.283   6.554  0.0222 -1.8561 -0.2077
   52MOL   H16324745   4.074   7.450   6.522  0.8255 -0.3821 -0.5957
   52MOL   H16424746   4.134   7.327   6.317  0.0223 -2.5865  1.4043
   52MOL   H16524747   3.975   7.254   6.322  0.2746 -0.1720  0.5785
   52MOL   H16624748   3.899   7.617   6.131 -1.0121 -0.3088  0.5961
   52MOL   H16724749   4.026   7.744   6.153  0.4223 -0.3277  0.7456
   52MOL   H16824750   3.794   7.658   6.342 -1.0011  1.5086 -0.6767
   52MOL   H16924751   3.906   7.784   6.389 -0.1795  0.9912  0.0982
   52MOL   O17024752   3.719   7.785   6.117  0.0602  0.2637  0.4958
   52MOL   C17124753   3.646   7.857   6.024 -0.0172  0.3961  0.3907
   52MOL   C17224754   3.504   7.790   6.009 -0.3903  0.2034 -0.2177
   52MOL   C17324755   3.435   7.834   5.880 -0.5170  0.2569 -0.2566
   52MOL   C17424756   3.480   7.736   5.768  0.1658 -0.2596  0.0449
   52MOL   O17524757   3.384   7.623   5.765 -0.2956 -0.0487  0.6859
   52MOL   C17624758   3.407   7.520   5.689  0.0893  0.2223 -0.2193
   52MOL   O17724759   3.509   7.496   5.622 -0.7576 -0.0963  0.4791
   52MOL   C17824760   3.302   7.417   5.703  0.2127  0.6341  0.5620
   52MOL   C17924761   3.169   7.468   5.653 -0.5488  0.5114 -0.0321
   52MOL   C18024762   3.106   7.368   5.556 -0.4875  0.1817  0.4394
   52MOL   O18124763   3.139   7.249   5.560 -0.3452 -0.5500 -0.2024
   52MOL   H18224764   3.637   0.084   6.060  1.4489  0.8491 -0.4802
   52MOL   H18324765   3.700   7.852   5.929 -2.7127 -0.8127 -1.1423
   52MOL   H18424766   3.446   7.811   6.099  1.4465 -0.7694  1.2187
   52MOL   H18524767   3.522   7.683   6.014  1.4754  0.5858  2.2619
   52MOL   H18624768   3.461   0.060   5.848  3.9495 -1.0618 -1.0364
   52MOL   H18724769   3.327   7.847   5.888 -0.3613  3.1667 -2.2146
   52MOL   H18824770   3.466   7.780   5.669 -4.6682 -1.4119  0.0737
   52MOL   H18924771   3.580   7.696   5.782  0.1381 -1.2836 -2.5724
   52MOL   H19024772   3.298   7.394   5.810  0.8540 -1.2443  0.1919
   52MOL   H19124773   3.339   7.330   5.651 -0.6580  0.6084 -0.0105
   52MOL   H19224774   3.108   7.467   5.743 -2.5752 -0.4216 -1.3770
   52MOL   H19324775   3.170   7.571   5.617  1.0586  0.3155 -0.5885
   52MOL   O19424776   3.003   7.418   5.485 -0.0343 -0.6164 -1.0900
   52MOL   C19524777   2.909   7.333   5.408 -1.4565 -0.0615 -0.1863
   52MOL   C19624778   2.779   7.315   5.473  0.2979  0.3438 -0.1651
   52MOL   C19724779   2.689   7.438   5.469  0.3894 -0.2108 -0.2420
   52MOL   C19824780   2.557   7.418   5.540 -0.4835  0.1327  0.4763
   52MOL   O19924781   2.468   7.318   5.490  0.5601  0.2923 -0.1065
   52MOL   C20024782   2.349   7.306   5.537  0.2605  0.2820  0.4600
   52MOL   O20124783   2.288   7.382   5.613  0.1399  0.1918 -0.6719
   52MOL   C20224784   2.278   7.179   5.484 -0.0133 -0.3513  0.7173
   52MOL   C20324785   2.344   7.060   5.556 -0.9681  0.1652 -0.4781
   52MOL   C20424786   2.253   7.006   5.667  0.3681  0.5087  0.3124
   52MOL   O20524787   2.306   7.007   5.778  0.3779  0.8784  0.2109
   52MOL   H20624788   2.894   7.381   5.311  0.0404  0.2132 -0.3053
   52MOL   H20724789   2.946   7.232   5.396 -2.2044 -0.8174  3.4923
   52MOL   H20824790   2.800   7.272   5.571 -0.4757  2.0081  0.7634
   52MOL   H20924791   2.724   7.241   5.415 -0.0030  0.1689  0.3404
   52MOL   H21024792   2.666   7.462   5.366 -0.4635  0.8255  0.1771
   52MOL   H21124793   2.744   7.519   5.518 -1.3668  0.2881  0.9678
   52MOL   H21224794   2.568   7.405   5.648 -0.9579 -2.7086  0.2084
   52MOL   H21324795   2.502   7.511   5.526 -1.7973 -0.7494 -0.2862
   52MOL   H21424796   2.281   7.179   5.375  0.2310  1.8667  0.7082
   52MOL   H21524797   2.172   7.187   5.507 -0.0156 -0.3369  0.7018
   52MOL   H21624798   2.356   6.980   5.484 -0.7789 -0.8890  0.6991
   52MOL   H21724799   2.435   7.088   5.609  0.3553 -0.4577 -2.4029
   52MOL   O21824800   2.132   6.966   5.632  0.6512  0.5175  0.1702
   52MOL   C21924801   2.038   6.913   5.719 -0.5771  0.2668  0.5577
   52MOL   C22024802   1.902   6.966   5.669 -0.1866 -0.2077 -0.3353
   52MOL   C22124803   1.792   6.909   5.756 -0.1508 -0.1360 -0.1222
   52MOL   C22224804   1.656   6.947   5.704  0.0023  0.1438 -0.0608
   52MOL   O22324805   1.565   6.925   5.808  0.1379  0.5512 -0.1185
   52MOL   C22424806   1.455   6.990   5.819  0.9571 -0.0834 -0.9617
   52MOL   O22524807   1.425   7.096   5.758  0.3623  0.0824  0.0958
   52MOL   C22624808   1.360   6.951   5.926 -0.1124 -0.0562 -0.0840
   52MOL   C22724809   1.426   6.989   6.061  0.2979 -0.0562  0.4006
   52MOL   C22824810   1.401   7.134   6.083  0.2487 -0.8959 -0.2920
   52MOL   O22924811   1.494   7.210   6.109  0.0765 -0.0234  0.7984
   52MOL   H23024812   2.040   6.805   5.710 -0.9269  0.4963 -3.0217
   52MOL   H23124813   2.043   6.948   5.823  1.1861 -0.8885  0.8820
   52MOL   H23224814   1.888   6.944   5.563 -3.0269 -0.3918  0.0418
   52MOL   H23324815   1.892   7.074   5.679 -0.0428 -0.2626  0.3860
   52MOL   H23424816   1.811   6.949   5.855  0.4029  0.9941 -0.6788
   52MOL   H23524817   1.802   6.800   5.755 -1.3770 -0.2534 -2.9247
   52MOL   H23624818   1.662   7.053   5.677  2.9070  0.6878  2.4856
   52MOL   H23724819   1.633   6.894   5.612 -1.6258  0.5729  0.0861
   52MOL   H23824820   1.356   6.843   5.910 -1.6758 -0.1698  0.9321
   52MOL   H23924821   1.258   6.988   5.922 -0.3774 -0.5985  1.2608
   52MOL   H24024822   1.376   6.928   6.136  1.1460 -1.6155 -0.2578
   52MOL   H24124823   1.535   6.983   6.065  0.1459 -1.3000  4.8396
   52MOL   O24224824   1.271   7.170   6.057 -0.1061  0.5655 -0.0714
   52MOL   C24324825   1.242   7.311   6.073 -0.4134  0.6105 -1.3881
   52MOL   C24424826   1.238   7.372   5.930 -0.6393 -0.3256  0.2936
   52MOL   C24524827   1.120   7.323   5.843  0.4277  0.1294  0.0942
   52MOL   C24624828   1.134   7.368   5.697  0.2882 -1.0935 -0.1990
   52MOL   O24724829   1.138   7.509   5.697  0.2120  0.0928 -0.0598
   52MOL   C24824830   1.081   7.584   5.604 -1.1385  0.1198  0.1889
   52MOL   O24924831   1.027   7.531   5.501  0.1896 -0.0885  0.6574
   52MOL   C25024832   1.109   7.728   5.625 -0.0714 -0.0281 -0.0553
   52MOL   C25124833   1.001   7.797   5.715  0.6379 -0.3049 -0.1802
   52MOL   C25224834   1.065   0.013   5.821  0.2598  0.7417 -0.0807
   52MOL   O25324835   1.011   0.120   5.833  0.0129 -0.2073  0.0342
   52MOL   H25424836   1.140   7.325   6.109  0.0362  0.6860 -0.1175
   52MOL   H25524837   1.304   7.365   6.144  0.4508  0.3919 -1.9756
   52MOL   H25624838   1.322   7.337   5.871 -0.5893  0.6626 -0.2401
   52MOL   H25724839   1.247   7.481   5.939 -1.5171 -0.1718 -0.6462
   52MOL   H25824840   1.025   7.359   5.880  0.0484  0.0068 -0.7302
   52MOL   H25924841   1.124   7.215   5.856 -0.8638 -0.4095 -3.3473
   52MOL   H26024842   1.228   7.332   5.656  1.0720  1.8646 -1.0648
   52MOL   H26124843   1.050   7.339   5.634 -0.1739  1.7528 -0.9262
   52MOL   H26224844   1.118   7.761   5.522  0.4170 -1.6249 -0.5521
   52MOL   H26324845   1.211   7.727   5.666  0.3489 -0.6255 -1.0902
   52MOL   H26424846   0.925   7.856   5.664 -1.6418 -2.2918  0.8378
   52MOL   H26524847   0.937   7.727   5.769  1.8924 -2.2499 -1.1383
   52MOL   O26624848   1.155   7.832   5.902 -0.2591 -0.3044  0.0012
   52MOL   C26724849   1.216   0.031   6.007  0.4651 -0.2869 -0.8480
   52MOL   C26824850   1.310   7.837   6.110 -0.9166 -0.4035 -0.5070
   52MOL   C26924851   1.438   7.788   6.044 -0.2528  0.6578  0.5402
   52MOL   C27024852   1.485   7.664   6.124  0.3138 -0.5235  1.2068
   52MOL   O27124853   1.517   7.695   6.261 -0.8815  0.0263  0.0077
   52MOL   C27224854   1.620   7.649   6.319  0.0301 -0.4190  0.0773
   52MOL   O27324855   1.698   7.575   6.269  0.0040 -0.7722  0.0551
   52MOL   C27424856   1.620   7.676   6.470 -0.4391 -0.5646 -0.5579
   52MOL   C27524857   1.637   7.831   6.501  0.3741  0.4144 -0.0537
   52MOL   C27624858   1.623   7.872   6.649  0.1562 -0.5195 -0.1927
   52MOL   O27724859   1.661   7.794   6.736  0.0488  0.0442  0.7682
   52MOL   H27824860   1.261   0.113   5.950 -0.4819  1.2906  0.6204
   52MOL   H27924861   1.144   0.092   6.061 -0.1108 -2.5103  0.9563
   52MOL   H28024862   1.258   7.751   6.151 -1.3063 -0.2312 -0.6328
   52MOL   H28124863   1.333   0.023   6.197 -0.5277 -0.2072 -0.7476
   52MOL   H28224864   1.521   7.859   6.051 -1.0556  1.4935  1.7511
   52MOL   H28324865   1.416   7.751   5.944  2.1807  1.1870 -0.2273
   52MOL   H28424866   1.406   7.589   6.117 -1.4764  1.0659  3.4289
   52MOL   H28524867   1.567   7.630   6.061  0.5742  2.9218 -0.4363
   52MOL   H28624868   1.713   7.636   6.511 -0.7223 -2.1272 -1.4092
   52MOL   H28724869   1.535   7.630   6.519  0.2373 -0.1738  1.0173
   52MOL   H28824870   1.737   7.860   6.470  1.3773  0.3595  2.9960
   52MOL   H28924871   1.574   0.014   6.434 -0.1190  0.0674  0.1023
   52MOL   O29024872   1.584   0.124   6.663  0.3741  0.1475  0.1802
   52MOL   C29124873   1.584   0.188   6.786  0.1985 -0.2019  0.1752
   52MOL   C29224874   1.445   0.229   6.839 -0.0771 -0.0081 -0.2088
   52MOL   C29324875   1.439   0.262   6.986 -0.0018  0.2235 -0.6437
   52MOL   C29424876   1.294   0.281   7.040 -0.3079  0.1017  0.0693
   52MOL   O29524877   1.226   0.386   6.972 -0.6686 -0.2343 -0.3912
   52MOL   C29624878   1.265   0.512   7.009 -0.1440 -0.1888 -0.0923
   52MOL   O29724879   1.345   0.533   7.099  0.1581  0.5225 -0.1952
   52MOL   C29824880   1.173   0.618   6.951 -0.2013  0.3298  0.2290
   52MOL   C29924881   1.192   0.757   7.020 -0.2504  0.0999  0.3418
   52MOL   C30024882   1.077   0.796   7.117  0.8271 -0.2302 -0.0172
   52MOL   O30124883   0.978   0.731   7.146 -0.0039 -0.1891 -0.6065
   52MOL   H30224884   1.642   0.134   6.861  1.1741  0.7687  0.1345
   52MOL   H30324885   1.643   0.279   6.773 -0.1826 -0.2469 -1.9500
   52MOL   H30424886   1.365   0.157   6.825 -0.3973  0.4312 -0.6574
   52MOL   H30524887   1.422   0.322   6.787  0.4413 -0.8169 -1.9201
   52MOL   H30624888   1.506   0.341   7.021  0.4931 -0.1454 -0.7570
   52MOL   H30724889   1.491   0.183   7.039 -1.7455  0.1934  1.0889
   52MOL   H30824890   1.239   0.188   7.028  0.1811 -0.0342 -1.1039
   52MOL   H30924891   1.297   0.292   7.149 -0.6573 -0.9728  0.1966
   52MOL   H31024892   1.070   0.584   6.961  0.2532 -1.1121  0.0114
   52MOL   H31124893   1.192   0.626   6.844 -2.6050  2.1653 -0.1097
   52MOL   H31224894   1.295   0.761   7.056  0.4114  2.9661 -1.7338
   52MOL   H31324895   1.190   0.827   6.936  0.3106  0.1236  0.3466
   52MOL   O31424896   1.110   0.908   7.189  0.1846 -0.5152 -0.1664
   52MOL   C31524897   1.027   0.958   7.287 -0.5518  0.4890 -0.5843
   52MOL   C31624898   1.098   1.052   7.376  0.7378  0.5345  0.3114
   52MOL   C31724899   1.217   0.987   7.453  0.1765 -0.5144 -0.3996
   52MOL   C31824900   1.350   0.960   7.377 -0.2356 -0.8045  0.5473
   52MOL   O31924901   1.391   1.087   7.335 -0.4881 -0.0760  0.2845
   52MOL   C32024902   1.465   1.162   7.416 -0.1754  0.1458 -0.3447
   52MOL   O32124903   1.509   1.122   7.528  0.2818  0.2174 -0.2846
   52MOL   C32224904   1.491   1.297   7.355 -0.3852  0.0026 -0.1928
   52MOL   C32324905   1.552   1.391   7.463  0.3936  0.2693  0.3556
   52MOL   C32424906   1.448   1.440   7.565  0.0177  0.2239 -0.4057
   52MOL   O32524907   1.335   1.463   7.528  0.8206 -0.0826  0.6255
   52MOL   H32624908   0.948   1.006   7.228  1.7072  3.2363 -1.4856
   52MOL   H32724909   0.971   0.880   7.339  0.9787  0.4434  1.0249
   52MOL   H32824910   1.028   1.101   7.444  0.2520  0.6216 -0.2451
   52MOL   H32924911   1.132   1.134   7.313 -0.4956  0.6570 -0.2081
   52MOL   H33024912   1.187   0.889   7.492 -1.2619  0.7295  1.7020
   52MOL   H33124913   1.229   1.048   7.543 -2.2127  1.2001 -1.2334
   52MOL   H33224914   1.426   0.909   7.436 -1.6392 -2.8554  0.6479
   52MOL   H33324915   1.341   0.892   7.292  0.7984  0.3696 -0.5228
   52MOL   H33424916   1.398   1.330   7.310  1.2258  1.1364 -2.8343
   52MOL   H33524917   1.550   1.285   7.264  0.6164 -0.3342  0.4934
   52MOL   H33624918   1.625   1.330   7.516  0.7309  1.2466  1.0319
   52MOL   H33724919   1.597   1.477   7.412  0.0456 -0.4665 -1.2127
   52MOL   O33824920   1.510   1.474   7.686 -0.3008 -0.0846 -0.6514
   52MOL   C33924921   1.424   1.529   7.786  0.1912 -0.0291 -0.1934
   52MOL   C34024922   1.482   1.500   0.052  0.3014  0.4976  0.3311
   52MOL   C34124923   1.613   1.581   0.081  0.6666  0.6600 -0.2049
   52MOL   C34224924   1.659   1.567   0.226  0.0101 -0.0494  1.1736
   52MOL   O34324925   1.769   1.651   0.235  0.1318 -0.3053 -0.3310
   52MOL   C34424926   1.830   1.671   0.357 -0.0165  0.0444  0.3456
   52MOL   O34524927   1.784   1.649   0.470  0.6186  0.0616 -0.4787
   52MOL   C34624928   1.969   1.729   0.339  0.0265  0.7202  0.4535
   52MOL   C34724929   2.051   1.696   0.462  0.5476  0.0599 -0.8856
   52MOL   C34824930   2.096   1.822   0.540 -0.2012  0.6503 -0.3030
   52MOL   O34924931   2.110   1.932   0.489 -0.1554  0.2043 -0.0713
   52MOL   H35024932   1.408   1.634   7.763  2.3749 -0.0542 -1.9926
   52MOL   H35124933   1.326   1.481   7.781  0.2183  0.0823 -1.7659
   52MOL   H35224934   1.497   1.393   0.063  0.6157  0.6282  1.1526
   52MOL   H35324935   1.411   1.526   0.130  0.7047 -0.6343  1.0755
   52MOL   H35424936   1.592   1.688   0.068 -1.2274  0.3031 -0.2093
   52MOL   H35524937   1.687   1.552   0.007  0.0909 -0.8484 -0.2040
   52MOL   H35624938   1.578   1.593   0.294 -1.9916 -1.1801 -0.7113
   52MOL   H35724939   1.686   1.462   0.242 -0.6039 -0.1791  1.3619
   52MOL   H35824940   1.958   1.836   0.325  0.1806  0.3900 -2.4850
   52MOL   H35924941   2.005   1.683   0.247  1.5311  2.0841  0.3397
   52MOL   H36024942   1.998   1.629   0.529 -0.0970 -1.2073 -2.6294
   52MOL   H36124943   2.137   1.637   0.430 -0.1310 -0.9862 -0.7854
   52MOL   O36224944   2.135   1.787   0.669 -0.4902  0.9680  0.1693
   52MOL   C36324945   2.189   1.878   0.769  0.4194 -0.2363  0.3230
   52MOL   C36424946   2.321   1.822   0.823  0.4757 -0.3306 -0.1493
   52MOL   C36524947   2.370   1.891   0.951  0.0958  1.0681 -0.0229
   52MOL   C36624948   2.279   1.858   1.072  0.1073  0.5433 -0.1255
   52MOL   O36724949   2.151   1.923   1.079  0.0322  0.6830 -0.4070
   52MOL   C36824950   2.084   1.922   1.193 -0.0000 -0.4192 -0.1833
   52MOL   O36924951   2.094   1.840   1.281 -0.0324  0.0080  0.1003
   52MOL   C37024952   1.969   2.027   1.202 -0.2943  0.0101 -0.1845
   52MOL   C37124953   1.826   1.962   1.205 -0.1575 -0.0194  0.3909
   52MOL   C37224954   1.747   1.998   1.330  0.6691 -0.0015 -0.1136
   52MOL   O37324955   1.632   2.045   1.322 -0.1588  0.1559  0.5130
   52MOL   H37424956   2.217   1.975   0.725  2.3786 -0.8526  0.1633
   52MOL   H37524957   2.126   1.897   0.856 -0.5526  1.8026 -0.7660
   52MOL   H37624958   2.395   1.840   0.745 -0.3750  1.2438 -0.6304
   52MOL   H37724959   2.309   1.716   0.843  2.8414 -0.5764  0.0924
   52MOL   H37824960   2.367   1.999   0.935  1.7724  1.0781 -0.3812
   52MOL   H37924961   2.474   1.860   0.966  0.1070  1.0462 -0.1432
   52MOL   H38024962   2.251   1.753   1.084 -1.8082  0.8158 -1.8523
   52MOL   H38124963   2.333   1.878   1.164 -1.7528  0.2177  1.0772
   52MOL   H38224964   1.971   2.096   1.118 -1.6176 -0.7816 -0.8809
   52MOL   H38324965   1.990   2.094   1.286  2.3926 -0.9703 -0.0104
   52MOL   H38424966   1.768   1.987   1.117  0.5399  0.9243  0.1989
   52MOL   H38524967   1.835   1.854   1.212  1.1778  0.2102  2.7417
   52MOL   O38624968   1.811   1.965   1.445 -0.4530 -0.0187 -0.2075
   52MOL   C38724969   1.756   2.013   1.572 -0.4632  0.1364 -0.0267
   52MOL   C38824970   1.804   1.928   1.687  0.6949  0.6137  0.1687
   52MOL   C38924971   1.956   1.957   1.707  0.6574  0.6797  0.1058
   52MOL   C39024972   2.009   1.872   1.832  0.0097 -0.7329  0.7915
   52MOL   O39124973   1.952   1.918   1.955 -0.2659 -0.0355 -0.1750
   52MOL   C39224974   1.990   2.041   2.002 -0.1468  0.5969  0.4990
   52MOL   O39324975   2.061   2.130   1.958 -0.1404  0.0164 -0.1789
   52MOL   C39424976   1.919   2.058   2.141  0.4832 -0.1724 -0.1424
   52MOL   C39524977   1.767   2.070   2.138 -0.2259 -0.1558 -0.0713
   52MOL   C39624978   1.733   2.209   2.087  0.3094 -0.3846  0.3251
   52MOL   O39724979   1.742   2.311   2.157  0.5288  0.4468  0.5191
   52MOL   H39824980   1.775   2.119   1.585  2.1211 -0.1577 -1.0832
   52MOL   H39924981   1.648   1.997   1.564 -0.2887 -1.5107  0.7138
   52MOL   H40024982   1.778   1.824   1.669  1.3015 -0.0129  2.8162
   52MOL   H40124983   1.745   1.965   1.770 -2.1832 -1.3858 -0.9149
   52MOL   H40224984   1.975   2.064   1.715  2.0240  0.5391 -1.1049
   52MOL   H40324985   2.015   1.922   1.623  0.8594  1.0622  0.0912
   52MOL   H40424986   2.001   1.764   1.822 -2.7319 -0.5615  0.6487
   52MOL   H40524987   2.117   1.886   1.830 -0.0728 -0.3242 -1.0322
   52MOL   H40624988   1.965   2.148   2.183  0.4124 -0.6711  1.0299
   52MOL   H40724989   1.944   1.967   2.194  0.4807 -0.0839  0.0110
   52MOL   H40824990   1.727   1.999   2.066  1.2263  1.4562 -2.5410
   52MOL   H40924991   1.721   2.053   2.235 -0.0980  0.2021  0.0555
   52MOL   O41024992   1.704   2.204   1.947  0.7430  0.0857 -0.2869
   52MOL   C41124993   1.666   2.326   1.883 -0.1276  0.5045 -0.9417
   52MOL   C41224994   1.783   2.369   1.796  0.2758 -0.4946  0.0288
   52MOL   C41324995   1.898   2.429   1.882 -0.2343 -0.3430  0.0518
   52MOL   C41424996   2.012   2.491   1.797  0.2111 -0.3520  1.1591
   52MOL   O41524997   2.105   2.384   1.779  0.0945  0.4224  0.2577
   52MOL   C41624998   2.102   2.314   1.664 -0.3017  0.3561 -0.5464
   52MOL   O41724999   2.029   2.334   1.565  0.2290  0.1535 -0.2269
   52MOL   C41825000   2.211   2.201   1.672 -0.3215 -0.7062  0.7696
   52MOL   C41925001   2.254   2.145   1.536 -0.2608  0.6810 -0.7294
   52MOL   C42025002   2.408   2.111   1.532  0.2461 -0.8041 -0.1069
   52MOL   O42125003   2.465   2.067   1.635  0.0500 -0.1347  0.0291
   52MOL   H42225004   1.576   2.307   1.824 -0.2535 -0.8362 -0.3225
   52MOL   H42325005   1.655   2.395   1.967  2.1104  0.3116 -0.4565
   52MOL   H42425006   1.734   2.444   1.735  1.0487 -1.0520 -1.2880
   52MOL   H42525007   1.827   2.293   1.731 -1.9706 -2.1831  0.4358
   52MOL   H42625008   1.939   2.351   1.946  0.2980 -2.4377 -2.7266
   52MOL   H42725009   1.863   2.505   1.952 -0.4366 -1.1715  0.8500
   52MOL   H42825010   1.978   2.548   1.710 -0.3780 -1.1449  0.8657
   52MOL   H42925011   2.068   2.569   1.849  0.8498  0.5734 -0.8724
   52MOL   H43025012   2.181   2.122   1.741 -3.3889 -0.2636  0.0250
   52MOL   H43125013   2.289   2.250   1.731 -3.0719  3.0573  1.4177
   52MOL   H43225014   2.195   2.056   1.518  0.6774 -0.4665  1.5996
   52MOL   H43325015   2.225   2.211   1.454 -0.8230  1.5106  0.1179
   52MOL   O43425016   2.469   2.138   1.413 -0.0702  0.2286  0.5372
   52MOL   C43525017   2.610   2.133   1.398 -0.0842  0.3228  0.3641
   52MOL   C43625018   2.649   2.147   1.251 -0.8873 -0.6369  0.5933
   52MOL   C43725019   2.679   2.003   1.187  0.7244  0.6090 -0.6025
   52MOL   C43825020   2.729   2.013   1.045  0.1122 -0.0369  0.5602
   52MOL   O43925021   2.756   1.887   0.991  0.4705  0.1063  0.7448
   52MOL   C44025022   2.762   1.869   0.856  0.2953 -0.2253  0.6355
   52MOL   O44125023   2.751   1.961   0.771  0.7615  0.1920  0.0569
   52MOL   C44225024   2.797   1.725   0.828 -1.2316  0.2302 -0.3580
   52MOL   C44325025   2.948   1.707   0.826  0.6407 -0.0393  0.6579
   52MOL   C44425026   2.999   1.576   0.899 -0.7481  0.6941  0.0190
   52MOL   O44525027   3.116   1.571   0.944 -0.5169  0.2337 -0.4392
   52MOL   H44625028   2.652   2.214   1.458  0.0284  0.3410  0.2603
   52MOL   H44725029   2.639   2.038   1.443 -1.6602 -1.0711 -1.5104
   52MOL   H44825030   2.741   2.204   1.239 -1.0153 -0.9943 -2.4391
   52MOL   H44925031   2.579   2.217   1.205 -0.5823 -1.3391 -0.9788
   52MOL   H45025032   2.588   1.945   1.191 -0.3006  2.2239  0.1601
   52MOL   H45125033   2.757   1.946   1.238  0.1640 -1.9263 -2.5553
   52MOL   H45225034   2.648   2.061   0.991 -1.1269 -0.5895  1.9190
   52MOL   H45325035   2.823   2.069   1.048  0.7607 -0.8917 -2.0638
   52MOL   H45425036   2.755   1.704   0.729 -0.7402  1.7163 -0.8989
   52MOL   H45525037   2.755   1.664   0.908 -0.4814  0.3802  0.1557
   52MOL   H45625038   2.977   1.706   0.721 -1.2110  1.9723  0.0978
   52MOL   H45725039   2.995   1.789   0.881  0.4404  1.3153 -1.1532
   52MOL   O45825040   2.906   1.482   0.910 -0.2563  0.3242 -0.1283
   52MOL   C45925041   2.939   1.351   0.966 -0.6479  0.0087  0.1126
   52MOL   C46025042   2.851   1.303   1.077 -0.0793  0.2789  0.1122
   52MOL   C46125043   2.893   1.166   1.122 -0.2267  0.3223  0.0898
   52MOL   C46225044   2.792   1.087   1.200  0.4948  0.3421  0.0332
   52MOL   O46325045   2.841   0.963   1.239  0.3019 -0.2469  0.6304
   52MOL   C46425046   2.757   0.857   1.241  0.0677 -0.0374 -0.1035
   52MOL   O46525047   2.640   0.852   1.204  0.4891 -0.5287 -0.2283
   52MOL   C46625048   2.826   0.742   1.308 -0.0201 -0.6656 -0.2251
   52MOL   C46725049   2.836   0.756   1.462  0.2105  0.1464 -0.8814
   52MOL   C46825050   2.705   0.722   1.536  0.0174 -1.2028  0.0913
   52MOL   O46925051   2.645   0.612   1.532 -0.0297  0.3252  0.0280
   52MOL   H47025052   2.936   1.291   0.875  1.9541  1.7140 -1.1858
   52MOL   H47125053   3.038   1.354   1.012  0.2595  0.8844 -1.8096
   52MOL   H47225054   2.745   1.308   1.051  0.0468 -0.0568 -0.4597
   52MOL   H47325055   2.868   1.376   1.157 -2.1642 -0.1084  0.9264
   52MOL   H47425056   2.983   1.172   1.183 -0.1283 -0.1826 -0.0085
   52MOL   H47525057   2.924   1.108   1.035  0.3645 -1.4085  1.4479
   52MOL   H47625058   2.768   1.140   1.292  0.3085 -1.5890  1.1301
   52MOL   H47725059   2.701   1.082   1.140 -0.0720 -0.0660  0.9133
   52MOL   H47825060   2.930   0.737   1.275  0.2759  1.7961  0.2437
   52MOL   H47925061   2.783   0.645   1.287 -1.2095  0.4561 -3.2550
   52MOL   H48025062   2.921   0.699   1.500  0.1743  0.0583 -0.9348
   52MOL   H48125063   2.866   0.859   1.480  3.1001 -0.7134 -0.5241
   52MOL   H48225064   2.662   0.806   1.592 -1.8219 -1.3656 -1.0277
   53MOL     O125065   3.179   2.307   5.057  0.3090 -0.4324 -0.6187
   53MOL     C225066   3.086   2.380   4.984  0.0239 -0.0719  0.1711
   53MOL     C325067   3.138   2.409   4.846  0.7287 -0.0990 -0.0895
   53MOL     C425068   3.195   2.292   4.764 -0.3624  0.1946  0.6543
   53MOL     C525069   3.097   2.172   4.763  0.0536  0.1532  0.1665
   53MOL     O625070   3.158   2.063   4.700  0.3003 -0.2978 -0.3433
   53MOL     C725071   3.120   2.027   4.575  0.2429  0.0420 -0.3508
   53MOL     O825072   3.017   2.063   4.519 -0.3159 -0.7610 -0.4214
   53MOL     C925073   3.211   1.927   4.514  0.2627 -0.5587 -0.3138
   53MOL    C1025074   3.332   1.994   4.454 -0.0711  0.0538 -0.2112
   53MOL    C1125075   3.425   1.886   4.393 -0.1595 -0.1954  0.6329
   53MOL    O1225076   3.431   1.859   4.273 -0.4362 -0.2976 -0.1185
   53MOL    H1325077   2.991   2.327   4.987 -0.7549  1.2946  0.1309
   53MOL    H1425078   3.074   2.479   5.027 -1.9575 -1.0629  2.0186
   53MOL    H1525079   3.209   2.491   4.858  0.6677 -0.2466  1.4452
   53MOL    H1625080   3.057   2.460   4.795  0.2187  0.1082  0.9236
   53MOL    H1725081   3.298   2.281   4.798 -0.2474 -0.0268  0.2366
   53MOL    H1825082   3.211   2.316   4.659 -1.6707  0.8709  0.6034
   53MOL    H1925083   3.071   2.143   4.865 -1.3082  1.0458  0.0958
   53MOL    H2025084   3.000   2.207   4.726  1.0684  3.5565  0.5278
   53MOL    H2125085   3.149   1.883   4.436 -2.3949  1.3727  0.6185
   53MOL    H2225086   3.232   1.847   4.585  2.3715 -0.3172 -0.6410
   53MOL    H2325087   3.305   2.070   4.380 -0.6103  0.5445  0.4887
   53MOL    H2425088   3.389   2.052   4.526  1.5525  0.5458 -1.8320
   53MOL    H2525089   3.216   2.237   5.005  2.3187 -0.6526  1.0752
   53MOL    O2625090   3.497   1.823   4.479 -0.3155  0.2078  0.0079
   53MOL    C2725091   3.583   1.710   4.439 -0.0743  0.2898  0.1094
   53MOL    C2825092   3.633   1.617   4.551 -0.6989 -0.6183  0.4763
   53MOL    C2925093   3.731   1.689   4.645 -0.0598 -0.1891  0.3953
   53MOL    C3025094   3.857   1.728   4.572  0.0504 -1.0750 -0.5927
   53MOL    O3125095   3.938   1.626   4.515  0.7324 -0.5314  0.2370
   53MOL    C3225096   4.044   1.665   4.457  0.0872 -0.5490  0.3356
   53MOL    O3325097   4.085   1.781   4.445 -0.3402 -0.0036  0.1162
   53MOL    C3425098   4.115   1.541   4.398 -0.1656 -0.7809 -0.4741
   53MOL    C3525099   4.243   1.581   4.316  0.6569  0.2877 -0.3349
   53MOL    C3625100   4.215   1.603   4.163  0.2726  0.6237 -0.0902
   53MOL    O3725101   4.221   1.516   4.078  0.6562  0.6332  0.2648
   53MOL    H3825102   3.519   1.655   4.371  0.5542 -1.9419  1.2882
   53MOL    H3925103   3.667   1.747   4.380 -0.5688 -0.9216 -1.3863
   53MOL    H4025104   3.689   1.543   4.493  0.4269  1.1700 -0.7432
   53MOL    H4125105   3.552   1.554   4.589 -0.7172 -0.8058  0.1312
   53MOL    H4225106   3.753   1.614   4.722  0.4447 -1.2047 -0.7147
   53MOL    H4325107   3.688   1.776   4.694 -0.9132 -1.9745  2.9617
   53MOL    H4425108   3.826   1.801   4.497  0.2394 -0.9861 -0.5855
   53MOL    H4525109   3.921   1.771   4.649  1.8558 -2.8724 -1.0412
   53MOL    H4625110   4.043   1.485   4.339 -0.1572 -0.4692 -0.7845
   53MOL    H4725111   4.145   1.480   4.484  1.9125  0.3107 -0.3777
   53MOL    H4825112   4.303   1.662   4.358  0.0186  0.0836  0.9937
   53MOL    H4925113   4.315   1.499   4.320  0.6658  0.3602  1.9811
   53MOL    O5025114   4.166   1.725   4.143  0.4629 -0.8573 -0.0540
   53MOL    C5125115   4.134   1.780   4.014 -0.0878  0.2626  0.5771
   53MOL    C5225116   3.988   1.747   3.971  0.1218 -0.4026 -0.2506
   53MOL    C5325117   3.881   1.807   4.072  0.5840 -0.5511 -0.1356
   53MOL    C5425118   3.770   1.878   4.000  0.1133  0.0672  0.1193
   53MOL    O5525119   3.815   1.976   3.913 -1.0872 -0.6980  0.3617
   53MOL    C5625120   3.729   2.073   3.867  0.5708  0.1657  0.4388
   53MOL    O5725121   3.608   2.059   3.865 -0.1184  0.8608  0.0758
   53MOL    C5825122   3.792   2.199   3.802  0.2711  0.6127  0.4224
   53MOL    C5925123   3.912   2.250   3.893 -0.0050 -0.3631 -0.0608
   53MOL    C6025124   3.900   2.399   3.930  0.3449 -0.5713 -0.3906
   53MOL    O6125125   3.829   2.438   4.020  0.3034 -0.1906 -0.0295
   53MOL    H6225126   4.139   1.889   4.015  0.3603  0.2375  1.9202
   53MOL    H6325127   4.191   1.742   3.929 -1.0991  1.2942 -0.5835
   53MOL    H6425128   3.976   1.640   3.954  1.4030 -0.4456 -0.9196
   53MOL    H6525129   3.976   1.789   3.871 -2.1353 -2.5681 -0.9340
   53MOL    H6625130   3.916   1.863   4.159 -2.5644  0.1161  0.7730
   53MOL    H6725131   3.839   1.721   4.124 -0.0526  0.8727  1.7493
   53MOL    H6825132   3.706   1.807   3.948  2.4195  0.5615 -3.5428
   53MOL    H6925133   3.709   1.920   4.079  0.8513 -0.4193  0.9670
   53MOL    H7025134   3.717   2.278   3.790  0.8532  0.9397 -1.0943
   53MOL    H7125135   3.835   2.173   3.706 -1.6681 -2.3105  0.2825
   53MOL    H7225136   3.919   2.179   3.976 -0.9944  0.2172  0.5316
   53MOL    H7325137   4.000   2.229   3.833  0.0522 -2.1233  0.6261
   53MOL    O7425138   3.956   2.482   3.838 -0.0219  0.0415 -0.4818
   53MOL    C7525139   3.946   2.625   3.855 -0.1201  0.1238 -0.5894
   53MOL    C7625140   4.079   2.698   3.845 -0.1131 -0.3136  0.1579
   53MOL    C7725141   4.197   2.626   3.915 -0.5029  0.2810  0.2735
   53MOL    C7825142   4.331   2.712   3.911 -0.4303  0.1453  0.5287
   53MOL    O7925143   4.437   2.632   3.958 -0.5569  0.1265 -0.7352
   53MOL    C8025144   4.463   2.613   4.094  0.6021  0.2626 -0.5263
   53MOL    O8125145   4.383   2.647   4.184  0.2629 -0.6081  0.3167
   53MOL    C8225146   4.580   2.529   4.122  0.2351 -0.1779 -0.1453
   53MOL    C8325147   4.584   2.473   4.272  0.4103 -0.0377  0.3579
   53MOL    C8425148   4.674   2.538   4.375 -0.2531 -0.5651 -0.7403
   53MOL    O8525149   4.728   2.646   4.358  0.2549  0.2183 -0.1803
   53MOL    H8625150   3.878   2.650   3.773  0.6903  2.0313 -0.6922
   53MOL    H8725151   3.907   2.647   3.954  0.6138  2.5287 -0.7954
   53MOL    H8825152   4.069   2.799   3.884  0.3926 -0.9271  1.8995
   53MOL    H8925153   4.100   2.706   3.738 -0.9852  1.5225  0.0931
   53MOL    H9025154   4.216   2.534   3.861 -0.5208 -0.1605  1.0192
   53MOL    H9125155   4.170   2.590   4.014 -0.2572  1.7179  0.8875
   53MOL    H9225156   4.344   2.741   3.807 -1.6134 -1.2066 -0.0264
   53MOL    H9325157   4.314   2.798   3.976 -1.7339  0.8104 -0.6736
   53MOL    H9425158   4.661   2.596   4.094  0.0290  0.3915  0.6147
   53MOL    H9525159   4.575   2.450   4.047  0.3039 -1.2277  0.9458
   53MOL    H9625160   4.481   2.470   4.307  0.2056 -2.0344 -0.3388
   53MOL    H9725161   4.630   2.374   4.265  1.9153  0.6798 -0.1219
   53MOL    O9825162   4.678   2.464   4.486  0.0195  0.2452  0.4769
   53MOL    C9925163   4.757   2.502   4.601  0.6607  0.1088  0.3915
   53MOL   C10025164   4.659   2.537   4.712  0.2303 -0.0229 -0.1255
   53MOL   C10125165   4.732   2.550   4.848 -0.0707 -0.1498 -0.0806
   53MOL   C10225166   4.646   2.616   4.953  0.1150  0.6614 -0.2100
   53MOL   O10325167   4.648   2.757   4.920 -0.0569  0.4160  0.0757
   53MOL   C10425168   4.558   2.838   4.966  0.2230 -0.2933  0.5009
   53MOL   O10525169   4.451   2.811   5.023  0.3820  0.0109 -0.1974
   53MOL   C10625170   4.598   2.980   4.938  0.0417 -0.3938  0.7348
   53MOL   C10725171   4.486   3.081   4.912  0.0409 -0.0602  0.0869
   53MOL   C10825172   4.475   3.103   4.756 -0.1431  0.0873  1.0016
   53MOL   O10925173   4.472   3.215   4.706 -0.1607 -0.1496  0.3988
   53MOL   H11025174   4.822   2.417   4.619 -0.5471 -1.1008 -0.8338
   53MOL   H11125175   4.830   2.581   4.580  0.2133  0.3465 -0.2972
   53MOL   H11225176   4.584   2.457   4.714 -2.1667  2.1569  0.4062
   53MOL   H11325177   4.601   2.625   4.685 -1.5418 -0.6664  1.4180
   53MOL   H11425178   4.827   2.597   4.823 -0.0287  0.7666  1.6859
   53MOL   H11525179   4.751   2.450   4.886  0.5532 -0.7083 -1.8155
   53MOL   H11625180   4.541   2.586   4.955  0.8695 -2.3101 -2.0043
   53MOL   H11725181   4.678   2.594   5.054  0.1438 -1.7721 -0.7271
   53MOL   H11825182   4.670   2.987   4.856 -0.1818  1.3229  0.6641
   53MOL   H11925183   4.658   3.008   5.025 -0.8153  1.2635  0.8097
   53MOL   H12025184   4.392   3.046   4.954 -0.8222  1.2651 -0.6785
   53MOL   H12125185   4.523   3.174   4.956 -0.2352  0.5032 -0.8371
   53MOL   O12225186   4.449   2.985   4.695  0.1085  0.2544 -0.1979
   53MOL   C12325187   4.406   2.985   4.559  0.2283 -0.1317  0.0774
   53MOL   C12425188   4.507   2.921   4.459  0.4986  0.3530  0.2420
   53MOL   C12525189   4.467   2.934   4.314 -0.1023  0.1870  0.3440
   53MOL   C12625190   4.491   3.079   4.269 -0.0791 -0.6068  0.2188
   53MOL   O12725191   4.622   3.126   4.288  0.5946  0.2531 -0.6903
   53MOL   C12825192   4.648   3.234   4.366 -0.7224  0.1712 -0.3115
   53MOL   O12925193   4.566   3.301   4.433 -0.3359 -0.3208  0.0788
   53MOL   C13025194   4.802   3.262   4.373 -0.1494 -0.8614 -0.3588
   53MOL   C13125195   4.852   3.384   4.300 -0.2402  0.5279 -0.7883
   53MOL   C13225196   4.925   3.478   4.390  0.1553  0.2772  0.3135
   53MOL   O13325197   5.032   3.521   4.354 -0.2072  0.2393  0.3748
   53MOL   H13425198   4.306   2.941   4.569  0.2787 -0.1661  0.4228
   53MOL   H13525199   4.386   3.086   4.524  1.0114  1.1129  3.1043
   53MOL   H13625200   4.516   2.818   4.493 -0.3945 -0.5879 -2.2653
   53MOL   H13725201   4.607   2.962   4.475  0.0818  1.3758  0.2849
   53MOL   H13825202   4.369   2.893   4.287  0.4261 -0.4278 -0.6734
   53MOL   H13925203   4.526   2.861   4.259 -0.7157 -0.9001  1.1100
   53MOL   H14025204   4.473   3.080   4.161 -1.5561 -0.9843  0.4578
   53MOL   H14125205   4.425   3.150   4.318  0.8547 -0.0681  0.7073
   53MOL   H14225206   4.844   3.177   4.320 -3.7564 -2.8272 -0.2519
   53MOL   H14325207   4.837   3.255   4.476 -0.7343  0.0302 -0.0939
   53MOL   H14425208   4.918   3.357   4.217 -0.5906 -1.6752 -0.3992
   53MOL   H14525209   4.769   3.449   4.273 -1.9337 -1.7764 -1.3073
   53MOL   O14625210   4.858   3.501   4.504 -0.0228  0.0213  0.1940
   53MOL   C14725211   4.910   3.596   4.593  0.1379 -0.5216  1.0575
   53MOL   C14825212   4.808   3.633   4.699  0.5590 -0.4156  0.2091
   53MOL   C14925213   4.742   3.522   4.778 -0.3030  0.3267  0.5833
   53MOL   C15025214   4.669   3.561   4.902 -0.2360  0.1465 -0.3232
   53MOL   O15125215   4.756   3.593   5.006  0.3721  0.0232  0.7539
   53MOL   C15225216   4.806   3.502   5.085 -0.2859  0.8046 -0.1102
   53MOL   O15325217   4.766   3.385   5.081  0.0777 -0.6372  0.5375
   53MOL   C15425218   4.913   3.549   5.187 -0.0337  0.1704  0.3044
   53MOL   C15525219   5.021   3.636   5.120  0.3133 -0.3680  0.1914
   53MOL   C15625220   5.136   3.553   5.065 -0.8028  0.3769  0.2593
   53MOL   O15725221   5.243   3.528   5.122 -0.0031 -0.0208  0.4058
   53MOL   H15825222   4.995   3.546   4.639 -0.0411 -4.1076 -2.2642
   53MOL   H15925223   4.948   3.684   4.542  1.3899 -2.1815 -0.9432
   53MOL   H16025224   4.732   3.692   4.648  0.0356 -1.1846  0.0870
   53MOL   H16125225   4.861   3.704   4.761  1.0463 -0.0733 -0.5935
   53MOL   H16225226   4.814   3.446   4.807  0.0285 -0.4278 -2.0712
   53MOL   H16325227   4.674   3.477   4.706  0.1642 -2.1187  1.5887
   53MOL   H16425228   4.618   3.657   4.894  1.1465  0.9493  0.2104
   53MOL   H16525229   4.601   3.482   4.935  1.8932 -1.5023  0.2271
   53MOL   H16625230   4.953   3.451   5.211 -2.3716 -1.0618 -0.6340
   53MOL   H16725231   4.872   3.594   5.278  0.9834  1.1014  0.3155
   53MOL   H16825232   4.971   3.699   5.046 -1.3924 -0.4022  1.2898
   53MOL   H16925233   5.080   3.700   5.186  1.1749 -3.7432  2.8212
   53MOL   O17025234   5.103   3.492   4.951 -0.3477 -0.3972  0.4434
   53MOL   C17125235   5.192   3.408   4.876 -0.4187  0.4385 -0.4001
   53MOL   C17225236   5.106   3.319   4.789  0.5422 -0.4015  0.3917
   53MOL   C17325237   5.072   3.184   4.839  0.0336 -0.5387  0.2339
   53MOL   C17425238   4.956   3.113   4.766  0.0725  0.4934 -0.7242
   53MOL   O17525239   4.994   3.071   4.633 -0.0662 -0.2442  0.2403
   53MOL   C17625240   4.926   2.958   4.591  0.2729 -0.6837 -0.2045
   53MOL   O17725241   4.865   2.882   4.663 -0.3439  0.3552 -0.1374
   53MOL   C17825242   4.956   2.932   4.446 -0.1105  0.0525 -0.7658
   53MOL   C17925243   5.081   2.832   4.444 -0.6875 -0.5361 -0.4485
   53MOL   C18025244   5.213   2.904   4.414  0.0238  0.3200  0.3827
   53MOL   O18125245   5.224   3.023   4.411  0.1759  0.4542  0.2345
   53MOL   H18225246   5.269   3.466   4.825  0.3828 -0.2654 -0.0039
   53MOL   H18325247   5.260   3.357   4.945 -0.9701 -0.8607 -0.7957
   53MOL   H18425248   5.161   3.311   4.696  0.1563  0.1714  0.1073
   53MOL   H18525249   5.015   3.373   4.762  0.3932 -0.6188  0.4523
   53MOL   H18625250   5.055   3.185   4.947 -1.2320 -0.0771  0.0348
   53MOL   H18725251   5.164   3.125   4.828 -0.6997 -1.6943  0.2126
   53MOL   H18825252   4.920   3.031   4.828  1.9463  1.0634  1.1645
   53MOL   H18925253   4.865   3.172   4.761 -1.0681 -1.0987  0.8168
   53MOL   H19025254   4.972   3.027   4.396 -2.4116  0.8632 -0.0495
   53MOL   H19125255   4.873   2.892   4.387 -0.0868  0.1641 -0.8748
   53MOL   H19225256   5.088   2.763   4.528 -0.2861  0.5230  0.3999
   53MOL   H19325257   5.058   2.769   4.359 -2.3935 -2.0067  1.0589
   53MOL   O19425258   5.314   2.817   4.397  0.3663  0.6813 -0.1527
   53MOL   C19525259   5.449   2.853   4.389 -0.1974 -0.2569 -0.1291
   53MOL   C19625260   5.513   2.787   4.259  0.2413 -0.2365 -0.6418
   53MOL   C19725261   5.651   2.844   4.220  1.1038 -0.6040 -0.3882
   53MOL   C19825262   5.694   2.775   4.098  0.0651 -0.5352  0.7043
   53MOL   O19925263   5.711   2.638   4.108  0.6138 -0.0106  0.0073
   53MOL   C20025264   5.832   2.589   4.147  0.6733  0.1606 -0.6324
   53MOL   O20125265   5.927   2.655   4.191 -0.6157  0.2541  0.8421
   53MOL   C20225266   5.844   2.437   4.121  0.4644  0.1761 -0.2927
   53MOL   C20325267   5.902   2.417   3.977  0.1372  0.0061 -0.1049
   53MOL   C20425268   5.809   2.456   3.859  0.2390  0.2905 -0.2418
   53MOL   O20525269   5.847   2.538   3.775 -0.0512 -0.1354  0.5475
   53MOL   H20625270   5.450   2.961   4.371  2.8018 -0.5199 -1.9546
   53MOL   H20725271   5.492   2.835   4.487 -0.1004  1.8584  0.2521
   53MOL   H20825272   5.441   2.809   4.181  0.4416  1.7724 -0.2994
   53MOL   H20925273   5.534   2.681   4.271  0.8480 -0.4027 -3.0885
   53MOL   H21025274   5.729   2.827   4.294  1.6102 -0.5999 -0.9129
   53MOL   H21125275   5.637   2.952   4.214  2.1216 -0.4327  0.2868
   53MOL   H21225276   5.611   2.801   4.032  1.1235  0.1082 -0.4126
   53MOL   H21325277   5.779   2.827   4.053  0.8198 -1.1456  1.3955
   53MOL   H21425278   5.747   2.390   4.139  1.4076 -1.2923  1.2266
   53MOL   H21525279   5.910   2.382   4.189  0.0951 -0.0676 -0.1306
   53MOL   H21625280   5.994   2.476   3.974  2.6145 -3.4673  3.1091
   53MOL   H21725281   5.918   2.311   3.960  0.6121  0.4712 -2.7707
   53MOL   O21825282   5.681   2.408   3.871  0.2330 -0.2266  0.1216
   53MOL   C21925283   5.585   2.437   3.772  0.3623  0.4488  0.1449
   53MOL   C22025284   5.587   2.334   3.666  0.8678 -0.3127  0.6154
   53MOL   C22125285   5.542   2.199   3.718 -0.7349  0.4949  0.6990
   53MOL   C22225286   5.543   2.082   3.612  0.1716 -0.0141  0.0729
   53MOL   O22325287   5.522   1.963   3.678 -0.6698 -0.5348  0.4965
   53MOL   C22425288   5.581   1.848   3.633 -0.0762  0.4323 -1.1082
   53MOL   O22525289   5.628   1.825   3.524  0.3061  0.0164 -1.4037
   53MOL   C22625290   5.585   1.744   3.745 -0.6935  0.2243  0.3235
   53MOL   C22725291   5.652   1.608   3.697  0.5961  0.2453 -0.5275
   53MOL   C22825292   5.787   1.579   3.754 -1.0652 -0.7918 -0.2271
   53MOL   O22925293   5.885   1.552   3.684 -0.1386  0.0101  0.3761
   53MOL   H23025294   5.491   2.456   3.823  0.4393 -0.7370  0.7504
   53MOL   H23125295   5.618   2.531   3.727  2.4087 -0.9217 -1.3293
   53MOL   H23225296   5.684   2.319   3.619  0.5858 -0.3024  0.0258
   53MOL   H23325297   5.533   2.367   3.577 -0.4077 -1.1903  1.0546
   53MOL   H23425298   5.443   2.205   3.763 -0.4662 -1.7798  1.6585
   53MOL   H23525299   5.611   2.158   3.792  1.3096  1.1591 -0.7737
   53MOL   H23625300   5.458   2.108   3.549 -0.6808  3.0571  2.3744
   53MOL   H23725301   5.636   2.078   3.556  0.4079 -4.0508  0.6105
   53MOL   H23825302   5.480   1.719   3.760 -0.1800 -2.6704 -0.6401
   53MOL   H23925303   5.617   1.784   3.841 -1.0456 -0.4609  0.7321
   53MOL   H24025304   5.583   1.526   3.714  0.9700  0.5368  2.8026
   53MOL   H24125305   5.655   1.599   3.588  0.5829 -0.0716 -0.5033
   53MOL   O24225306   5.783   1.581   3.884 -0.2125  0.1824 -0.3946
   53MOL   C24325307   5.896   1.545   3.959 -0.9398  0.6001  0.1998
   53MOL   C24425308   5.879   1.607   4.090 -0.3222  0.0986 -0.2876
   53MOL   C24525309   5.977   1.538   4.187 -0.4555  0.8016 -0.4024
   53MOL   C24625310   5.918   1.419   4.265 -0.0635  0.0633 -0.3127
   53MOL   O24725311   5.842   1.329   4.183  0.4179  0.1661 -0.0820
   53MOL   C24825312   5.907   1.226   4.133 -0.3674 -0.1030 -0.3802
   53MOL   O24925313   6.029   1.214   4.132 -0.3259  0.5159 -0.3329
   53MOL   C25025314   5.817   1.133   4.042  0.2105 -0.3137 -0.6054
   53MOL   C25125315   5.898   1.019   3.988 -0.3111  0.5263  0.2174
   53MOL   C25225316   5.856   0.994   3.843  0.3218  0.5178 -0.1085
   53MOL   O25325317   5.824   0.883   3.803  0.0144 -0.2130 -0.2801
   53MOL   H25425318   5.900   1.437   3.973 -0.6131  0.5289 -0.4299
   53MOL   H25525319   5.987   1.554   3.899 -2.0322 -0.5281 -1.6934
   53MOL   H25625320   5.775   1.599   4.120 -0.4321  2.1027 -0.0898
   53MOL   H25725321   5.902   1.714   4.088  1.1302 -0.1115  2.7691
   53MOL   H25825322   6.014   1.618   4.251 -0.7991  0.5452  0.1153
   53MOL   H25925323   6.067   1.512   4.132  2.6881  1.3543  4.2414
   53MOL   H26025324   6.002   1.370   4.314 -0.2394  1.0493  1.0057
   53MOL   H26125325   5.862   1.469   4.344 -1.9770 -2.1035 -0.2654
   53MOL   H26225326   5.767   1.186   3.961  0.8660 -2.4331 -2.4205
   53MOL   H26325327   5.755   1.099   4.125 -0.6788  0.8772 -0.7688
   53MOL   H26425328   6.004   1.040   3.991 -0.1678  0.1320 -1.3423
   53MOL   H26525329   5.873   0.923   4.034 -1.0317  1.3100  1.4659
   53MOL   O26625330   5.865   1.105   3.765  0.0228 -0.1764 -0.4002
   53MOL   C26725331   5.791   1.119   3.642  0.2218 -0.0714  0.0696
   53MOL   C26825332   5.637   1.134   3.670  0.1846  0.2258 -0.4771
   53MOL   C26925333   5.562   1.212   3.552 -0.2126  0.0129 -0.6322
   53MOL   C27025334   5.415   1.221   3.575  0.2207 -0.0277 -0.3178
   53MOL   O27125335   5.347   1.093   3.564 -0.3292  0.2743 -0.5331
   53MOL   C27225336   5.275   1.055   3.450 -0.5620 -0.3738  0.8021
   53MOL   O27325337   5.273   1.119   3.346 -0.0567 -0.2195 -0.7332
   53MOL   C27425338   5.195   0.926   3.474 -0.4822 -0.1941 -0.2257
   53MOL   C27525339   5.115   0.919   3.609  0.0560  0.8593  0.2399
   53MOL   C27625340   4.986   1.003   3.605 -0.0758 -0.3960 -0.4323
   53MOL   O27725341   4.936   1.035   3.498  0.7495 -0.6994  0.0791
   53MOL   H27825342   5.831   1.212   3.602 -0.8713  0.3480 -0.0613
   53MOL   H27925343   5.825   1.039   3.577  2.3327 -1.9147  3.2919
   53MOL   H28025344   5.628   1.185   3.766 -1.4617  2.0314 -1.5540
   53MOL   H28125345   5.596   1.035   3.686  1.2451  0.2285  2.6036
   53MOL   H28225346   5.581   1.173   3.452 -1.4350  0.1242 -0.9217
   53MOL   H28325347   5.595   1.316   3.553 -0.3524  0.0518  0.0920
   53MOL   H28425348   5.397   1.250   3.679  0.3165 -0.2855 -0.2282
   53MOL   H28525349   5.376   1.302   3.514 -2.8355 -0.1319  1.4284
   53MOL   H28625350   5.256   0.835   3.472  0.4146  0.4111 -0.3001
   53MOL   H28725351   5.130   0.912   3.387 -0.8585  2.0394 -0.3290
   53MOL   H28825352   5.084   0.815   3.622 -1.7772  1.3401 -0.1753
   53MOL   H28925353   5.172   0.942   3.698 -1.1060  1.4610  0.8409
   53MOL   O29025354   4.946   1.030   3.724  0.4013 -0.1911  0.1120
   53MOL   C29125355   4.828   1.113   3.732  0.4145 -0.0231  0.1790
   53MOL   C29225356   4.825   1.205   3.853 -0.0114 -0.2606 -0.2156
   53MOL   C29325357   4.941   1.306   3.875  0.3497 -0.6281 -0.7793
   53MOL   C29425358   4.932   1.403   3.987  0.2036 -0.7672 -0.2057
   53MOL   O29525359   4.844   1.507   3.947 -0.3636 -0.2191 -0.3307
   53MOL   C29625360   4.776   1.560   4.052  0.3580  0.9390 -0.8386
   53MOL   O29725361   4.797   1.541   4.174  0.6185 -0.1125  0.1956
   53MOL   C29825362   4.677   1.662   3.998  0.4829 -0.4093  0.4979
   53MOL   C29925363   4.545   1.659   4.079 -0.4704 -0.3225  0.5984
   53MOL   C30025364   4.494   1.809   4.095  0.4769  0.6527  0.5373
   53MOL   O30125365   4.495   1.891   4.000 -0.4421  0.4856 -0.1975
   53MOL   H30225366   4.825   1.179   3.645 -0.5211  1.2383  1.1547
   53MOL   H30325367   4.736   1.055   3.730 -0.0930  0.7824 -0.0554
   53MOL   H30425368   4.825   1.145   3.944 -0.9666  0.4282  0.2627
   53MOL   H30525369   4.736   1.269   3.848  0.3472  0.5988  3.1657
   53MOL   H30625370   4.961   1.356   3.781 -0.2784  1.6324  0.2508
   53MOL   H30725371   5.030   1.246   3.894 -1.9694 -3.5635  1.3761
   53MOL   H30825372   4.903   1.360   4.083  0.3642  0.8411  0.5871
   53MOL   H30925373   5.031   1.447   3.993 -0.3610  0.2812  1.9708
   53MOL   H31025374   4.662   1.645   3.892 -1.8455 -0.8359  0.8747
   53MOL   H31125375   4.738   1.752   4.002 -1.2043  0.7689  0.2020
   53MOL   H31225376   4.466   1.599   4.034  0.7261 -1.4862 -0.0244
   53MOL   H31325377   4.570   1.623   4.179  1.6949  1.0206  0.5863
   53MOL   O31425378   4.453   1.846   4.217 -0.2041 -0.0892  0.2678
   53MOL   C31525379   4.370   1.965   4.235 -1.2602 -0.5284 -0.3051
   53MOL   C31625380   4.341   1.997   4.383 -0.0259 -0.3421 -0.3472
   53MOL   C31725381   4.473   2.006   4.461  0.3873  0.4941  0.7811
   53MOL   C31825382   4.554   2.134   4.428  0.7645 -0.0588 -0.2408
   53MOL   O31925383   4.681   2.116   4.476 -0.7514  0.0149 -0.2120
   53MOL   C32025384   4.712   2.140   4.605  0.1676 -0.2152  0.2326
   53MOL   O32125385   4.635   2.192   4.684  0.9987  0.1102  0.5259
   53MOL   C32225386   4.848   2.098   4.652  1.0521 -0.1087  0.2167
   53MOL   C32325387   4.852   1.949   4.675  0.2017  0.6155  0.0294
   53MOL   C32425388   4.917   1.917   4.811 -1.1218  0.2015 -0.4694
   53MOL   O32525389   5.040   1.916   4.843 -0.2435  0.0415 -0.6452
   53MOL   H32625390   4.427   2.053   4.203  0.5023 -1.5062  0.1124
   53MOL   H32725391   4.280   1.959   4.175 -2.6006  0.3693  1.5662
   53MOL   H32825392   4.283   1.915   4.427 -0.4319  0.4819  0.6753
   53MOL   H32925393   4.286   2.091   4.386 -1.2884 -1.0817  0.0102
   53MOL   H33025394   4.532   1.918   4.434 -0.4416 -0.4072  1.8593
   53MOL   H33125395   4.441   2.012   4.565 -1.1236  1.5494  0.2829
   53MOL   H33225396   4.568   2.140   4.320 -0.7357  0.3924 -0.4250
   53MOL   H33325397   4.504   2.229   4.446  0.3753 -0.0052 -1.5539
   53MOL   H33425398   4.872   2.159   4.739  1.1762  3.2169 -2.0926
   53MOL   H33525399   4.913   2.122   4.569  0.9334 -0.3201  0.0618
   53MOL   H33625400   4.755   1.899   4.678  1.4881 -2.0418 -0.6867
   53MOL   H33725401   4.901   1.895   4.594 -1.5717  2.7564 -2.5297
   53MOL   O33825402   4.822   1.933   4.901  0.7287 -0.1148 -0.8892
   53MOL   C33925403   4.843   1.926   5.046 -0.0724 -0.1649 -0.3852
   53MOL   C34025404   4.747   2.032   5.119  0.4266 -0.1866 -0.0070
   53MOL   C34125405   4.770   2.179   5.083 -0.2580  0.2989  1.4200
   53MOL   C34225406   4.884   2.246   5.164 -0.4869  0.7809 -0.4613
   53MOL   O34325407   5.003   2.181   5.124  0.5107  0.3187  0.4113
   53MOL   C34425408   5.062   2.226   5.013  0.5341 -0.7086 -0.6633
   53MOL   O34525409   5.014   2.310   4.930 -0.2900  0.4042 -0.2250
   53MOL   C34625410   5.194   2.158   4.990 -0.0607 -0.8354  0.4845
   53MOL   C34725411   5.302   2.243   5.038 -0.0892  0.5087 -0.0037
   53MOL   C34825412   5.423   2.251   4.951  0.3797 -0.6313  0.0100
   53MOL   O34925413   5.522   2.180   4.962  0.2003 -0.6979  0.0877
   53MOL   H35025414   4.836   1.827   5.091 -1.2159  0.3905  0.7064
   53MOL   H35125415   4.947   1.953   5.063 -0.0740 -0.8426  0.7505
   53MOL   H35225416   4.744   2.009   5.226  0.6067 -0.7762 -0.1251
   53MOL   H35325417   4.651   2.005   5.076 -0.2517  2.1902 -0.0234
   53MOL   H35425418   4.684   2.236   5.119 -0.1788  1.4262 -0.0820
   53MOL   H35525419   4.773   2.185   4.974 -2.3052 -1.5938  1.2200
   53MOL   H35625420   4.884   2.349   5.129 -1.3178  0.1320 -2.4313
   53MOL   H35725421   4.863   2.240   5.271 -2.5916  1.0744 -0.8430
   53MOL   H35825422   5.200   2.139   4.883  0.7037  0.7031  0.2403
   53MOL   H35925423   5.192   2.059   5.034 -2.0758 -0.9709  0.1508
   53MOL   H36025424   5.268   2.346   5.049 -1.5117  0.1439 -0.9112
   53MOL   H36125425   5.342   2.211   5.135  1.1124  2.1050  0.0529
   53MOL   O36225426   5.405   2.351   4.866 -0.1251  0.2054  0.6595
   53MOL   C36325427   5.512   2.390   4.770  0.1170  0.5630  0.0285
   53MOL   C36425428   5.533   2.299   4.656  0.5725  0.1126  0.6227
   53MOL   C36525429   5.599   2.370   4.536  0.3097  0.3490  0.4094
   53MOL   C36625430   5.592   2.284   4.413 -0.1163  0.2877 -0.1492
   53MOL   O36725431   5.644   2.156   4.441 -0.1079  0.8731  0.4089
   53MOL   C36825432   5.777   2.120   4.413  0.0710  0.2242 -0.1877
   53MOL   O36925433   5.860   2.196   4.358 -0.1226  0.7222  0.1602
   53MOL   C37025434   5.819   1.980   4.462 -0.0698  0.3700  0.5526
   53MOL   C37125435   5.804   1.871   4.355 -0.0362 -0.4673  0.4275
   53MOL   C37225436   5.672   1.808   4.347  0.4925  0.1720 -0.0496
   53MOL   O37325437   5.612   1.800   4.246  0.4524 -0.1168 -0.7031
   53MOL   H37425438   5.474   2.488   4.739  0.6432  0.4687 -0.9392
   53MOL   H37525439   5.604   2.420   4.820 -0.6565  0.2108  1.6799
   53MOL   H37625440   5.429   2.276   4.630  0.4498 -1.7055  2.5314
   53MOL   H37725441   5.587   2.208   4.680  0.4868 -0.0130  0.3484
   53MOL   H37825442   5.705   2.376   4.560  0.8208  2.1004 -2.1112
   53MOL   H37925443   5.551   2.465   4.515  2.0978  1.1051 -0.3563
   53MOL   H38025444   5.489   2.268   4.382  0.4846 -5.2288  0.0960
   53MOL   H38125445   5.647   2.340   4.338  1.1495  0.1744  0.6752
   53MOL   H38225446   5.766   1.963   4.555  1.9664 -1.5305  1.4166
   53MOL   H38325447   5.924   1.994   4.487 -0.0670  0.8939  0.2682
   53MOL   H38425448   5.815   1.912   4.254 -0.5450 -0.9136  0.1842
   53MOL   H38525449   5.886   1.804   4.380  0.1521  0.5387  2.5760
   53MOL   O38625450   5.642   1.750   4.462 -0.3922 -0.2420  0.1019
   53MOL   C38725451   5.510   1.693   4.475 -0.7868  0.3488  0.8702
   53MOL   C38825452   5.401   1.794   4.521 -0.8059 -0.3973  0.7233
   53MOL   C38925453   5.449   1.877   4.647  0.7137 -0.5895 -0.2164
   53MOL   C39025454   5.331   1.960   4.715 -0.5873 -0.2215 -0.2064
   53MOL   O39125455   5.289   2.074   4.638 -0.1228 -0.2634 -0.3335
   53MOL   C39225456   5.196   2.053   4.553 -0.5099 -0.3129 -0.3789
   53MOL   O39325457   5.138   1.948   4.525  0.1919 -0.1991 -0.3109
   53MOL   C39425458   5.162   2.184   4.482 -0.3326  0.2881  0.6215
   53MOL   C39525459   5.086   2.293   4.561 -0.1204  0.0482 -0.3888
   53MOL   C39625460   5.171   2.427   4.593  0.5248  0.9153  0.9591
   53MOL   O39725461   5.270   2.452   4.529 -0.2594  0.1555  0.4572
   53MOL   H39825462   5.478   1.631   4.392  2.7935 -0.3671 -0.0397
   53MOL   H39925463   5.530   1.630   4.562  0.7278  0.9503  0.9783
   53MOL   H40025464   5.305   1.743   4.529 -1.7742  0.9608 -1.7466
   53MOL   H40125465   5.372   1.869   4.448 -4.2142  1.2840  3.6377
   53MOL   H40225466   5.533   1.941   4.621  0.7647 -0.7876 -0.5402
   53MOL   H40325467   5.479   1.802   4.720  0.7011  0.4952  0.9177
   53MOL   H40425468   5.257   1.884   4.740  1.0610 -2.1135 -0.9000
   53MOL   H40525469   5.362   2.005   4.809 -1.2479  1.6436 -0.8639
   53MOL   H40625470   5.091   2.152   4.405 -0.7015 -0.6923  1.3616
   53MOL   H40725471   5.250   2.222   4.431 -0.2805 -1.0104 -0.2953
   53MOL   H40825472   4.998   2.316   4.502 -1.4614  2.7678  2.5794
   53MOL   H40925473   5.063   2.260   4.662 -1.1961  2.3741  0.1473
   53MOL   O41025474   5.123   2.506   4.686 -0.2106  0.4699 -0.7278
   53MOL   C41125475   5.197   2.621   4.733  0.3547  0.7863  0.1056
   53MOL   C41225476   5.144   2.659   4.874  0.3938  0.3284 -0.0780
   53MOL   C41325477   5.168   2.802   4.921 -0.5078 -0.0288 -0.0179
   53MOL   C41425478   5.090   2.828   5.046  0.3351  0.8210  0.7441
   53MOL   O41525479   5.138   2.747   5.161  0.5301  0.6783  0.0689
   53MOL   C41625480   5.057   2.732   5.261 -1.0864 -0.0507 -0.4081
   53MOL   O41725481   4.952   2.804   5.279 -0.1422 -0.5748 -0.2097
   53MOL   C41825482   5.106   2.634   5.365 -0.0881 -0.3055  0.6080
   53MOL   C41925483   5.178   2.506   5.316 -0.2520  0.1656 -0.1011
   53MOL   C42025484   5.249   2.444   5.434 -0.1491  0.1972 -1.0694
   53MOL   O42125485   5.369   2.444   5.447  0.2549 -0.2812  0.2922
   53MOL   H42225486   5.305   2.616   4.743  0.3349 -2.3362 -0.9888
   53MOL   H42325487   5.178   2.707   4.669 -0.9243  0.2218 -0.2990
   53MOL   H42425488   5.202   2.601   4.946  0.1276  0.1645  0.0017
   53MOL   H42525489   5.043   2.619   4.877 -0.0906  1.6926  1.9972
   53MOL   H42625490   5.127   2.867   4.843  2.5069 -1.6119 -3.0666
   53MOL   H42725491   5.271   2.834   4.939 -0.5416 -0.3500  0.7644
   53MOL   H42825492   5.084   2.932   5.077 -0.6434  1.0752 -0.2901
   53MOL   H42925493   4.992   2.790   5.018  0.6563  0.6310 -0.1379
   53MOL   H43025494   5.025   2.612   5.435 -0.9444  1.1847  0.1231
   53MOL   H43125495   5.165   2.698   5.430  1.5827 -2.1284  0.8933
   53MOL   H43225496   5.101   2.441   5.276  0.8916 -0.6330 -1.0212
   53MOL   H43325497   5.261   2.528   5.248 -1.2001  1.2033 -0.9324
   53MOL   O43425498   5.154   2.399   5.525 -0.2632  0.6941  0.1941
   53MOL   C43525499   5.183   2.352   5.651  0.4835  0.6338  0.2734
   53MOL   C43625500   5.071   2.252   5.690 -0.8835 -0.0356 -0.1717
   53MOL   C43725501   5.040   2.135   5.590  0.5305 -0.0150 -0.7217
   53MOL   C43825502   4.893   2.079   5.612 -0.4404  0.1790 -0.2833
   53MOL   O43925503   4.806   2.166   5.556  0.3474  0.0548 -0.0197
   53MOL   C44025504   4.675   2.140   5.587 -0.6320  0.1683  0.6464
   53MOL   O44125505   4.632   2.047   5.658  0.4341  0.2351  0.0593
   53MOL   C44225506   4.576   2.235   5.520  0.2648  0.0370 -0.6927
   53MOL   C44325507   4.600   2.382   5.534  0.1035  0.6743  0.0884
   53MOL   C44425508   4.612   2.457   5.406 -0.2278  0.2068 -0.3190
   53MOL   O44525509   4.647   2.405   5.301 -0.3151 -0.5198  0.3289
   53MOL   H44625510   5.276   2.295   5.650  0.0854 -0.0041 -0.9978
   53MOL   H44725511   5.208   2.435   5.718 -0.8079  2.7090 -1.7356
   53MOL   H44825512   4.996   2.330   5.701  0.5681  1.5373 -1.2109
   53MOL   H44925513   5.080   2.213   5.792  0.9102 -0.7156 -0.5769
   53MOL   H45025514   5.112   2.054   5.597 -0.3190 -0.7211  0.0464
   53MOL   H45125515   5.046   2.183   5.493 -1.1583 -0.7552 -1.2193
   53MOL   H45225516   4.893   1.986   5.555 -0.1152 -0.0898  0.1426
   53MOL   H45325517   4.875   2.050   5.716  0.6635 -1.1480 -0.4485
   53MOL   H45425518   4.481   2.212   5.568  2.2131 -1.2729  2.6612
   53MOL   H45525519   4.562   2.207   5.415 -0.5412 -1.6271 -0.1452
   53MOL   H45625520   4.520   2.433   5.588 -1.7413 -0.3946 -1.6020
   53MOL   H45725521   4.686   2.403   5.598  0.9171 -2.1637 -0.0409
   53MOL   O45825522   4.595   2.595   5.414  0.5007  0.6837 -0.4439
   53MOL   C45925523   4.609   2.678   5.299  1.2606  0.1280 -0.1602
   53MOL   C46025524   4.588   2.825   5.332 -0.2620 -0.5094 -0.1193
   53MOL   C46125525   4.445   2.854   5.368 -0.0500  0.4950 -0.5564
   53MOL   C46225526   4.413   3.000   5.412  0.1835 -0.1925  0.0779
   53MOL   O46325527   4.466   3.094   5.324 -0.2145  0.4240 -0.4179
   53MOL   C46425528   4.419   3.225   5.327  1.0878 -0.5882  0.2826
   53MOL   O46525529   4.326   3.270   5.397  0.2584  0.3005 -0.8163
   53MOL   C46625530   4.491   3.321   5.237  0.8971 -0.3730 -0.2526
   53MOL   C46725531   4.409   3.442   5.182  0.5934  0.0516  0.1413
   53MOL   C46825532   4.449   3.573   5.245 -0.0160  0.4905  0.3546
   53MOL   O46925533   4.516   3.579   5.348  0.2689 -0.5275 -0.4757
   53MOL   H47025534   4.711   2.673   5.260  0.5611 -2.7140 -1.7721
   53MOL   H47125535   4.539   2.640   5.224  2.9907 -1.7004 -0.8839
   53MOL   H47225536   4.606   2.883   5.242 -0.1721 -0.0902  0.1693
   53MOL   H47325537   4.658   2.862   5.406 -0.5113 -0.7835  0.2586
   53MOL   H47425538   4.402   2.800   5.452 -1.1505  1.6294 -0.3768
   53MOL   H47525539   4.387   2.844   5.276 -1.5081  0.4659  0.3593
   53MOL   H47625540   4.305   3.011   5.411  0.3192  1.2378  0.6276
   53MOL   H47725541   4.460   3.016   5.509  0.0255 -2.1385  0.5108
   53MOL   H47825542   4.531   3.272   5.148  0.3599  1.3493 -1.4613
   53MOL   H47925543   4.585   3.348   5.286  2.0024 -2.6041 -1.0752
   53MOL   H48025544   4.420   3.458   5.075  0.5254  4.1799  0.6658
   53MOL   H48125545   4.301   3.433   5.198  0.4616  1.5724  0.2020
   53MOL   H48225546   4.415   3.663   5.193  1.4181  0.6008 -0.4262
   54MOL     O125547   0.752   4.453   0.760 -0.3632 -0.1245  0.4470
   54MOL     C225548   0.721   4.549   0.856  0.5044  0.3699 -0.2675
   54MOL     C325549   0.828   4.564   0.955 -0.2916  0.8532 -0.3028
   54MOL     C425550   0.819   4.459   1.064 -0.4551 -0.0402  0.4902
   54MOL     C525551   0.928   4.481   1.172 -0.3355  0.6905  0.3271
   54MOL     O625552   0.915   4.608   1.237 -0.1975 -0.9634  0.4560
   54MOL     C725553   0.999   4.625   1.342 -0.6178  1.1743  0.2016
   54MOL     O825554   1.076   4.535   1.382 -0.4626  0.1317  0.0729
   54MOL     C925555   0.994   4.766   1.398 -0.3030 -0.3232  0.6099
   54MOL    C1025556   1.099   4.800   1.511  0.9008 -0.2817 -0.6543
   54MOL    C1125557   1.204   4.892   1.460  0.1688  0.3199  0.0883
   54MOL    O1225558   1.262   4.870   1.351  0.3708  0.5954 -0.0388
   54MOL    H1325559   0.710   4.648   0.812  2.7391  0.9214  0.3302
   54MOL    H1425560   0.628   4.523   0.906  1.0488 -0.6949  0.2256
   54MOL    H1525561   0.807   4.660   1.000 -0.9669  0.6924 -0.2800
   54MOL    H1625562   0.925   4.572   0.904  0.4195  3.2209  1.3609
   54MOL    H1725563   0.830   4.359   1.020  0.5462 -0.4495  1.6521
   54MOL    H1825564   0.724   4.456   1.116 -2.4784  0.8974 -3.0200
   54MOL    H1925565   0.927   4.397   1.240 -0.7176 -1.1455 -1.8792
   54MOL    H2025566   1.025   4.478   1.122 -1.1550  3.4890 -1.5875
   54MOL    H2125567   0.897   4.772   1.448 -0.5974  0.2741 -0.0295
   54MOL    H2225568   0.987   4.834   1.314  2.8530 -1.2992 -0.4829
   54MOL    H2325569   1.053   4.845   1.599 -0.8133 -0.1472 -1.6044
   54MOL    H2425570   1.166   4.717   1.535  1.1798  0.3987  0.9705
   54MOL    H2525571   0.815   4.394   0.800 -2.3794 -1.3614  1.9366
   54MOL    O2625572   1.218   5.007   1.531 -0.0434  0.1067 -0.0718
   54MOL    C2725573   1.308   5.113   1.480 -0.9724  0.1980  0.5308
   54MOL    C2825574   1.380   5.160   1.601 -0.7978 -0.2801 -0.2272
   54MOL    C2925575   1.489   5.264   1.568 -0.3962 -0.3157 -0.6171
   54MOL    C3025576   1.564   5.315   1.699 -0.2426  0.6211 -0.4939
   54MOL    O3125577   1.665   5.401   1.659 -0.1685 -0.1707 -0.0876
   54MOL    C3225578   1.798   5.365   1.652  0.2504 -0.4289  0.3505
   54MOL    O3325579   1.835   5.247   1.667  0.3022  0.1050  0.1841
   54MOL    C3425580   1.881   5.481   1.608 -0.0880 -0.0240 -0.2913
   54MOL    C3525581   2.034   5.449   1.613  0.1448 -0.2083 -0.1836
   54MOL    C3625582   2.110   5.475   1.481 -0.2103  1.0224  0.6776
   54MOL    O3725583   2.058   5.516   1.376  0.3112  0.1038 -0.4124
   54MOL    H3825584   1.387   5.081   1.412 -2.6647 -0.9114 -0.9515
   54MOL    H3925585   1.248   5.176   1.414  1.7681  2.4494  0.1113
   54MOL    H4025586   1.419   5.071   1.649  1.1049  0.1495 -0.9569
   54MOL    H4125587   1.302   5.208   1.660 -0.0440 -1.6494  1.9106
   54MOL    H4225588   1.450   5.352   1.517  1.0528 -0.0964 -1.3889
   54MOL    H4325589   1.556   5.214   1.498  1.2484  2.4916 -1.1370
   54MOL    H4425590   1.499   5.384   1.754 -1.5137 -0.0858 -1.0947
   54MOL    H4525591   1.607   5.237   1.762 -0.5430 -0.3044 -1.4305
   54MOL    H4625592   1.855   5.568   1.668  0.5988 -0.0691  0.0760
   54MOL    H4725593   1.841   5.505   1.509 -0.3317 -0.2358 -0.2430
   54MOL    H4825594   2.087   5.522   1.675 -1.2569 -0.4088  1.2607
   54MOL    H4925595   2.059   5.345   1.635 -0.1333  0.0059  1.1435
   54MOL    O5025596   2.241   5.450   1.496 -0.6156  0.1829 -0.6157
   54MOL    C5125597   2.330   5.499   1.400 -0.3176 -0.5912  0.2338
   54MOL    C5225598   2.464   5.428   1.420  0.4615  0.0212  0.1542
   54MOL    C5325599   2.555   5.441   1.302 -0.2267 -0.1112  0.1404
   54MOL    C5425600   2.686   5.378   1.331  0.0655  0.1482  0.3841
   54MOL    O5525601   2.784   5.420   1.240  0.5562 -0.2930 -0.0604
   54MOL    C5625602   2.830   5.342   1.143  0.0262 -0.1462  0.5410
   54MOL    O5725603   2.813   5.217   1.138 -0.3301 -0.4867  0.4644
   54MOL    C5825604   2.912   5.421   1.039  0.6495 -0.2239  0.2503
   54MOL    C5925605   3.042   5.466   1.091  0.2454 -0.1410  0.1860
   54MOL    C6025606   3.132   5.488   0.978  0.1150 -0.1118 -0.1281
   54MOL    O6125607   3.152   5.599   0.941 -0.3276  0.0910 -0.4012
   54MOL    H6225608   2.290   5.490   1.299  0.2844  1.9231 -0.2611
   54MOL    H6325609   2.350   5.605   1.411  1.9999 -1.2018  2.1444
   54MOL    H6425610   2.456   5.321   1.443  0.7060 -0.1334 -0.4750
   54MOL    H6525611   2.515   5.472   1.506  0.9206  0.8325 -0.5242
   54MOL    H6625612   2.580   5.546   1.294 -0.9824  0.0285 -0.3816
   54MOL    H6725613   2.507   5.394   1.216 -0.1227  0.2106 -0.0912
   54MOL    H6825614   2.732   5.413   1.424  0.3104  0.6438  0.0820
   54MOL    H6925615   2.690   5.270   1.339 -0.7018  0.0665 -0.3892
   54MOL    H7025616   2.847   5.505   1.015 -1.4917 -2.1133 -0.7985
   54MOL    H7125617   2.930   5.344   0.964 -0.3623  1.0255 -1.3017
   54MOL    H7225618   3.024   5.557   1.149 -1.8261 -0.7739  0.5795
   54MOL    H7325619   3.097   5.396   1.154  4.3334  1.2386 -1.6669
   54MOL    O7425620   3.171   5.381   0.925 -0.7289  0.0856  0.0628
   54MOL    C7525621   3.226   5.387   0.786  0.3802 -0.1383 -0.3524
   54MOL    C7625622   3.144   5.304   0.690  0.3233  0.1862  0.3889
   54MOL    C7725623   3.167   5.157   0.713  0.0796  0.3227  0.2162
   54MOL    C7825624   3.124   5.068   0.590  0.1053 -1.1291 -1.1781
   54MOL    O7925625   3.206   5.081   0.480 -0.9843 -0.0590  0.0261
   54MOL    C8025626   3.158   5.040   0.365 -0.0546 -0.0493  0.6623
   54MOL    O8125627   3.045   4.997   0.336  0.2625 -0.3224  0.8449
   54MOL    C8225628   3.260   5.043   0.249  0.8989 -0.1871 -0.2665
   54MOL    C8325629   3.214   4.977   0.118  0.3224  0.5572 -0.5474
   54MOL    C8425630   3.306   5.009   0.004 -0.0615  0.0970  0.4784
   54MOL    O8525631   3.293   5.100   7.798  0.5643  0.5087  0.8745
   54MOL    H8625632   3.244   5.488   0.747 -1.3197  0.3475  0.0969
   54MOL    H8725633   3.326   5.344   0.796  0.0312 -0.6680  0.9265
   54MOL    H8825634   3.170   5.327   0.587  2.4334 -2.3603  0.2914
   54MOL    H8925635   3.038   5.327   0.702 -0.2624 -2.9269  1.7528
   54MOL    H9025636   3.115   5.125   0.803 -0.2536 -1.3401 -0.5589
   54MOL    H9125637   3.273   5.134   0.720 -0.1351 -0.8966 -0.3782
   54MOL    H9225638   3.127   4.967   0.631 -1.6608  0.2985  2.6958
   54MOL    H9325639   3.023   5.090   0.556 -0.0560  0.5204  0.3112
   54MOL    H9425640   3.356   5.006   0.283  0.8345  1.1270  1.3926
   54MOL    H9525641   3.276   5.149   0.229 -1.6124  0.3901  0.5635
   54MOL    H9625642   3.198   4.870   0.128  1.2186  0.1867 -2.7464
   54MOL    H9725643   3.113   5.010   0.095 -0.1602 -0.3846  0.1798
   54MOL    O9825644   3.411   4.929   0.010  0.4538 -0.2844 -0.0259
   54MOL    C9925645   3.512   4.926   7.791 -0.3167  0.3378  0.1462
   54MOL   C10025646   3.644   4.902   7.859  0.5903 -0.8120  0.1838
   54MOL   C10125647   3.684   4.763   0.015 -0.1146  0.2701 -0.6390
   54MOL   C10225648   3.820   4.745   0.093 -0.6776 -0.0333  0.7831
   54MOL   O10325649   3.813   4.786   0.225  0.2823  0.4544  0.1491
   54MOL   C10425650   3.891   4.881   0.280  0.3062  0.3317  0.2323
   54MOL   O10525651   3.965   4.954   0.223  0.4846  0.0795  0.2261
   54MOL   C10625652   3.874   4.894   0.432 -1.0833 -0.3841  0.1155
   54MOL   C10725653   3.935   5.028   0.486  0.0538 -0.7891  0.8303
   54MOL   C10825654   4.084   5.036   0.496  0.4462 -0.3698 -0.0616
   54MOL   O10925655   4.152   4.934   0.507  0.3093 -0.1127 -0.6412
   54MOL   H11025656   3.492   4.844   7.722 -0.9850 -0.3286  1.1230
   54MOL   H11125657   3.517   5.019   7.733 -1.6636  0.5803  0.4068
   54MOL   H11225658   3.645   4.972   0.068 -1.3138 -0.8017  0.2084
   54MOL   H11325659   3.716   4.946   7.790  1.6738 -2.0121  0.5412
   54MOL   H11425660   3.708   4.708   7.798  1.3283 -0.7290  0.3215
   54MOL   H11525661   3.605   4.709   0.066  0.5330  0.5634  0.6896
   54MOL   H11625662   3.850   4.641   0.082 -1.0964  0.1967 -2.9261
   54MOL   H11725663   3.902   4.797   0.044 -0.1266 -0.7087  0.9768
   54MOL   H11825664   3.920   4.810   0.485  0.5176  0.5593  0.2470
   54MOL   H11925665   3.769   4.902   0.457 -1.1546 -1.5827  0.2175
   54MOL   H12025666   3.906   5.118   0.433  0.6508 -1.6377 -0.9609
   54MOL   H12125667   3.896   5.040   0.587 -1.1534  0.6534  0.2188
   54MOL   O12225668   4.129   5.164   0.496 -0.1124  0.4094 -0.0200
   54MOL   C12325669   4.264   5.197   0.530 -0.2504  0.0302 -0.0017
   54MOL   C12425670   4.305   5.346   0.506 -0.3492  0.2706 -0.7953
   54MOL   C12525671   4.296   5.383   0.360 -0.0712 -0.6889 -0.7810
   54MOL   C12625672   4.169   5.461   0.317 -0.2540 -0.0464 -0.2892
   54MOL   O12725673   4.121   5.550   0.415  0.7907 -0.2157  0.1126
   54MOL   C12825674   3.992   5.551   0.449  0.2037 -0.5726  0.3498
   54MOL   O12925675   3.911   5.475   0.392  0.3595  0.6933 -0.0839
   54MOL   C13025676   3.944   5.658   0.549 -0.1827 -0.4423 -0.1113
   54MOL   C13125677   4.045   5.643   0.674 -0.4205  0.0324  1.1578
   54MOL   C13225678   4.003   5.563   0.790  0.4049  0.2129 -0.3362
   54MOL   O13325679   3.944   5.613   0.888 -0.0846  0.0550  0.5283
   54MOL   H13425680   4.264   5.166   0.634 -0.3285 -3.3450 -0.9446
   54MOL   H13525681   4.334   5.134   0.474 -0.5063 -0.8863  0.6933
   54MOL   H13625682   4.411   5.360   0.525  0.0749 -1.7505 -1.5582
   54MOL   H13725683   4.254   5.413   0.575 -1.0084 -0.0758 -0.9447
   54MOL   H13825684   4.288   5.292   0.301  2.4426 -1.7145  0.4078
   54MOL   H13925685   4.371   5.449   0.318  0.2086 -0.0231  0.7369
   54MOL   H14025686   4.182   5.503   0.217 -0.6490 -0.6211 -0.5860
   54MOL   H14125687   4.098   5.379   0.305 -2.2034  1.3408  1.3996
   54MOL   H14225688   3.846   5.623   0.583  0.9560 -1.4320  2.2794
   54MOL   H14325689   3.936   5.757   0.505 -1.5899 -0.1491  0.7671
   54MOL   H14425690   4.143   5.615   0.634 -1.4752  0.2055 -1.7088
   54MOL   H14525691   4.041   5.733   0.735  1.6272 -0.6791  2.4211
   54MOL   O14625692   4.017   5.435   0.771 -0.2390 -0.6849 -0.1450
   54MOL   C14725693   3.994   5.345   0.883 -0.3188  0.4013  0.1818
   54MOL   C14825694   3.929   5.221   0.812 -0.9369  0.3867 -0.3371
   54MOL   C14925695   3.866   5.129   0.915 -0.4309  0.6228 -0.4547
   54MOL   C15025696   3.954   5.090   1.028 -0.6417 -0.5989  0.2965
   54MOL   O15125697   3.970   5.197   1.116  0.0754  0.1876  0.0793
   54MOL   C15225698   4.091   5.221   1.175 -0.3705 -0.3522 -0.4573
   54MOL   O15325699   4.200   5.167   1.159  0.1986 -0.0483  0.2702
   54MOL   C15425700   4.086   5.328   1.284  0.2777  0.9063  0.1536
   54MOL   C15525701   4.008   5.455   1.244  0.5011  0.1126  0.4054
   54MOL   C15625702   3.868   5.458   1.310 -0.2891 -0.1457  0.3772
   54MOL   O15725703   3.803   5.358   1.342 -0.1016  0.3372  0.1510
   54MOL   H15825704   4.091   5.321   0.927 -1.2751 -1.1021  1.4983
   54MOL   H15925705   3.934   5.385   0.965  0.5201  0.1672  0.9296
   54MOL   H16025706   4.007   5.166   0.759 -0.0378  0.0224  1.3221
   54MOL   H16125707   3.860   5.246   0.731  0.7183  1.3815 -1.4599
   54MOL   H16225708   3.820   5.047   0.858  1.0160  0.1715 -0.9905
   54MOL   H16325709   3.784   5.179   0.966  0.0031 -1.4330  2.4114
   54MOL   H16425710   3.915   5.011   1.093  1.4392 -0.4663  1.7826
   54MOL   H16525711   4.046   5.049   0.986 -1.6416 -4.7603  1.9032
   54MOL   H16625712   4.188   5.356   1.310 -0.5263  2.2544  1.9079
   54MOL   H16725713   4.035   5.295   1.374  0.0502 -0.5264 -0.4802
   54MOL   H16825714   4.067   5.543   1.270  0.1598 -0.1520  2.1346
   54MOL   H16925715   3.993   5.467   1.136  0.0078 -1.8602  0.2274
   54MOL   O17025716   3.819   5.583   1.307  0.0635  0.0245  0.3854
   54MOL   C17125717   3.686   5.603   1.349  0.5287 -0.3870 -0.5729
   54MOL   C17225718   3.648   5.751   1.350 -0.5285  0.4051 -0.0014
   54MOL   C17325719   3.642   5.816   1.206  0.5615 -0.5449 -0.6111
   54MOL   C17425720   3.602   5.965   1.216  0.0296 -0.0931  0.1922
   54MOL   O17525721   3.585   6.016   1.086 -0.0011  0.9860 -0.3750
   54MOL   C17625722   3.513   6.134   1.080  0.8210 -0.2356  0.2296
   54MOL   O17725723   3.469   6.193   1.182  0.3288  0.2642 -0.0145
   54MOL   C17825724   3.506   6.195   0.938  0.6955  0.1795 -0.4455
   54MOL   C17925725   3.366   6.149   0.877  0.2808 -0.6125 -1.0218
   54MOL   C18025726   3.328   6.229   0.750 -0.4066  0.2422 -0.3354
   54MOL   O18125727   3.309   6.348   0.757 -0.1744  0.4751 -0.8072
   54MOL   H18225728   3.626   5.539   1.284  0.8067 -0.1507 -1.0608
   54MOL   H18325729   3.694   5.565   1.451 -1.6848 -2.3574 -1.0833
   54MOL   H18425730   3.710   5.815   1.413  0.0893  0.1393 -0.3357
   54MOL   H18525731   3.550   5.764   1.396 -0.1423  0.4629  0.8175
   54MOL   H18625732   3.575   5.756   1.145  0.6815 -1.5867  0.2728
   54MOL   H18725733   3.741   5.806   1.161  1.5988 -0.8912  1.7110
   54MOL   H18825734   3.513   5.968   1.280  0.4673  2.1765  0.7299
   54MOL   H18925735   3.682   6.021   1.265  0.3077 -0.1604 -0.1880
   54MOL   H19025736   3.591   6.159   0.881  0.7879 -0.9625  0.3884
   54MOL   H19125737   3.531   6.301   0.941 -1.8287  0.7927  0.7621
   54MOL   H19225738   3.351   6.042   0.868 -0.3468 -0.9212  3.0241
   54MOL   H19325739   3.299   6.184   0.955  1.0872  2.2818 -1.5493
   54MOL   O19425740   3.323   6.153   0.642  0.7427  0.1190  0.2437
   54MOL   C19525741   3.315   6.213   0.515  0.1980 -1.0155  0.8183
   54MOL   C19625742   3.388   6.142   0.412  0.3215 -0.2454 -0.3394
   54MOL   C19725743   3.387   6.206   0.276 -0.3011 -0.1236  0.6545
   54MOL   C19825744   3.453   6.114   0.173 -0.5848  0.2643  0.2835
   54MOL   O19925745   3.362   6.041   0.096  0.2616  0.3263  0.2587
   54MOL   C20025746   3.391   6.017   7.840 -0.1367 -0.2377 -0.4843
   54MOL   O20125747   3.463   6.091   7.778 -0.2835 -0.4622 -0.6985
   54MOL   C20225748   3.339   5.881   7.780  0.0995 -0.3398  0.0954
   54MOL   C20325749   3.298   5.781   0.012  1.0068  0.0649 -0.0475
   54MOL   C20425750   3.237   5.652   7.829  0.1708  0.0028  0.0725
   54MOL   O20525751   3.247   5.635   7.705 -0.5273  0.3110 -0.3426
   54MOL   H20625752   3.209   6.218   0.492  0.5297 -0.3850 -0.6142
   54MOL   H20725753   3.361   6.312   0.518  1.1691 -1.3750 -1.6412
   54MOL   H20825754   3.344   6.042   0.410 -1.5953  0.5600  0.3230
   54MOL   H20925755   3.493   6.143   0.438  0.7925  0.1907 -2.2019
   54MOL   H21025756   3.445   6.298   0.282  0.5956 -0.6897  0.8387
   54MOL   H21125757   3.288   6.217   0.233 -0.2140 -3.3727 -0.5514
   54MOL   H21225758   3.534   6.172   0.127 -1.3598  2.5667  1.7147
   54MOL   H21325759   3.513   6.036   0.220 -1.0037  0.4373  1.1143
   54MOL   H21425760   3.419   5.840   7.720 -0.4323  1.6206 -2.0494
   54MOL   H21525761   3.256   5.897   7.711  0.1172 -1.8760 -0.2854
   54MOL   H21625762   3.384   5.755   0.073  0.2421  1.7180  1.7695
   54MOL   H21725763   3.228   5.829   0.080 -0.6688  0.5705 -2.0503
   54MOL   O21825764   3.179   5.572   0.051  0.1946 -1.0182  0.1708
   54MOL   C21925765   3.094   5.475   7.866  0.4458  0.2469  0.0003
   54MOL   C22025766   3.094   5.355   0.083  0.3893  0.5754  0.0045
   54MOL   C22125767   2.973   5.366   0.176  0.2407 -0.0284  0.6172
   54MOL   C22225768   2.842   5.307   0.108  0.2212 -0.8802 -0.1362
   54MOL   O22325769   2.807   5.390   7.871 -0.6491 -0.2794  1.0284
   54MOL   C22425770   2.696   5.474   0.003  0.3863 -0.0134 -0.1948
   54MOL   O22525771   2.608   5.471   0.096  0.2099 -0.5166 -0.4606
   54MOL   C22625772   2.707   5.586   7.773 -0.1819  0.1605 -0.1309
   54MOL   C22725773   2.642   5.535   7.642 -0.4845 -0.4041 -0.1565
   54MOL   C22825774   2.739   5.445   7.555 -0.5327  0.2277 -0.9373
   54MOL   O22925775   2.797   5.496   7.459 -0.2197 -0.2365  0.3500
   54MOL   H23025776   2.993   5.514   0.005  1.0861  1.9245  0.1298
   54MOL   H23125777   3.119   5.458   7.761  2.0136 -1.8121  0.6714
   54MOL   H23225778   3.181   5.364   0.148 -0.9009 -0.3037  1.8862
   54MOL   H23325779   3.097   5.261   0.028  0.3830  0.9735 -0.6875
   54MOL   H23425780   2.955   5.470   0.205  2.1551  0.9185 -1.3901
   54MOL   H23525781   3.002   5.310   0.264 -0.8555 -1.4161  0.1042
   54MOL   H23625782   2.859   5.201   0.086  0.8514 -0.9651  0.7358
   54MOL   H23725783   2.774   5.311   0.193  1.1893  2.7173  0.5449
   54MOL   H23825784   2.813   5.603   7.751 -0.5971  0.7104 -1.8122
   54MOL   H23925785   2.663   5.681   7.802 -2.1483 -0.6655 -0.3589
   54MOL   H24025786   2.547   5.488   7.668 -0.7119  1.2073  2.0858
   54MOL   H24125787   2.617   5.618   7.576 -1.8440  0.3999  1.3400
   54MOL   O24225788   2.737   5.316   7.594 -0.0894  0.0417  0.4856
   54MOL   C24325789   2.838   5.224   7.543 -0.2005  0.3250  0.6662
   54MOL   C24425790   2.976   5.243   7.605  0.0373 -0.9093  0.3646
   54MOL   C24525791   3.062   5.328   7.523 -0.2613  0.1088  0.6932
   54MOL   C24625792   3.211   5.292   7.559  0.0846 -0.3705  0.2810
   54MOL   O24725793   3.293   5.346   7.453  0.2474  0.1460 -0.7696
   54MOL   C24825794   3.423   5.324   7.452  0.6059 -0.5731  0.2334
   54MOL   O24925795   3.477   5.255   7.532 -0.2441  0.9831 -0.1944
   54MOL   C25025796   3.492   5.385   7.333 -0.0179  0.0873  0.2033
   54MOL   C25125797   3.434   5.349   7.200 -0.4261 -0.4530  0.0315
   54MOL   C25225798   3.361   5.464   7.140 -0.6211  0.1165  0.3400
   54MOL   O25325799   3.392   5.506   7.030  0.1820  0.0017 -0.1846
   54MOL   H25425800   2.792   5.129   7.569 -1.5057  1.0370  1.0227
   54MOL   H25525801   2.848   5.218   7.435 -0.3514  0.4679  0.6449
   54MOL   H25625802   3.015   5.141   7.607  1.2215 -0.4838 -0.2246
   54MOL   H25725803   2.962   5.272   7.709 -0.2793  1.7612 -0.4067
   54MOL   H25825804   3.050   5.435   7.542  1.3393  0.4996 -0.4019
   54MOL   H25925805   3.052   5.318   7.415 -0.5802  0.0737  0.7258
   54MOL   H26025806   3.243   5.332   7.656  0.6547  2.3510 -0.9896
   54MOL   H26125807   3.232   5.185   7.569  0.9955 -0.2526 -0.3297
   54MOL   H26225808   3.598   5.358   7.331  0.4706  1.9871 -1.7018
   54MOL   H26325809   3.490   5.493   7.346 -0.3122 -0.0697  1.5217
   54MOL   H26425810   3.502   5.320   7.120  1.2727  0.6300  1.0571
   54MOL   H26525811   3.357   5.271   7.198 -1.8528  0.9324  0.3433
   54MOL   O26625812   3.255   5.502   7.207 -0.4234  0.2872 -0.6288
   54MOL   C26725813   3.173   5.604   7.152  0.0993 -0.4556  0.1409
   54MOL   C26825814   3.081   5.663   7.263  0.5183 -0.2366 -0.2295
   54MOL   C26925815   3.156   5.743   7.381 -0.3225  0.3153  0.1738
   54MOL   C27025816   3.060   5.782   7.502 -0.0983  0.3505  0.3808
   54MOL   O27125817   2.967   5.882   7.475 -0.8717 -0.2776 -0.0407
   54MOL   C27225818   2.998   6.006   7.493 -0.5236  0.1962 -0.2044
   54MOL   O27325819   3.111   6.050   7.511 -0.7491 -0.5634  0.0008
   54MOL   C27425820   2.888   6.107   7.474 -0.8997 -0.4961 -0.2132
   54MOL   C27525821   2.759   6.046   7.528  0.6076 -0.3808  0.1766
   54MOL   C27625822   2.730   6.043   7.679 -0.1610 -0.3148 -0.0309
   54MOL   O27725823   2.822   6.005   7.758  0.1046  0.3636 -0.4791
   54MOL   H27825824   3.235   5.685   7.114  1.8979 -2.0088 -0.3537
   54MOL   H27925825   3.110   5.568   7.070 -0.4599 -1.7276  1.1082
   54MOL   H28025826   3.026   5.585   7.316 -0.0695  0.1335 -0.2873
   54MOL   H28125827   3.009   5.735   7.224  0.3343  1.1841  2.6713
   54MOL   H28225828   3.208   5.824   7.329 -0.0150 -0.4639 -0.7378
   54MOL   H28325829   3.235   5.682   7.425 -1.9547 -0.5070  2.0305
   54MOL   H28425830   3.009   5.690   7.531 -0.5750 -0.1622 -2.0138
   54MOL   H28525831   3.118   5.808   7.591  1.8280  1.4138 -1.1557
   54MOL   H28625832   2.867   6.127   7.369 -1.8612 -1.6461 -0.2484
   54MOL   H28725833   2.913   6.201   7.522 -2.4537  0.0811 -0.5362
   54MOL   H28825834   2.678   6.092   7.471  2.2576  3.8678  1.0484
   54MOL   H28925835   2.754   5.942   7.498  1.7158 -0.8216  1.4737
   54MOL   O29025836   2.616   6.096   7.716  0.2299 -0.1102  0.4857
   54MOL   C29125837   2.585   6.099   7.849 -0.8762 -0.3701 -0.5543
   54MOL   C29225838   2.443   6.144   7.859 -0.1826 -0.0066  0.4535
   54MOL   C29325839   2.410   6.284   7.803  0.7528 -0.0569  0.0365
   54MOL   C29425840   2.263   6.331   7.823 -0.4674  0.0531 -0.0082
   54MOL   O29525841   2.249   6.329   0.093  0.1951 -0.1942  0.0378
   54MOL   C29625842   2.183   6.432   0.147 -0.4875  0.2373  0.1362
   54MOL   O29725843   2.126   6.522   0.088 -0.1107  0.2929 -0.5561
   54MOL   C29825844   2.168   6.431   0.296  0.0279  0.3801  0.1312
   54MOL   C29925845   2.246   6.540   0.368 -0.6043  0.8305  0.0371
   54MOL   C30025846   2.346   6.478   0.457 -0.5493 -0.5935 -0.1812
   54MOL   O30125847   2.333   6.481   0.578  0.0065  0.1572 -0.2745
   54MOL   H30225848   2.606   6.004   0.025 -0.3972 -0.6836 -1.3283
   54MOL   H30325849   2.651   6.169   0.025  0.3141 -1.2683 -0.8390
   54MOL   H30425850   2.411   6.127   0.088  0.1144  0.8203  0.6863
   54MOL   H30525851   2.381   6.080   7.797  1.3645 -0.2543 -0.8616
   54MOL   H30625852   2.433   6.289   7.696  0.2053 -0.2344 -0.0871
   54MOL   H30725853   2.479   6.359   7.843 -0.3535 -0.2139  2.2922
   54MOL   H30825854   2.259   6.427   7.772  2.4088  0.3262  0.1851
   54MOL   H30925855   2.198   6.256   7.777  1.0660 -0.1940 -1.8152
   54MOL   H31025856   2.198   6.332   0.330 -1.1174  0.3398  1.0641
   54MOL   H31125857   2.061   6.435   0.315 -0.4019 -2.8996 -1.2787
   54MOL   H31225858   2.306   6.600   0.300 -0.1743  2.1828  1.5680
   54MOL   H31325859   2.178   6.612   0.415 -0.2312  1.0817  0.2031
   54MOL   O31425860   2.445   6.411   0.389  0.8863 -0.0339  1.0214
   54MOL   C31525861   2.537   6.332   0.468 -0.0324  0.0091  0.4134
   54MOL   C31625862   2.499   6.182   0.438 -0.2396 -0.5561  0.7747
   54MOL   C31725863   2.517   6.081   0.545  0.4241  0.5740 -0.4461
   54MOL   C31825864   2.654   6.076   0.603  0.2527  0.0401 -0.8431
   54MOL   O31925865   2.676   5.967   0.683  0.8972  0.2773 -0.1385
   54MOL   C32025866   2.800   5.939   0.724 -0.0632 -0.0526  0.3920
   54MOL   O32125867   2.902   5.991   0.684 -0.1433 -0.2029 -0.2888
   54MOL   C32225868   2.798   5.805   0.809  0.4277  0.0660 -0.1860
   54MOL   C32325869   2.731   5.812   0.951 -0.3869 -0.8079  0.3927
   54MOL   C32425870   2.595   5.746   0.971 -0.2237 -0.1409  0.0512
   54MOL   O32525871   2.581   5.651   1.053  0.1575 -0.3650 -0.2688
   54MOL   H32625872   2.642   6.338   0.439  0.4849  0.0463  2.2357
   54MOL   H32725873   2.541   6.348   0.576 -0.1691  1.0194  0.2783
   54MOL   H32825874   2.551   6.155   0.346 -0.4861  2.1282 -0.1876
   54MOL   H32925875   2.395   6.179   0.403  0.2136 -4.4693 -0.4270
   54MOL   H33025876   2.486   5.983   0.508 -0.1931  0.7446 -0.3953
   54MOL   H33125877   2.434   6.081   0.616 -0.1802 -0.9767 -1.1180
   54MOL   H33225878   2.720   6.066   0.517 -0.3456 -1.6486 -1.1309
   54MOL   H33325879   2.671   6.167   0.661  2.9615 -0.3473 -0.9850
   54MOL   H33425880   2.904   5.779   0.813  0.7595  1.3307 -0.5517
   54MOL   H33525881   2.752   5.729   0.745 -1.0083 -1.1962  2.3000
   54MOL   H33625882   2.808   5.773   1.018  0.8594  0.5996 -0.1913
   54MOL   H33725883   2.730   5.917   0.978 -2.9181 -0.7627  0.2461
   54MOL   O33825884   2.497   5.798   0.894  0.2944 -0.1439  0.4020
   54MOL   C33925885   2.373   5.732   0.907 -0.2267 -0.5789 -0.5236
   54MOL   C34025886   2.274   5.796   0.808  0.5805  0.3041  0.3990
   54MOL   C34125887   2.226   5.941   0.846  0.3421  0.8998  0.6750
   54MOL   C34225888   2.100   5.974   0.761  0.1138 -0.1087  0.4562
   54MOL   O34325889   2.061   6.113   0.768 -0.1313  0.1932 -0.6820
   54MOL   C34425890   2.105   6.203   0.682  0.5154  0.3713 -0.3259
   54MOL   O34525891   2.187   6.174   0.603 -0.1631 -0.2599  0.1450
   54MOL   C34625892   2.047   6.339   0.685  1.0274 -0.6533  0.2519
   54MOL   C34725893   2.107   6.417   0.801  0.0883 -0.2861  0.6591
   54MOL   C34825894   2.101   6.568   0.772 -0.0022  0.1387 -0.4138
   54MOL   O34925895   2.021   6.616   0.690  0.0171 -0.3544 -0.7270
   54MOL   H35025896   2.397   5.637   0.861 -0.5721 -0.0876 -1.7449
   54MOL   H35125897   2.333   5.710   1.006 -0.2808 -1.2938 -0.7072
   54MOL   H35225898   2.190   5.728   0.804  1.8006 -1.1704 -0.7467
   54MOL   H35325899   2.308   5.811   0.705  2.2959  1.3495  1.0919
   54MOL   H35425900   2.303   6.018   0.836  2.5367 -1.1935  1.1599
   54MOL   H35525901   2.189   5.937   0.949  0.6269  0.6071  0.7685
   54MOL   H35625902   2.107   5.948   0.656  0.3895 -0.1482  0.4853
   54MOL   H35725903   2.027   5.908   0.809  1.0896 -1.3783  0.1973
   54MOL   H35825904   1.940   6.334   0.703  0.5434 -0.1759 -2.2382
   54MOL   H35925905   2.057   6.386   0.587  1.9571 -1.4533 -0.0541
   54MOL   H36025906   2.068   6.393   0.901  2.4537 -2.3499  1.1374
   54MOL   H36125907   2.213   6.392   0.797  0.1294  0.1140 -0.7311
   54MOL   O36225908   2.184   6.641   0.844  0.2754 -0.1172  0.0204
   54MOL   C36325909   2.219   6.778   0.811 -0.2436 -0.0705 -1.0007
   54MOL   C36425910   2.311   6.772   0.691 -0.4402 -0.0064  0.3412
   54MOL   C36525911   2.336   6.909   0.634  0.0456  0.6951 -0.2212
   54MOL   C36625912   2.373   6.915   0.483 -0.8174  0.0194 -0.1494
   54MOL   O36725913   2.374   7.050   0.444  0.0466  0.9438  0.2033
   54MOL   C36825914   2.329   7.081   0.313 -0.1116 -0.0905 -0.9498
   54MOL   O36925915   2.290   7.001   0.233  0.1993 -0.6670  0.0707
   54MOL   C37025916   2.339   7.228   0.274  0.0756  0.6592  0.1641
   54MOL   C37125917   2.301   7.256   0.126  0.1826  0.5275  0.0799
   54MOL   C37225918   2.398   7.197   0.023  0.3248 -0.4392 -0.6514
   54MOL   O37325919   2.365   7.138   7.795  0.3396 -0.2953  0.5322
   54MOL   H37425920   2.137   6.849   0.798  0.2586  1.3006  2.6385
   54MOL   H37525921   2.288   6.832   0.876  0.0008  0.0922 -1.3971
   54MOL   H37625922   2.259   6.724   0.607  0.9125 -0.5031 -0.2240
   54MOL   H37725923   2.405   6.724   0.717  0.4436  2.1600  1.1822
   54MOL   H37825924   2.420   6.954   0.687  0.8427 -0.0140 -0.8725
   54MOL   H37925925   2.245   6.968   0.651 -0.4065  0.9356 -3.2256
   54MOL   H38025926   2.470   6.868   0.464 -0.9505 -1.3632  2.4080
   54MOL   H38125927   2.294   6.858   0.433 -2.8503  1.1677  1.6637
   54MOL   H38225928   2.438   7.264   0.304  0.5880 -0.8474  0.3201
   54MOL   H38325929   2.284   7.284   0.350 -0.8096 -1.8123  1.4041
   54MOL   H38425930   2.204   7.206   0.113  0.2329 -0.0249  1.7405
   54MOL   H38525931   2.274   7.361   0.118  0.4389  0.4318 -2.3551
   54MOL   O38625932   2.525   7.208   0.066  0.1223  0.5066  0.2453
   54MOL   C38725933   2.625   7.190   7.842  0.4213  0.8287  0.4661
   54MOL   C38825934   2.662   7.328   7.787 -0.2906  0.3466 -0.2830
   54MOL   C38925935   2.710   7.431   0.023  0.6784 -0.1041  0.1155
   54MOL   C39025936   2.772   7.558   7.849 -0.7438  0.0179 -0.6522
   54MOL   O39125937   2.700   7.606   7.737 -0.2566  0.7711  0.1009
   54MOL   C39225938   2.771   7.637   7.627  0.0001 -0.1690  0.2065
   54MOL   O39325939   2.895   7.628   7.614 -0.4055 -0.5704  0.1338
   54MOL   C39425940   2.669   7.674   7.515  0.4161 -0.0455 -0.1785
   54MOL   C39525941   2.664   7.570   7.404 -0.1604  0.2840  0.0951
   54MOL   C39625942   2.538   7.482   7.422 -0.3917  0.2649  0.3344
   54MOL   O39725943   2.437   7.526   7.472  0.0516 -0.0332 -0.1188
   54MOL   H39825944   2.709   7.153   0.026  0.9171  2.8400  1.0485
   54MOL   H39925945   2.594   7.115   7.769 -1.6870  1.1318  0.9955
   54MOL   H40025946   2.577   7.370   7.733  1.1253  1.5820 -1.6027
   54MOL   H40125947   2.747   7.313   7.721  0.7913 -1.0087  1.3698
   54MOL   H40225948   2.794   7.389   0.078  1.2772 -0.0091 -0.7200
   54MOL   H40325949   2.624   7.447   0.088  0.6800  0.0204  0.0870
   54MOL   H40425950   2.762   7.640   0.046 -2.1409 -0.2362 -0.5562
   54MOL   H40525951   2.878   7.541   7.827  0.0186  2.0284  1.2220
   54MOL   H40625952   2.724   7.757   7.471 -1.6036  1.8605  0.7556
   54MOL   H40725953   2.574   7.708   7.558  0.4882  2.2644 -1.7462
   54MOL   H40825954   2.643   7.620   7.310  0.7425  0.5413  0.0256
   54MOL   H40925955   2.753   7.508   7.398 -2.1088 -2.4725 -1.6653
   54MOL   O41025956   2.564   7.357   7.383 -0.2621  0.1148  0.0740
   54MOL   C41125957   2.467   7.259   7.417 -0.1224 -0.2665 -0.0410
   54MOL   C41225958   2.380   7.236   7.301 -0.8561  0.3033 -0.2737
   54MOL   C41325959   2.239   7.167   7.332  0.1079  0.0734 -0.1251
   54MOL   C41425960   2.160   7.120   7.209 -0.1480 -0.4101  0.5648
   54MOL   O41525961   2.049   7.057   7.269 -0.0428 -0.2806  0.2192
   54MOL   C41625962   1.931   7.096   7.259  0.4421  0.4285  0.3525
   54MOL   O41725963   1.894   7.152   7.155  0.0688 -0.6217 -0.0443
   54MOL   C41825964   1.831   7.037   7.357 -0.2621 -0.5238 -0.3819
   54MOL   C41925965   1.849   7.084   7.504  0.5515  0.3179  0.2515
   54MOL   C42025966   1.887   6.969   7.591 -0.4672 -0.3793 -0.1064
   54MOL   O42125967   1.824   6.866   7.592 -0.2805  0.2872  0.2983
   54MOL   H42225968   2.526   7.168   7.429  0.0781 -0.3294 -1.3569
   54MOL   H42325969   2.413   7.281   7.509 -0.9413 -0.6380 -0.4335
   54MOL   H42425970   2.434   7.168   7.235  0.1523  1.8415 -1.0500
   54MOL   H42525971   2.379   7.320   7.232  2.8742  0.6450 -0.0059
   54MOL   H42625972   2.179   7.242   7.384  0.8125  1.2498 -0.9868
   54MOL   H42725973   2.255   7.085   7.401  0.9781 -0.4975 -0.9926
   54MOL   H42825974   2.148   7.208   7.146  0.0051 -0.4584  0.4679
   54MOL   H42925975   2.226   7.053   7.154 -0.0326 -0.4181  0.7109
   54MOL   H43025976   1.839   6.930   7.338  0.9475 -0.6923  0.9988
   54MOL   H43125977   1.729   7.059   7.328 -0.5513 -1.0343  0.2398
   54MOL   H43225978   1.915   7.171   7.516  1.8105 -0.7133  1.0757
   54MOL   H43325979   1.750   7.110   7.540  1.3423  2.2433  1.1279
   54MOL   O43425980   1.982   7.000   7.685 -0.0410  0.1264 -0.0031
   54MOL   C43525981   2.027   6.904   7.778  0.0950 -0.6648 -0.1416
   54MOL   C43625982   1.933   6.905   0.024  0.1839 -0.1321  0.1316
   54MOL   C43725983   1.991   6.958   0.150  0.2112  0.1470  0.2352
   54MOL   C43825984   1.899   6.963   0.268 -0.2803 -0.0166 -0.3924
   54MOL   O43925985   1.821   6.846   0.296  0.4026 -0.9756 -0.2761
   54MOL   C44025986   1.867   6.754   0.379  0.5049 -0.1992 -0.1172
   54MOL   O44125987   1.971   6.769   0.443 -0.6999  0.1652  0.1691
   54MOL   C44225988   1.770   6.637   0.392 -0.6469  0.0121 -0.6381
   54MOL   C44325989   1.727   6.579   0.254 -0.9462  0.1424 -0.5705
   54MOL   C44425990   1.586   6.616   0.208  0.6901 -0.1034 -0.2697
   54MOL   O44525991   1.486   6.572   0.265 -0.0992  0.4978 -0.0764
   54MOL   H44625992   2.029   6.807   7.728  3.8537 -1.3554  1.1862
   54MOL   H44725993   2.127   6.915   7.819 -0.9720 -0.0321  2.4410
   54MOL   H44825994   1.901   6.801   0.039 -0.7704 -0.1065 -1.6127
   54MOL   H44925995   1.839   6.954   7.873 -0.3427 -0.4473  1.3979
   54MOL   H45025996   2.028   7.057   0.120  2.1934 -0.4574  0.6009
   54MOL   H45125997   2.078   6.897   0.176  0.0466 -0.3467 -0.3525
   54MOL   H45225998   1.965   6.984   0.352  0.9751  0.7625 -1.5595
   54MOL   H45325999   1.829   7.045   0.259 -0.0870  0.2908  0.8023
   54MOL   H45426000   1.677   6.665   0.443 -0.2338  1.6368 -0.7464
   54MOL   H45526001   1.821   6.560   0.451 -2.3591 -0.3077  0.4537
   54MOL   H45626002   1.804   6.604   0.181 -1.2785  1.6815 -0.4130
   54MOL   H45726003   1.734   6.471   0.267 -1.6022  0.0685 -0.7983
   54MOL   O45826004   1.584   6.684   0.103  0.1919 -0.5107 -0.3617
   54MOL   C45926005   1.462   6.726   0.048  0.0295 -0.4987  0.4641
   54MOL   C46026006   1.427   6.862   0.122  0.1465 -1.0496  0.7861
   54MOL   C46126007   1.504   6.986   0.087  0.1774 -0.3845 -0.2849
   54MOL   C46226008   1.503   7.020   7.810  0.3131  0.0567 -0.8966
   54MOL   O46326009   1.369   7.019   7.756 -0.0633  0.2620  0.0899
   54MOL   C46426010   1.356   7.053   7.627  0.1838 -0.0473 -0.0771
   54MOL   O46526011   1.448   7.085   7.547 -0.3809  0.1452  0.3806
   54MOL   C46626012   1.209   7.049   7.579 -0.2929  0.7490  0.0841
   54MOL   C46726013   1.162   6.934   7.492 -0.0568 -0.3602  0.2120
   54MOL   C46826014   1.107   6.989   7.360  0.1254 -0.4115  0.2498
   54MOL   O46926015   1.024   7.082   7.361  0.2021 -0.5982  0.2092
   54MOL   H47026016   1.470   6.746   7.815 -0.8737  0.4213  0.5627
   54MOL   H47126017   1.379   6.658   0.064  0.1760 -1.2468 -1.7838
   54MOL   H47226018   1.427   6.845   0.230 -0.8382 -0.4923  0.8820
   54MOL   H47326019   1.322   6.874   0.094  0.6844 -0.5752 -1.0258
   54MOL   H47426020   1.608   6.972   0.115  1.5763  3.6378 -2.9955
   54MOL   H47526021   1.463   7.071   0.141 -1.3286 -1.6339  0.5676
   54MOL   H47626022   1.534   7.123   7.794 -1.1144  0.7312  0.6005
   54MOL   H47726023   1.564   6.945   7.760  1.5298  1.4494 -1.5442
   54MOL   H47826024   1.182   7.144   7.533 -2.9200 -0.6293 -1.3780
   54MOL   H47926025   1.157   7.032   7.673  0.5611  0.3702  0.4972
   54MOL   H48026026   1.249   6.876   7.459 -0.6798 -0.4622 -1.3183
   54MOL   H48126027   1.099   6.862   7.544 -0.0560 -0.5874 -0.0979
   54MOL   H48226028   1.133   6.935   7.270 -2.1115  0.3272 -0.8623
   55MOL     O126029   3.099   1.864   2.305  0.0759  0.0033  0.5103
   55MOL     C226030   3.134   1.993   2.283 -0.6903 -0.6469  0.2204
   55MOL     C326031   3.284   2.019   2.302  0.2618  0.0139  0.3342
   55MOL     C426032   3.369   1.938   2.198 -0.3392 -0.2809  0.1711
   55MOL     C526033   3.518   1.983   2.200 -0.2075 -0.9696  0.1403
   55MOL     O626034   3.523   2.123   2.196  0.4952 -0.7391 -0.1800
   55MOL     C726035   3.623   2.188   2.136  0.5669  0.3396  0.1150
   55MOL     O826036   3.725   2.141   2.104 -0.7393  0.0726 -0.0897
   55MOL     C926037   3.592   2.337   2.116  0.1485 -0.0345 -0.4427
   55MOL    C1026038   3.615   2.423   2.245  0.2322 -0.0641  0.6411
   55MOL    C1126039   3.754   2.493   2.245 -0.1789 -0.2035 -0.2716
   55MOL    O1226040   3.855   2.440   2.270  0.4079 -0.3144 -0.0594
   55MOL    H1326041   3.108   2.010   2.178  1.1038 -0.2667 -0.1834
   55MOL    H1426042   3.076   2.053   2.353  0.1852 -0.7321  1.0202
   55MOL    H1526043   3.322   1.986   2.399  0.9282 -0.5634 -0.1118
   55MOL    H1626044   3.309   2.124   2.286  0.6093 -0.1956 -0.5369
   55MOL    H1726045   3.322   1.959   2.102  1.6310  1.4078 -0.4671
   55MOL    H1826046   3.369   1.830   2.210 -0.7239 -0.2855  0.1247
   55MOL    H1926047   3.546   1.939   2.296  0.6132  2.1841  1.4113
   55MOL    H2026048   3.572   1.953   2.111 -0.6744  0.6379 -0.7079
   55MOL    H2126049   3.489   2.335   2.080  0.4418  0.4005 -1.3139
   55MOL    H2226050   3.642   2.376   2.028 -2.4610  3.5815 -0.4600
   55MOL    H2326051   3.542   2.504   2.246 -0.3215 -0.5518  0.3099
   55MOL    H2426052   3.607   2.378   2.344  2.8063  0.8099  1.2712
   55MOL    H2526053   3.139   1.810   2.238 -2.3619 -1.8587  0.4814
   55MOL    O2626054   3.749   2.625   2.212 -0.7165  0.0850 -0.6582
   55MOL    C2726055   3.871   2.707   2.208 -0.2062  0.5033  0.2001
   55MOL    C2826056   3.840   2.853   2.237  0.1187  0.1773  0.4557
   55MOL    C2926057   3.827   2.891   2.389 -0.4888 -0.0804 -0.1408
   55MOL    C3026058   3.823   3.046   2.410  0.4597 -0.0698  0.1723
   55MOL    O3126059   3.694   3.085   2.390  0.2438 -0.3076  0.0314
   55MOL    C3226060   3.666   3.216   2.376 -0.0928 -0.8631  0.9078
   55MOL    O3326061   3.747   3.306   2.371 -0.2646 -0.1644  0.0468
   55MOL    C3426062   3.521   3.232   2.364  0.0884  0.3964 -0.1592
   55MOL    C3526063   3.469   3.218   2.506  0.1515  0.2096 -0.4846
   55MOL    C3626064   3.315   3.193   2.513 -0.2461  0.3524  1.0044
   55MOL    O3726065   3.239   3.272   2.575 -0.1008  0.4523 -0.0268
   55MOL    H3826066   3.948   2.671   2.276 -2.0171 -0.7100  1.6703
   55MOL    H3926067   3.899   2.703   2.103  0.1253 -3.0496  0.3375
   55MOL    H4026068   3.747   2.887   2.192 -1.5011 -1.8997  2.1133
   55MOL    H4126069   3.922   2.913   2.198  0.1921  1.8004  2.9802
   55MOL    H4226070   3.911   2.853   2.447 -2.9296 -1.4402  2.6471
   55MOL    H4326071   3.751   2.832   2.440 -1.1247  0.5395 -0.3599
   55MOL    H4426072   3.837   3.055   2.517  0.0890 -2.1832  0.4201
   55MOL    H4526073   3.901   3.101   2.356 -1.2125  1.5170 -0.6582
   55MOL    H4626074   3.469   3.161   2.300  0.3093  1.3385 -1.4156
   55MOL    H4726075   3.502   3.333   2.327 -0.4636  0.4349  0.2185
   55MOL    H4826076   3.512   3.138   2.566 -0.2092  1.1287  1.0189
   55MOL    H4926077   3.506   3.303   2.563 -0.2807 -0.0707  0.2326
   55MOL    O5026078   3.277   3.090   2.441 -0.4082  0.2062 -0.0494
   55MOL    C5126079   3.136   3.070   2.412  0.0916 -0.4458  0.1039
   55MOL    C5226080   3.098   3.013   2.274  0.1947 -0.2142 -0.8325
   55MOL    C5326081   2.946   2.968   2.269  0.2906  0.1914  0.0662
   55MOL    C5426082   2.889   2.948   2.128 -0.0847 -0.2839 -0.6685
   55MOL    O5526083   2.949   2.835   2.061 -0.1919 -1.0277  0.0647
   55MOL    C5626084   2.891   2.788   1.955  0.5706  0.1265  0.2160
   55MOL    O5726085   2.783   2.825   1.914 -0.8223  0.4900  0.5249
   55MOL    C5826086   2.970   2.674   1.892 -0.4891 -0.1373  0.5170
   55MOL    C5926087   3.109   2.701   1.847  0.8979 -0.1928 -0.5856
   55MOL    C6026088   3.122   2.746   1.702  0.1055  0.2679  0.0649
   55MOL    O6126089   3.222   2.722   1.637  0.4999 -0.1572  0.1157
   55MOL    H6226090   3.114   2.988   2.481 -1.1996  0.2970  0.6080
   55MOL    H6326091   3.072   3.155   2.434 -0.3212 -0.5080 -0.8331
   55MOL    H6426092   3.159   2.927   2.248  0.8822  0.0072  0.0280
   55MOL    H6526093   3.124   3.091   2.202  2.1906 -0.3394 -0.2742
   55MOL    H6626094   2.885   3.044   2.317 -1.7863  0.1564 -2.4132
   55MOL    H6726095   2.939   2.874   2.325  2.3338  0.0016  0.0569
   55MOL    H6826096   2.781   2.945   2.145 -0.0337  0.1758 -0.2408
   55MOL    H6926097   2.903   3.046   2.081  2.9460 -0.6289 -0.5683
   55MOL    H7026098   2.923   2.628   1.805  0.5517  2.9356 -1.7806
   55MOL    H7126099   2.959   2.607   1.977 -0.4445 -0.1155  0.5395
   55MOL    H7226100   3.159   2.784   1.898  1.0679  0.1067 -1.2359
   55MOL    H7326101   3.175   2.616   1.865  1.9742  0.6858 -0.2755
   55MOL    O7426102   3.012   2.799   1.650  0.0611 -0.0237  0.0460
   55MOL    C7526103   3.030   2.864   1.529 -0.3632 -0.6292  0.0539
   55MOL    C7626104   2.898   2.936   1.486 -1.0865  0.2325 -0.4973
   55MOL    C7726105   2.874   3.062   1.566 -0.4309 -0.1541 -0.5443
   55MOL    C7826106   2.735   3.114   1.542 -0.4527  0.3481 -0.2649
   55MOL    O7926107   2.687   3.229   1.610  0.8625 -0.6342 -0.4470
   55MOL    C8026108   2.709   3.349   1.559 -0.4687 -0.3818  0.2970
   55MOL    O8126109   2.786   3.376   1.466  0.1528  0.1260 -0.4424
   55MOL    C8226110   2.627   3.457   1.623 -0.0195 -0.2223  0.5522
   55MOL    C8326111   2.483   3.436   1.588  0.6609 -0.0314 -0.0316
   55MOL    C8426112   2.421   3.548   1.510  0.1943 -0.0659 -0.1212
   55MOL    O8526113   2.322   3.605   1.550  0.2990  0.3757 -0.1677
   55MOL    H8626114   3.114   2.933   1.535 -0.6092 -0.1096 -2.2272
   55MOL    H8726115   3.055   2.798   1.447  0.4136  0.0701 -0.2823
   55MOL    H8826116   2.819   2.863   1.504 -0.2186 -0.7008 -0.5084
   55MOL    H8926117   2.906   2.975   1.385  1.8720  2.1023  0.3933
   55MOL    H9026118   2.955   3.133   1.551  0.7228 -0.9140  1.7506
   55MOL    H9126119   2.874   3.037   1.673  0.8847  1.7300 -0.0833
   55MOL    H9226120   2.725   3.131   1.435 -0.2189  0.9673 -0.1948
   55MOL    H9326121   2.659   3.036   1.547  1.0335 -1.0561  1.1796
   55MOL    H9426122   2.666   3.555   1.595  0.7615 -0.7616 -0.2770
   55MOL    H9526123   2.644   3.451   1.731  0.5236 -2.1553  0.3913
   55MOL    H9626124   2.463   3.343   1.533  1.2273 -0.2524  0.1373
   55MOL    H9726125   2.418   3.423   1.675  0.1635  2.3531 -0.0272
   55MOL    O9826126   2.495   3.595   1.405  0.8306 -0.3465 -0.1584
   55MOL    C9926127   2.444   3.702   1.331 -0.0069  0.6307  0.1146
   55MOL   C10026128   2.479   3.694   1.182 -0.0178  0.2644  0.3702
   55MOL   C10126129   2.469   3.831   1.110  0.2329  0.3537 -0.1839
   55MOL   C10226130   2.496   3.839   0.961  0.0483  0.5494  0.3439
   55MOL   O10326131   2.486   3.974   0.915  0.3705  0.4054  0.2108
   55MOL   C10426132   2.366   4.025   0.878 -0.2752  0.0058 -0.3504
   55MOL   O10526133   2.258   3.966   0.893 -0.6478 -0.0330  0.2327
   55MOL   C10626134   2.375   4.163   0.814 -0.0812  0.7289  0.0288
   55MOL   C10726135   2.237   4.224   0.792 -0.8393  0.7653  0.2686
   55MOL   C10826136   2.231   4.360   0.731 -0.2722  0.0091  0.3301
   55MOL   O10926137   2.331   4.422   0.703  0.0785 -0.3531  0.0259
   55MOL   H11026138   2.338   3.723   1.339 -0.4185 -1.5325  0.6837
   55MOL   H11126139   2.494   3.791   1.370  1.2343 -0.3124  0.7192
   55MOL   H11226140   2.400   3.626   1.149 -1.8475  3.1624 -1.5005
   55MOL   H11326141   2.575   3.643   1.172 -0.5780 -0.9883  1.2156
   55MOL   H11426142   2.547   3.895   1.151  0.5931  0.2197 -0.6542
   55MOL   H11526143   2.376   3.886   1.126 -0.0375 -0.5450  1.3843
   55MOL   H11626144   2.590   3.787   0.945 -1.2237 -1.3895 -1.1272
   55MOL   H11726145   2.421   3.769   0.922  0.4643  1.4166 -2.0901
   55MOL   H11826146   2.415   4.172   0.713 -2.6102  2.3869 -0.8720
   55MOL   H11926147   2.440   4.216   0.884  1.6492 -1.3364  0.0243
   55MOL   H12026148   2.178   4.152   0.735 -2.2975  3.4865 -1.7871
   55MOL   H12126149   2.186   4.230   0.888 -0.4333 -0.6039  0.5890
   55MOL   O12226150   2.102   4.400   0.711 -0.2580 -0.2651  0.3208
   55MOL   C12326151   2.091   4.529   0.644  0.0707  0.2037 -0.0685
   55MOL   C12426152   1.965   4.533   0.568 -0.5371 -0.5608 -0.7853
   55MOL   C12526153   1.954   4.666   0.492 -0.2265  0.4252 -0.6999
   55MOL   C12626154   1.819   4.680   0.425  1.2105 -0.4537 -0.3099
   55MOL   O12726155   1.736   4.761   0.502  0.7122 -0.3299 -0.8779
   55MOL   C12826156   1.612   4.783   0.459 -0.1393  0.0803  0.3587
   55MOL   O12926157   1.570   4.751   0.348 -0.4051 -0.1334  0.2857
   55MOL   C13026158   1.522   4.855   0.559  0.0955  0.5433 -0.5293
   55MOL   C13126159   1.519   5.006   0.556 -0.5817 -0.7222  0.4104
   55MOL   C13226160   1.561   5.059   0.689 -0.4283 -0.0534 -0.6662
   55MOL   O13326161   1.474   5.086   0.773 -0.2905  0.2898 -0.2034
   55MOL   H13426162   2.102   4.609   0.718 -0.8945  0.5671 -0.3118
   55MOL   H13526163   2.174   4.546   0.576 -0.0449  0.8943 -0.0417
   55MOL   H13626164   1.875   4.520   0.628  0.6081 -0.3748  1.0126
   55MOL   H13726165   1.970   4.449   0.498  2.3600 -0.3852 -0.8372
   55MOL   H13826166   2.033   4.658   0.418 -0.2600  0.2435 -0.7162
   55MOL   H13926167   1.980   4.752   0.553 -0.9996  0.9184 -1.0531
   55MOL   H14026168   1.821   4.734   0.330 -0.1537  0.4025  0.1333
   55MOL   H14126169   1.762   4.588   0.411  0.1070  0.1416  0.2016
   55MOL   H14226170   1.556   4.813   0.654  0.4424  0.1162 -0.8420
   55MOL   H14326171   1.423   4.822   0.529 -0.3785 -0.2131  1.8114
   55MOL   H14426172   1.602   5.036   0.491  0.1999 -1.4599  1.0527
   55MOL   H14526173   1.427   5.055   0.525  0.0125 -0.1717 -0.5197
   55MOL   O14626174   1.690   5.063   0.708  0.3676 -0.2973 -0.1157
   55MOL   C14726175   1.749   5.112   0.824 -0.4063  0.1093 -0.5259
   55MOL   C14826176   1.811   4.987   0.904 -0.3602  0.3013 -0.6110
   55MOL   C14926177   1.927   4.904   0.832 -1.0325 -0.5571 -0.5071
   55MOL   C15026178   2.052   4.991   0.788 -0.3082  0.0518 -0.3686
   55MOL   O15126179   2.150   4.902   0.734  0.1268  0.0354  0.4558
   55MOL   C15226180   2.271   4.949   0.673  0.3113  0.3645  0.5889
   55MOL   O15326181   2.312   5.067   0.674  0.6195 -0.3113  0.1669
   55MOL   C15426182   2.346   4.845   0.592  0.1868  0.1425 -0.1508
   55MOL   C15526183   2.362   4.889   0.442  0.4129  0.4865 -0.4873
   55MOL   C15626184   2.317   4.787   0.344 -0.6181 -0.5789  0.0876
   55MOL   O15726185   2.293   4.671   0.371 -0.1541  0.8255 -0.0346
   55MOL   H15826186   1.836   5.170   0.795 -1.5422  1.8197 -0.6108
   55MOL   H15926187   1.689   5.170   0.894  2.0766  1.3690  0.6104
   55MOL   H16026188   1.731   4.918   0.931 -0.9007  0.2475 -2.2690
   55MOL   H16126189   1.854   5.009   1.002  2.0143 -0.6524 -1.4068
   55MOL   H16226190   1.879   4.860   0.745 -2.0840  1.5842 -1.0297
   55MOL   H16326191   1.961   4.823   0.897 -0.9355  0.8797  1.2737
   55MOL   H16426192   2.017   5.063   0.714 -0.6646  1.9840  1.6376
   55MOL   H16526193   2.087   5.051   0.871 -0.0837 -1.5233  0.7044
   55MOL   H16626194   2.299   4.747   0.602  0.4888  0.0014 -0.1231
   55MOL   H16726195   2.447   4.829   0.628  0.8414  1.0783 -1.5182
   55MOL   H16826196   2.295   4.974   0.425  0.3606  0.0763 -2.3963
   55MOL   H16926197   2.464   4.916   0.416  0.2737  0.1621 -1.3766
   55MOL   O17026198   2.285   4.838   0.217  0.1213  0.2891  0.2171
   55MOL   C17126199   2.225   4.744   0.126  0.4755 -0.1795  0.5959
   55MOL   C17226200   2.334   4.657   0.062 -0.0293  0.0003 -0.0736
   55MOL   C17326201   2.285   4.550   7.837  0.0647  0.2353  0.1314
   55MOL   C17426202   2.401   4.456   7.787  0.8492 -1.1411 -0.4256
   55MOL   O17526203   2.333   4.335   7.766  0.1370 -0.1569 -0.7096
   55MOL   C17626204   2.383   4.244   7.687  0.1027 -0.5268 -0.1184
   55MOL   O17726205   2.487   4.245   7.616  0.1449  0.0359  0.0547
   55MOL   C17826206   2.296   4.122   7.667  0.4671  0.2776  0.4621
   55MOL   C17926207   2.186   4.077   7.775 -0.5595 -0.5451  0.3831
   55MOL   C18026208   2.237   3.962   7.858  0.1693 -0.2169 -0.3475
   55MOL   O18126209   2.305   3.872   7.814 -0.0637  0.7296  0.1116
   55MOL   H18226210   2.149   4.688   0.180  0.1319 -1.1849 -0.9154
   55MOL   H18326211   2.173   4.785   0.040  0.2017 -1.0091  0.3617
   55MOL   H18426212   2.390   4.605   0.140 -1.6075 -1.9799 -0.2033
   55MOL   H18526213   2.405   4.720   0.009 -0.1438 -0.6006 -0.9535
   55MOL   H18626214   2.226   4.585   7.753  2.3156  1.7304 -0.8882
   55MOL   H18726215   2.210   4.503   0.025  0.7044  1.1714  1.6350
   55MOL   H18826216   2.444   4.494   7.695 -0.2167 -2.5458 -1.5324
   55MOL   H18926217   2.475   4.439   7.865 -2.4328 -3.9427  2.2654
   55MOL   H19026218   2.358   4.036   7.643  0.8541  0.5036  0.6464
   55MOL   H19126219   2.249   4.157   7.574 -0.5524  2.4081  1.7463
   55MOL   H19226220   2.166   4.157   7.847  0.6170 -0.4126  0.5752
   55MOL   H19326221   2.089   4.054   7.732  0.1118 -1.7952 -0.4785
   55MOL   O19426222   2.190   3.966   0.112  0.0558 -0.0072  0.1660
   55MOL   C19526223   2.183   3.852   0.202 -0.2811 -0.9377 -0.0718
   55MOL   C19626224   2.259   3.897   0.327 -0.1344  0.1305 -0.4474
   55MOL   C19726225   2.222   3.806   0.447  0.7180  0.1252 -0.2821
   55MOL   C19826226   2.263   3.882   0.567 -0.2603 -0.8020 -0.2539
   55MOL   O19926227   2.398   3.906   0.568 -0.0818  0.5319 -0.1856
   55MOL   C20026228   2.492   3.825   0.606  0.5081 -0.7498  0.0366
   55MOL   O20126229   2.476   3.708   0.646 -0.2298 -0.4105 -0.7704
   55MOL   C20226230   2.625   3.905   0.593  0.8534  0.9822  0.1615
   55MOL   C20326231   2.659   3.940   0.443 -0.4409  0.2204 -0.0293
   55MOL   C20426232   2.672   4.094   0.430 -0.2714  0.1309 -0.3890
   55MOL   O20526233   2.776   4.143   0.389  0.2201 -0.5953  0.5156
   55MOL   H20626234   2.077   3.826   0.205 -0.7868  1.0549 -0.0167
   55MOL   H20726235   2.238   3.770   0.157  1.0748  0.9322 -1.9535
   55MOL   H20826236   2.209   3.993   0.338  0.3216  0.3102  0.1015
   55MOL   H20926237   2.362   3.928   0.311  0.1739 -1.3701 -1.5073
   55MOL   H21026238   2.272   3.710   0.437  3.3615  1.2185  1.7912
   55MOL   H21126239   2.114   3.790   0.449  0.6287  0.6007  4.1055
   55MOL   H21226240   2.227   3.985   0.562  1.1462 -0.3695 -1.8751
   55MOL   H21326241   2.238   3.835   0.662  0.0526 -2.0305 -0.7799
   55MOL   H21426242   2.705   3.842   0.633 -1.2381 -1.8264  0.1110
   55MOL   H21526243   2.626   3.987   0.665  0.9367  0.1149  1.1542
   55MOL   H21626244   2.755   3.906   0.406 -0.7767  0.1794 -0.8824
   55MOL   H21726245   2.582   3.901   0.377  0.9776 -1.9515 -0.4462
   55MOL   O21826246   2.556   4.163   0.463 -0.1189  0.3827  0.0904
   55MOL   C21926247   2.548   4.304   0.457  0.0556 -0.3974 -0.5855
   55MOL   C22026248   2.443   4.356   0.351 -0.1378  0.5122  0.0179
   55MOL   C22126249   2.310   4.292   0.363 -0.1652  0.1176 -0.1347
   55MOL   C22226250   2.215   4.352   0.263 -0.0283  0.2557  0.1680
   55MOL   O22326251   2.100   4.272   0.278 -0.3677  0.2812 -0.1495
   55MOL   C22426252   1.993   4.284   0.187  0.5140 -0.6638 -0.3548
   55MOL   O22526253   1.987   4.373   0.107 -0.0537 -0.2968 -0.1751
   55MOL   C22626254   1.885   4.174   0.199 -0.1539 -0.8386  0.8127
   55MOL   C22726255   1.750   4.214   0.136  0.1592 -0.1950 -0.9661
   55MOL   C22826256   1.666   4.289   0.233  0.0929  0.1595  0.1904
   55MOL   O22926257   1.702   4.313   0.349  0.3050 -0.3833  0.2025
   55MOL   H23026258   2.514   4.338   0.555 -1.6139  0.1314 -1.3399
   55MOL   H23126259   2.648   4.346   0.444 -0.9785  1.7327 -1.8634
   55MOL   H23226260   2.477   4.344   0.248 -0.2991 -1.7919  0.1879
   55MOL   H23326261   2.442   4.462   0.373  2.5843  0.8064 -1.0788
   55MOL   H23426262   2.284   4.302   0.469  2.9603  1.1997  0.5987
   55MOL   H23526263   2.326   4.187   0.339 -0.1464  0.9372 -3.9338
   55MOL   H23626264   2.192   4.457   0.285 -4.1512 -0.4923 -0.0459
   55MOL   H23726265   2.247   4.332   0.161 -0.8430 -0.0248 -0.0386
   55MOL   H23826266   1.887   4.151   0.305  2.9348  0.0838  0.9783
   55MOL   H23926267   1.929   4.093   0.141 -1.8814 -1.6379  0.5677
   55MOL   H24026268   1.771   4.276   0.048  2.7176 -0.4798 -0.5788
   55MOL   H24126269   1.699   4.123   0.103  1.4717 -1.3244  0.0634
   55MOL   O24226270   1.555   4.336   0.182 -0.3329 -0.4810  0.6182
   55MOL   C24326271   1.460   4.406   0.255  0.1790 -0.5832  0.8546
   55MOL   C24426272   1.327   4.364   0.194  0.0291  0.4381 -0.8285
   55MOL   C24526273   1.298   4.421   0.055  0.4675  0.6511  0.6015
   55MOL   C24626274   1.155   4.412   0.016  0.3515  0.1521 -0.2742
   55MOL   O24726275   1.106   4.280   0.038 -0.2157 -0.7629  0.0003
   55MOL   C24826276   0.992   4.242   7.874 -0.2921  0.0940  0.2879
   55MOL   O24926277   0.920   4.317   7.809  0.5115  0.2417 -0.0972
   55MOL   C25026278   0.950   4.096   0.027  0.7294  0.7779  0.3663
   55MOL   C25126279   0.942   4.068   0.174  0.1142 -0.7513  1.0229
   55MOL   C25226280   0.929   3.913   0.190 -0.2352  0.4179 -0.1070
   55MOL   O25326281   0.929   3.836   0.091 -0.3253 -0.1671 -0.3959
   55MOL   H25426282   1.475   4.388   0.361  0.7395  0.0923  0.8944
   55MOL   H25526283   1.471   4.514   0.238 -0.0989 -0.3831  1.9288
   55MOL   H25626284   1.248   4.391   0.264  0.7699  0.3733  0.0539
   55MOL   H25726285   1.334   4.255   0.187  0.7737  0.4133  0.1522
   55MOL   H25826286   1.358   4.369   7.856  0.9940  0.1839  1.3501
   55MOL   H25926287   1.326   4.526   0.049 -1.6806  1.4168  2.8607
   55MOL   H26026288   1.093   4.481   0.075 -1.2033 -2.5624  1.3574
   55MOL   H26126289   1.147   4.431   7.784  2.8994  1.5021 -0.2720
   55MOL   H26226290   1.022   4.023   7.863  0.4142 -0.1206  1.4210
   55MOL   H26326291   0.849   4.085   7.861  1.3285 -0.4342 -0.8575
   55MOL   H26426292   1.016   4.121   0.235  0.5972 -1.1817  0.8178
   55MOL   H26526293   0.847   4.108   0.209 -0.2356 -1.9063  1.4020
   55MOL   O26626294   0.922   3.876   0.318 -0.0862 -0.5805  0.2371
   55MOL   C26726295   0.957   3.741   0.346 -0.5958 -0.4318  0.2341
   55MOL   C26826296   0.978   3.725   0.503  0.2428 -0.2208 -0.1012
   55MOL   C26926297   1.110   3.803   0.536 -0.4288 -0.7108 -0.5165
   55MOL   C27026298   1.153   3.758   0.675  0.0881 -0.6013 -0.8264
   55MOL   O27126299   1.282   3.812   0.695  0.7304 -0.3193 -0.0393
   55MOL   C27226300   1.354   3.791   0.804 -0.0061 -0.0147 -0.9193
   55MOL   O27326301   1.317   3.728   0.905 -0.2060 -0.0010 -0.3745
   55MOL   C27426302   1.489   3.857   0.805  0.2511 -0.1052  0.0671
   55MOL   C27526303   1.597   3.758   0.842  0.1792 -0.5740  0.0222
   55MOL   C27626304   1.635   3.760   0.995  0.7627 -0.5462 -0.3399
   55MOL   O27726305   1.589   3.845   1.069  0.4412  0.1202 -0.5767
   55MOL   H27826306   0.875   3.673   0.322 -0.6671 -0.9380  1.8232
   55MOL   H27926307   1.046   3.715   0.289 -2.2581  0.7963 -3.0080
   55MOL   H28026308   0.976   3.623   0.540 -4.2209 -0.2469 -0.1565
   55MOL   H28126309   0.892   3.776   0.548 -0.6205 -1.4161 -0.3781
   55MOL   H28226310   1.108   3.912   0.530 -0.5168 -0.5756  1.4396
   55MOL   H28326311   1.185   3.769   0.465 -0.8864  0.4191 -1.5640
   55MOL   H28426312   1.081   3.804   0.742  0.5870 -0.3485 -0.4626
   55MOL   H28526313   1.147   3.651   0.694 -2.6560 -0.4419 -0.6683
   55MOL   H28626314   1.492   3.933   0.883  0.4496  0.6229 -0.6386
   55MOL   H28726315   1.505   3.905   0.708  2.6236 -1.1870 -0.1206
   55MOL   H28826316   1.592   3.658   0.799  2.4269 -0.5151 -0.4825
   55MOL   H28926317   1.689   3.794   0.797  1.3172 -0.5680  2.2659
   55MOL   O29026318   1.712   3.665   1.038 -0.5054  0.6558 -0.4057
   55MOL   C29126319   1.747   3.657   1.173  0.0235  0.2750  0.8617
   55MOL   C29226320   1.822   3.529   1.197  0.0843 -0.5178  0.6180
   55MOL   C29326321   1.730   3.410   1.191  0.2358  0.0874 -0.0117
   55MOL   C29426322   1.807   3.286   1.226  0.1023  0.4746 -0.1081
   55MOL   O29526323   1.729   3.171   1.238 -0.1192 -0.2517 -0.3502
   55MOL   C29626324   1.792   3.055   1.271  0.3299 -0.8003  0.1119
   55MOL   O29726325   1.912   3.040   1.303  0.3777  0.4713  0.0062
   55MOL   C29826326   1.695   2.936   1.273  0.1439  0.6760  0.5721
   55MOL   C29926327   1.721   2.834   1.165  0.9285 -0.1377 -0.1789
   55MOL   C30026328   1.650   2.885   1.038  0.9391  0.2337 -0.4145
   55MOL   O30126329   1.531   2.854   1.017  0.2046  0.1738 -0.1128
   55MOL   H30226330   1.807   3.747   1.187  0.1753  0.2066  0.6401
   55MOL   H30326331   1.661   3.652   1.240 -2.4316 -1.5202 -2.3013
   55MOL   H30426332   1.871   3.538   1.294 -2.3103  0.9988  1.7495
   55MOL   H30526333   1.907   3.520   1.129 -0.2713 -1.2654  0.2681
   55MOL   H30626334   1.687   3.396   1.092 -0.6116 -0.6457  0.4587
   55MOL   H30726335   1.649   3.427   1.261 -0.4969 -0.0999 -0.8037
   55MOL   H30826336   1.885   3.271   1.151  1.4503  2.8140  0.7747
   55MOL   H30926337   1.860   3.295   1.320  0.6674 -5.1751  0.2583
   55MOL   H31026338   1.600   2.985   1.255 -0.3357 -0.6544 -0.5693
   55MOL   H31126339   1.693   2.886   1.370  2.2465 -0.5833  0.0168
   55MOL   H31226340   1.829   2.828   1.149  0.7794  0.9731 -1.5793
   55MOL   H31326341   1.681   2.738   1.197  1.4528  0.0460  1.0608
   55MOL   O31426342   1.729   2.963   0.964  0.2826 -0.6377  0.7750
   55MOL   C31526343   1.668   3.035   0.855  0.3778 -0.6434 -0.0110
   55MOL   C31626344   1.629   3.168   0.913  0.3981 -1.2124 -0.4899
   55MOL   C31726345   1.548   3.251   0.813 -0.3542 -0.0977  0.3765
   55MOL   C31826346   1.516   3.392   0.870 -0.2101 -0.1181 -0.1295
   55MOL   O31926347   1.423   3.383   0.977  0.4748  0.0579  0.5728
   55MOL   C32026348   1.294   3.387   0.952  0.4680 -0.1114 -0.3030
   55MOL   O32126349   1.239   3.387   0.837 -0.6629  0.1303  0.5242
   55MOL   C32226350   1.207   3.398   1.078  0.0926 -0.0191 -0.1812
   55MOL   C32326351   1.255   3.504   1.176 -0.4052 -0.1173  0.2089
   55MOL   C32426352   1.339   3.471   1.293  0.2309 -0.5498 -0.2316
   55MOL   O32526353   1.382   3.360   1.318 -0.0418 -0.2813  0.1363
   55MOL   H32626354   1.743   3.042   0.776 -1.5058  2.3767 -1.6540
   55MOL   H32726355   1.582   2.983   0.811 -0.0620 -0.9073  1.1452
   55MOL   H32826356   1.720   3.226   0.932  0.4534 -1.3642 -0.2907
   55MOL   H32926357   1.582   3.159   1.011 -0.7709  2.0747 -0.6911
   55MOL   H33026358   1.460   3.202   0.771 -0.4037  0.2138  0.1157
   55MOL   H33126359   1.614   3.251   0.725  1.6752 -1.5085  1.8490
   55MOL   H33226360   1.609   3.442   0.898 -0.7179  0.7100  0.1021
   55MOL   H33326361   1.473   3.455   0.791  0.5365  0.0346 -0.4167
   55MOL   H33426362   1.205   3.301   1.128  0.1170  0.1515  0.1543
   55MOL   H33526363   1.104   3.416   1.048  0.2691  0.8990 -0.2502
   55MOL   H33626364   1.304   3.583   1.119  0.1093 -1.5508 -1.3980
   55MOL   H33726365   1.165   3.551   1.215 -2.7467 -2.9720 -1.5165
   55MOL   O33826366   1.376   3.583   1.357 -0.4921 -0.0091  0.0962
   55MOL   C33926367   1.458   3.576   1.469  0.4555  0.4200  0.8001
   55MOL   C34026368   1.484   3.715   1.527 -0.2091 -0.1255 -0.8139
   55MOL   C34126369   1.568   3.812   1.440  0.0206 -0.0928  0.1851
   55MOL   C34226370   1.567   3.953   1.491  0.2817 -0.4595  0.3295
   55MOL   O34326371   1.640   3.950   1.608  0.1601 -0.6097  0.3412
   55MOL   C34426372   1.683   4.067   1.664  0.6281 -0.1502 -0.0231
   55MOL   O34526373   1.670   4.183   1.621 -0.2179  0.3860 -0.3372
   55MOL   C34626374   1.760   4.033   1.793  0.1654 -0.1160 -0.0222
   55MOL   C34726375   1.677   3.948   1.888  0.3361  0.7726 -0.9938
   55MOL   C34826376   1.744   3.813   1.909  1.1260 -0.1175 -0.4961
   55MOL   O34926377   1.690   3.715   1.857 -0.1726 -0.1725  0.2030
   55MOL   H35026378   1.415   3.508   1.543  1.7648  0.2184  1.3862
   55MOL   H35126379   1.551   3.525   1.442  0.0883 -0.4269  1.0961
   55MOL   H35226380   1.545   3.695   1.616  2.5289 -0.8711 -2.8063
   55MOL   H35326381   1.392   3.768   1.553  0.5134  0.5410  0.4888
   55MOL   H35426382   1.520   3.805   1.343 -0.9581 -0.0977  0.6629
   55MOL   H35526383   1.674   3.791   1.423  0.1739  2.6343 -2.7571
   55MOL   H35626384   1.604   4.031   1.425 -0.5005 -0.1307  0.2755
   55MOL   H35726385   1.466   3.986   1.514 -0.1971 -1.2795 -0.5509
   55MOL   H35826386   1.787   4.129   1.837 -0.3079 -0.9490  2.1708
   55MOL   H35926387   1.851   3.980   1.763  0.1911 -0.5344  0.7821
   55MOL   H36026388   1.662   3.998   1.984 -0.1715  0.5968 -0.9777
   55MOL   H36126389   1.570   3.947   1.868 -0.0898  1.8691  1.0616
   55MOL   O36226390   1.860   3.815   1.971 -0.1202  0.3201 -0.8259
   55MOL   C36326391   1.948   3.711   1.949  0.4844  0.5919 -0.6426
   55MOL   C36426392   2.088   3.729   2.004 -0.7857  0.5771  0.4940
   55MOL   C36526393   2.147   3.854   1.928  0.1817  0.5368 -0.1032
   55MOL   C36626394   2.275   3.906   1.988 -0.3392  0.5706  0.5634
   55MOL   O36726395   2.379   3.812   1.983 -0.5107  0.5278 -0.1193
   55MOL   C36826396   2.463   3.823   1.871  0.2443  0.3496  0.1251
   55MOL   O36926397   2.446   3.906   1.784 -0.4317 -0.6595 -0.1334
   55MOL   C37026398   2.572   3.718   1.863  0.1007  0.0709  0.4848
   55MOL   C37126399   2.629   3.691   2.005 -0.0859 -0.3945  0.5260
   55MOL   C37226400   2.721   3.569   2.014 -0.4808  0.1275  0.7487
   55MOL   O37326401   2.833   3.567   1.960 -0.7017  0.1720 -0.7512
   55MOL   H37426402   1.901   3.620   1.984  1.7418  1.2347  2.8754
   55MOL   H37526403   1.960   3.694   1.842  0.1492 -0.7718 -0.4679
   55MOL   H37626404   2.160   3.649   1.990  0.5761  1.9643 -0.6999
   55MOL   H37726405   2.090   3.754   2.111  2.5873 -2.3379  1.1987
   55MOL   H37826406   2.073   3.931   1.905  0.5041  0.7677 -0.3653
   55MOL   H37926407   2.178   3.827   1.827  1.4087 -0.2407  0.4698
   55MOL   H38026408   2.311   4.002   1.951  0.1414  0.3451  0.4386
   55MOL   H38126409   2.262   3.932   2.093 -0.5255  2.1004  0.1666
   55MOL   H38226410   2.646   3.762   1.795 -0.6716  0.0070 -0.4138
   55MOL   H38326411   2.537   3.630   1.809 -0.3835  0.7343 -0.2875
   55MOL   H38426412   2.676   3.785   2.035  0.3727 -0.6078  0.4798
   55MOL   H38526413   2.546   3.670   2.073  0.5961 -0.3295  1.3862
   55MOL   O38626414   2.663   3.477   2.090 -0.2050  0.2937 -0.1392
   55MOL   C38726415   2.743   3.362   2.122  0.3746  0.3592  0.6889
   55MOL   C38826416   2.662   3.234   2.078  0.2378 -1.2194  0.2556
   55MOL   C38926417   2.675   3.192   1.938  0.7125 -0.2330 -0.0638
   55MOL   C39026418   2.584   3.070   1.905  0.7520 -0.0850 -0.1213
   55MOL   O39126419   2.447   3.107   1.921  0.6431 -0.4899 -0.0790
   55MOL   C39226420   2.368   3.128   1.810  0.1269 -0.4226  0.0902
   55MOL   O39326421   2.398   3.089   1.697 -0.5428  0.1285 -0.1260
   55MOL   C39426422   2.238   3.202   1.834 -0.5304  0.2728 -0.3209
   55MOL   C39526423   2.268   3.343   1.892  0.3824 -0.3623 -0.9382
   55MOL   C39626424   2.189   3.370   2.011  0.2510  0.2430 -0.5927
   55MOL   O39726425   2.067   3.380   2.010  0.2983  0.6113 -0.1182
   55MOL   H39826426   2.839   3.351   2.071 -1.4528  0.4159 -2.9600
   55MOL   H39926427   2.766   3.362   2.228  2.5436  2.3208  0.2471
   55MOL   H40026428   2.558   3.232   2.112  0.4453  1.2431  1.0915
   55MOL   H40126429   2.704   3.147   2.129  1.0330 -2.2615 -2.1192
   55MOL   H40226430   2.779   3.172   1.911  0.6053  1.7756 -2.1216
   55MOL   H40326431   2.634   3.273   1.877  0.2057  0.2221  0.8789
   55MOL   H40426432   2.593   3.030   1.804 -0.7754  0.2193 -0.3866
   55MOL   H40526433   2.582   2.988   1.976  0.1145 -0.0728 -0.1249
   55MOL   H40626434   2.166   3.147   1.894  0.0279 -1.2316 -1.0166
   55MOL   H40726435   2.188   3.207   1.737 -2.5308 -1.0509  0.6224
   55MOL   H40826436   2.373   3.361   1.915  0.0204 -0.4959  0.8735
   55MOL   H40926437   2.245   3.418   1.816  1.8953  0.9457 -0.1321
   55MOL   O41026438   2.264   3.375   2.121 -0.0147 -0.0622 -0.9276
   55MOL   C41126439   2.212   3.417   2.244  0.7841  0.0281 -0.6303
   55MOL   C41226440   2.319   3.442   2.349  0.0682 -0.1159  0.1466
   55MOL   C41326441   2.381   3.582   2.332  0.2855 -0.9009  0.3789
   55MOL   C41426442   2.283   3.701   2.359  1.2152  0.5787  0.4565
   55MOL   O41526443   2.340   3.832   2.352 -0.3693 -0.2634 -0.6410
   55MOL   C41626444   2.269   3.933   2.393 -0.4320  0.4390  0.1799
   55MOL   O41726445   2.155   3.929   2.434 -0.5231 -0.0914  0.0178
   55MOL   C41826446   2.345   4.066   2.389  0.1054  0.2699  0.1715
   55MOL   C41926447   2.258   4.177   2.450  0.7093  0.1418  0.2583
   55MOL   C42026448   2.322   4.316   2.434  0.1813 -0.3404 -0.8867
   55MOL   O42126449   2.440   4.334   2.393 -0.0379  0.2469 -0.6117
   55MOL   H42226450   2.156   3.509   2.224 -0.8132 -0.7122  0.3438
   55MOL   H42326451   2.145   3.338   2.277 -0.5004  1.1726 -0.4468
   55MOL   H42426452   2.406   3.377   2.345  2.3896  2.9977 -2.5629
   55MOL   H42526453   2.288   3.445   2.454 -0.9544  1.5294 -0.1691
   55MOL   H42626454   2.416   3.593   2.230 -1.5067 -3.0758 -0.5038
   55MOL   H42726455   2.468   3.585   2.398  1.4752 -0.8327 -1.1793
   55MOL   H42826456   2.195   3.713   2.295  0.4218  3.2209  1.9430
   55MOL   H42926457   2.223   3.694   2.450 -0.2465  1.5584 -0.3930
   55MOL   H43026458   2.385   4.082   2.289 -0.4810 -0.8527 -0.2524
   55MOL   H43126459   2.432   4.051   2.454  0.6148  1.4724 -0.2150
   55MOL   H43226460   2.154   4.180   2.415 -0.4022 -2.5954  3.0749
   55MOL   H43326461   2.244   4.145   2.553  1.2859  0.8154  0.5473
   55MOL   O43426462   2.230   4.420   2.455  0.1638  0.2196  0.1693
   55MOL   C43526463   2.269   4.550   2.421 -0.2251  0.3786 -0.4103
   55MOL   C43626464   2.237   4.576   2.277  0.4758 -0.3734 -0.8246
   55MOL   C43726465   2.263   4.722   2.234  0.1484  0.0710  0.0548
   55MOL   C43826466   2.409   4.758   2.257  0.1449 -0.5618  0.3885
   55MOL   O43926467   2.492   4.665   2.181 -0.2602 -0.3588 -0.0669
   55MOL   C44026468   2.575   4.704   2.084 -0.5114 -0.5235  0.1973
   55MOL   O44126469   2.603   4.821   2.054 -0.3604  0.0073  0.2852
   55MOL   C44226470   2.627   4.582   2.009  0.5954  0.7824 -0.5408
   55MOL   C44326471   2.638   4.617   1.859 -0.1277  0.1350  0.3362
   55MOL   C44426472   2.513   4.606   1.779 -0.7030 -0.4157  0.5813
   55MOL   O44526473   2.399   4.613   1.830  0.7200  0.3372 -0.5138
   55MOL   H44626474   2.226   4.616   2.497 -0.2673  0.6624 -0.6790
   55MOL   H44726475   2.376   4.570   2.435 -0.1984 -0.2598  0.3265
   55MOL   H44826476   2.130   4.557   2.266 -0.0211  1.3746  0.8201
   55MOL   H44926477   2.299   4.511   2.216  1.7765 -1.4373  1.5596
   55MOL   H45026478   2.195   4.781   2.295  1.6686  3.1060 -1.1139
   55MOL   H45126479   2.238   4.737   2.129 -2.2386  3.0148  0.9849
   55MOL   H45226480   2.432   4.863   2.238  1.1957 -0.3662  2.6354
   55MOL   H45326481   2.426   4.745   2.364 -0.9165  1.1039  0.7686
   55MOL   H45426482   2.559   4.499   2.030  2.1927 -0.1006  1.2902
   55MOL   H45526483   2.724   4.546   2.042 -1.2454 -1.0317  3.1843
   55MOL   H45626484   2.669   4.721   1.849 -1.1952  0.4630  0.3997
   55MOL   H45726485   2.724   4.567   1.814  0.3304 -0.1393  1.5054
   55MOL   O45826486   2.528   4.593   1.647 -0.0570 -0.3390 -0.3488
   55MOL   C45926487   2.415   4.561   1.560  0.7151 -0.4831  0.0899
   55MOL   C46026488   2.321   4.671   1.522  0.0930 -0.4154  0.6045
   55MOL   C46126489   2.223   4.623   1.420 -0.0801  0.5337  0.3274
   55MOL   C46226490   2.125   4.728   1.389  0.2305 -0.2343 -0.3982
   55MOL   O46326491   1.999   4.684   1.332 -0.7516 -0.0801 -1.0557
   55MOL   C46426492   1.962   4.736   1.217 -0.5320  0.3675  0.4636
   55MOL   O46526493   2.029   4.823   1.165 -0.3129  0.6716 -0.0172
   55MOL   C46626494   1.835   4.680   1.157  0.1820 -0.2177 -0.5085
   55MOL   C46726495   1.845   4.525   1.127 -0.1439 -0.8409  0.0054
   55MOL   C46826496   1.920   4.484   1.005 -0.8430  0.0572 -0.5777
   55MOL   O46926497   1.893   4.535   0.894 -0.0695  0.5509 -0.3844
   55MOL   H47026498   2.458   4.505   1.477 -3.0340 -2.4208 -0.6535
   55MOL   H47126499   2.363   4.477   1.607 -1.8997  1.3456  0.5869
   55MOL   H47226500   2.359   4.767   1.487 -2.3334  0.1971 -0.4977
   55MOL   H47326501   2.275   4.713   1.612  1.1091  1.3302  0.3297
   55MOL   H47426502   2.150   4.558   1.469  0.1695 -0.8014 -1.0414
   55MOL   H47526503   2.264   4.583   1.328 -0.6902  1.1373 -0.2079
   55MOL   H47626504   2.095   4.787   1.476 -0.0430  0.8833 -1.2346
   55MOL   H47726505   2.166   4.802   1.320  2.7715  0.5908  1.8922
   55MOL   H47826506   1.799   4.735   1.070 -1.2972 -0.3504 -0.0007
   55MOL   H47926507   1.755   4.676   1.231 -0.0729 -1.9065 -0.8537
   55MOL   H48026508   1.891   4.467   1.207 -1.0528 -0.9741  0.4402
   55MOL   H48126509   1.743   4.491   1.142 -0.2481 -1.1671 -1.3923
   55MOL   H48226510   1.996   4.408   1.020  0.6621  1.9583  1.9206
   56MOL     O126511   3.756   6.345   0.352 -0.7509 -0.0878 -0.2383
   56MOL     C226512   3.841   6.445   0.294  0.0695  0.3369  0.0732
   56MOL     C326513   3.911   6.379   0.174 -0.0560  0.8746  0.6360
   56MOL     C426514   4.006   6.460   0.092 -0.1196  0.4411  0.5533
   56MOL     C526515   4.148   6.488   0.169  0.4829  0.1197  0.4892
   56MOL     O626516   4.212   6.604   0.111 -0.4406 -0.5793  0.2932
   56MOL     C726517   4.316   6.668   0.173  0.4283 -0.4554  0.1638
   56MOL     O826518   4.360   6.639   0.284  0.3363  0.0298  0.8605
   56MOL     C926519   4.371   6.785   0.100 -0.1154 -0.5636 -0.3708
   56MOL    C1026520   4.431   6.900   0.186 -0.0765 -0.2665 -0.0398
   56MOL    C1126521   4.579   6.895   0.166  0.2639  0.8025 -0.2895
   56MOL    O1226522   4.645   6.984   0.113 -0.3484  0.2525 -0.3226
   56MOL    H1326523   3.777   6.529   0.264 -0.6827  0.0023  0.7139
   56MOL    H1426524   3.915   6.483   0.364 -0.8678 -1.3324  2.0065
   56MOL    H1526525   3.828   6.338   0.117  0.8125 -0.5936  0.3777
   56MOL    H1626526   3.965   6.294   0.216 -1.3149  0.7064  1.9299
   56MOL    H1726527   3.958   6.547   0.047 -0.6568  0.0736  0.4002
   56MOL    H1826528   4.029   6.403   0.002 -1.9430  2.0745 -0.9972
   56MOL    H1926529   4.114   6.520   0.268 -0.8117 -0.6147  0.2928
   56MOL    H2026530   4.218   6.405   0.164  1.3827  0.9422 -0.7878
   56MOL    H2126531   4.283   6.821   0.047 -0.3073  0.0598  0.3568
   56MOL    H2226532   4.439   6.737   0.030 -0.5501 -0.9131 -0.5486
   56MOL    H2326533   4.407   7.003   0.158  0.7680 -0.4315 -1.4125
   56MOL    H2426534   4.398   6.890   0.289 -2.7205  0.3252 -0.7799
   56MOL    H2526535   3.737   6.369   0.442  1.7451 -0.2051  0.3361
   56MOL    O2626536   4.630   6.782   0.222  0.0065  0.4125 -0.5319
   56MOL    C2726537   4.764   6.748   0.210 -0.1976  0.3028  0.0055
   56MOL    C2826538   4.777   6.617   0.122 -0.5722  0.1083  0.4658
   56MOL    C2926539   4.696   6.497   0.177 -0.1405 -0.6247  0.4200
   56MOL    C3026540   4.682   6.387   0.073 -0.1053  0.1857  1.0945
   56MOL    O3126541   4.591   6.410   7.837 -0.4925  0.1442  0.2890
   56MOL    C3226542   4.465   6.372   7.849  0.3637 -0.4465 -0.4459
   56MOL    O3326543   4.416   6.319   0.075 -0.0932 -0.1149 -0.3406
   56MOL    C3426544   4.383   6.392   7.725 -0.5320 -0.5545  0.3997
   56MOL    C3526545   4.256   6.306   7.719  0.0651 -0.3826  0.5289
   56MOL    C3626546   4.290   6.165   7.680 -0.2111  0.0184 -0.4395
   56MOL    O3726547   4.287   6.070   7.758  0.7402  0.2218  0.5143
   56MOL    H3826548   4.834   6.824   0.175  0.4030 -0.1746  0.1655
   56MOL    H3926549   4.797   6.721   0.311 -0.4460  3.9933  1.1564
   56MOL    H4026550   4.882   6.590   0.120 -0.4228  0.7496 -0.3252
   56MOL    H4126551   4.738   6.648   0.025  0.9845  0.0741 -0.1756
   56MOL    H4226552   4.604   6.539   0.218  0.2732  2.1857 -1.3687
   56MOL    H4326553   4.755   6.452   0.256 -0.5244 -0.6590  0.6921
   56MOL    H4426554   4.779   6.367   0.027 -0.9304 -1.9886  0.2742
   56MOL    H4526555   4.669   6.293   0.126 -1.5323  0.0934  0.5997
   56MOL    H4626556   4.453   6.376   7.643 -0.3086  1.3547  0.2136
   56MOL    H4726557   4.362   6.498   7.719 -0.1683 -0.3837  2.0432
   56MOL    H4826558   4.214   6.301   7.819 -0.2145 -2.8465  0.3122
   56MOL    H4926559   4.187   6.334   7.638 -2.1759  0.0606  2.5331
   56MOL    O5026560   4.314   6.156   7.549  0.3191 -0.0822  0.4201
   56MOL    C5126561   4.341   6.028   7.481 -0.6023  0.3132  0.6312
   56MOL    C5226562   4.387   6.057   7.339  0.5914 -0.1456 -0.1134
   56MOL    C5326563   4.539   6.093   7.314  0.0078  0.1311  0.7360
   56MOL    C5426564   4.563   6.156   7.177 -0.0658 -0.1371 -0.2085
   56MOL    O5526565   4.697   6.135   7.149  0.2923  0.2445 -0.5484
   56MOL    C5626566   4.789   6.222   7.174 -0.1822 -1.2737  0.3257
   56MOL    O5726567   4.769   6.330   7.229  0.0045  0.3741 -0.2311
   56MOL    C5826568   4.922   6.182   7.112 -0.0628 -0.8060 -0.2582
   56MOL    C5926569   5.041   6.223   7.206  0.0743 -0.7328  0.3528
   56MOL    C6026570   5.160   6.132   7.166 -0.3265 -0.7816  0.4344
   56MOL    O6126571   5.215   6.066   7.248  0.2349  0.5527  0.2945
   56MOL    H6226572   4.409   5.957   7.529 -0.0309 -0.1462 -0.8275
   56MOL    H6326573   4.251   5.968   7.465 -0.9762  1.2771 -0.9495
   56MOL    H6426574   4.323   6.139   7.305  0.2529 -1.1648 -1.9722
   56MOL    H6526575   4.371   5.970   7.276  0.0508 -2.3644  2.9938
   56MOL    H6626576   4.593   5.999   7.319  0.3309  0.3346  1.0929
   56MOL    H6726577   4.578   6.153   7.396  2.9234 -0.6102 -0.0702
   56MOL    H6826578   4.508   6.113   7.093  1.2854 -2.1159 -0.1028
   56MOL    H6926579   4.543   6.260   7.204  2.4043 -0.1378  1.7964
   56MOL    H7026580   4.942   6.224   7.014  0.1891 -0.7107 -0.1672
   56MOL    H7126581   4.918   6.074   7.107  0.3858 -0.9256  1.4289
   56MOL    H7226582   5.068   6.328   7.198 -0.2607 -0.5259  1.7576
   56MOL    H7326583   5.015   6.207   7.311  1.8314 -0.8807  0.7831
   56MOL    O7426584   5.185   6.141   7.033  0.0017  0.5422  0.3904
   56MOL    C7526585   5.276   6.040   6.984  0.7318 -0.1103 -0.0729
   56MOL    C7626586   5.290   6.065   6.835  0.3241  0.5402 -0.3225
   56MOL    C7726587   5.368   6.194   6.806  0.3168 -0.5641 -0.0841
   56MOL    C7826588   5.363   6.226   6.655 -0.1768 -0.3524  0.0582
   56MOL    O7926589   5.237   6.278   6.616 -0.1628 -0.0913 -0.2441
   56MOL    C8026590   5.215   6.406   6.620 -0.9230  0.3786 -0.5017
   56MOL    O8126591   5.294   6.488   6.666  0.3812 -0.0058  0.2189
   56MOL    C8226592   5.091   6.455   6.558  0.1494  0.3035  0.0809
   56MOL    C8326593   5.021   6.560   6.653 -0.2695  0.7990 -0.1799
   56MOL    C8426594   4.945   6.500   6.770 -0.0673 -0.6788  0.3157
   56MOL    O8526595   4.934   6.381   6.789 -0.0935 -0.4383 -0.4949
   56MOL    H8626596   5.370   6.065   7.033  0.9210  1.1336 -1.0324
   56MOL    H8726597   5.249   5.937   7.005  0.8986 -0.1387 -0.0053
   56MOL    H8826598   5.195   6.055   6.783 -0.0096  0.4137  0.3039
   56MOL    H8926599   5.342   5.983   6.787  1.0618  0.8593 -0.0774
   56MOL    H9026600   5.473   6.172   6.827  0.3205 -1.0291 -0.5761
   56MOL    H9126601   5.344   6.286   6.858  1.7843 -0.1747 -0.0647
   56MOL    H9226602   5.437   6.298   6.617 -1.4104 -0.4390 -2.6022
   56MOL    H9326603   5.362   6.142   6.586  0.2045  0.8114 -1.3934
   56MOL    H9426604   5.022   6.374   6.534  0.1403  0.8217 -1.7138
   56MOL    H9526605   5.115   6.506   6.465  1.4561  0.8219  0.6895
   56MOL    H9626606   5.102   6.621   6.693  1.8909 -2.6011  0.8502
   56MOL    H9726607   4.940   6.619   6.612  0.4964  1.8370 -0.2040
   56MOL    O9826608   4.901   6.601   6.849 -0.4316  0.2291  0.2757
   56MOL    C9926609   4.857   6.574   6.981 -0.2784  0.5080  0.0976
   56MOL   C10026610   4.755   6.665   7.036  0.8049 -0.6771 -0.9285
   56MOL   C10126611   4.796   6.811   7.042  0.5237 -0.0716  0.3265
   56MOL   C10226612   4.671   6.909   7.058 -0.5890 -0.3666 -0.3605
   56MOL   O10326613   4.717   7.045   7.068  0.0811  0.3411 -0.0231
   56MOL   C10426614   4.768   7.076   7.178 -0.5273  0.0809 -0.9697
   56MOL   O10526615   4.777   7.013   7.280  0.2819 -0.3320  0.0731
   56MOL   C10626616   4.829   7.221   7.171  0.9946 -0.0695 -0.0539
   56MOL   C10726617   4.926   7.242   7.049  0.4028  0.4085  0.1060
   56MOL   C10826618   5.019   7.361   7.060  0.5494 -0.5113 -0.1976
   56MOL   O10926619   5.019   7.443   7.156  0.8991  0.8523 -0.3170
   56MOL   H11026620   4.821   6.472   6.994 -1.6724  1.2440  2.2855
   56MOL   H11126621   4.947   6.571   7.042  0.2782  1.3118 -0.6683
   56MOL   H11226622   4.715   6.631   7.132 -0.5321 -0.5463 -1.4381
   56MOL   H11326623   4.673   6.659   6.964  1.0402 -0.8307 -1.1838
   56MOL   H11426624   4.842   6.846   6.950  1.5584  1.9872  1.5825
   56MOL   H11526625   4.872   6.819   7.119  0.7772 -1.2532  0.2003
   56MOL   H11626626   4.613   6.904   6.966 -2.3806  1.3033  0.6391
   56MOL   H11726627   4.615   6.882   7.147 -1.3985  0.0169 -0.7544
   56MOL   H11826628   4.880   7.246   7.264 -0.7785  0.4506  0.7976
   56MOL   H11926629   4.739   7.282   7.166  0.5500 -0.7497 -0.4141
   56MOL   H12026630   4.983   7.153   7.024  1.4748  1.6543 -2.1311
   56MOL   H12126631   4.876   7.274   6.957  1.0880 -2.2643 -1.2290
   56MOL   O12226632   5.094   7.367   6.952  0.6098  0.4663 -0.4158
   56MOL   C12326633   5.208   7.457   6.945  0.0332  0.0535  0.1734
   56MOL   C12426634   5.332   7.396   7.017  0.1303 -0.5500 -0.7582
   56MOL   C12526635   5.395   7.303   6.907  0.2486  0.1552  0.5142
   56MOL   C12626636   5.516   7.247   6.979 -0.4264 -0.3093  0.8165
   56MOL   O12726637   5.615   7.340   7.010 -0.0822  0.7488 -0.6114
   56MOL   C12826638   5.715   7.357   6.930 -1.1240 -0.2393  0.1914
   56MOL   O12926639   5.731   7.290   6.821 -1.0019 -0.1815 -0.2017
   56MOL   C13026640   5.820   7.461   6.973  0.3989 -0.0855  0.0058
   56MOL   C13126641   5.970   7.424   6.970 -0.6760 -0.0788  0.4053
   56MOL   C13226642   6.025   7.372   7.105  0.3744  0.0096  0.2985
   56MOL   O13326643   5.952   7.332   7.194  0.2832 -0.0834 -0.3288
   56MOL   H13426644   5.232   7.471   6.839  1.9289 -0.5019  0.5057
   56MOL   H13526645   5.180   7.549   6.996 -0.9007  0.1362 -0.4799
   56MOL   H13626646   5.309   7.361   7.117 -0.0804  1.8806  0.0632
   56MOL   H13726647   5.400   7.477   7.043  0.2974 -1.5280  1.9632
   56MOL   H13826648   5.426   7.353   6.816  1.3261 -2.1992 -0.4444
   56MOL   H13926649   5.321   7.231   6.872 -2.2462  3.2326 -0.7555
   56MOL   H14026650   5.471   7.198   7.066  2.7498  1.3670  3.5087
   56MOL   H14126651   5.557   7.159   6.929  1.3543  0.8684  0.1950
   56MOL   H14226652   5.787   7.494   7.071 -2.1806 -0.0045 -0.8654
   56MOL   H14326653   5.810   7.552   6.914 -1.2404 -0.5512 -0.4568
   56MOL   H14426654   5.986   7.346   6.895  0.3572 -1.3462  1.8936
   56MOL   H14526655   6.028   7.511   6.940 -0.0930 -0.5141  0.2585
   56MOL   O14626656   6.157   7.362   7.111 -0.8421  0.0288 -0.1226
   56MOL   C14726657   6.229   7.347   7.239 -0.1158  0.0266  0.7785
   56MOL   C14826658   6.237   7.203   7.279 -0.2946 -0.0280  0.8529
   56MOL   C14926659   6.340   7.171   7.388  0.4008  0.8251  0.8369
   56MOL   C15026660   6.351   7.017   7.409 -0.3911  0.0334  0.1894
   56MOL   O15126661   6.453   7.000   7.509 -0.3695  0.0126  0.3206
   56MOL   C15226662   6.416   6.956   7.633 -0.3064  0.1042  0.0716
   56MOL   O15326663   6.298   6.959   7.671  0.0950  0.9020 -0.0547
   56MOL   C15426664   6.529   6.907   7.722 -0.0518 -0.0789 -0.4081
   56MOL   C15526665   6.619   6.802   7.652  0.3873 -0.1272  0.1530
   56MOL   C15626666   6.622   6.668   7.730  0.8104 -0.3017  0.0226
   56MOL   O15726667   6.586   6.563   7.670 -0.0712  0.4853  0.4191
   56MOL   H15826668   6.325   7.396   7.220  0.1891 -0.4520  1.0781
   56MOL   H15926669   6.182   7.408   7.317 -0.2529 -1.5835  1.9844
   56MOL   H16026670   6.264   7.146   7.190  0.7772  1.0431  0.4690
   56MOL   H16126671   6.138   7.171   7.309 -0.3038  0.4397  1.3325
   56MOL   H16226672   6.327   7.224   7.483  1.4395 -0.0769  1.4933
   56MOL   H16326673   6.439   7.202   7.357  1.1641 -1.7448  0.6373
   56MOL   H16426674   6.256   6.967   7.430 -1.0821  1.3094  0.1653
   56MOL   H16526675   6.397   6.975   7.320 -0.8014 -0.2718  0.1219
   56MOL   H16626676   6.482   6.870   7.813  2.3226  1.6099  1.5706
   56MOL   H16726677   6.580   7.000   7.747 -0.9926  0.2576  0.3084
   56MOL   H16826678   6.582   6.788   7.550  1.7207 -0.3084 -0.3120
   56MOL   H16926679   6.724   6.829   7.641  0.5928 -0.2254  1.8047
   56MOL   O17026680   6.640   6.680   7.862 -0.6839 -0.8014 -0.2626
   56MOL   C17126681   6.607   6.578   0.082  0.4401  0.0255 -0.4084
   56MOL   C17226682   6.598   6.644   0.223 -0.1688  0.4090 -0.3588
   56MOL   C17326683   6.637   6.549   0.337 -0.0272  0.3925  0.0800
   56MOL   C17426684   6.603   6.604   0.473  0.0439 -0.0044 -0.1207
   56MOL   O17526685   6.641   6.738   0.480 -0.0997 -0.0859 -0.4725
   56MOL   C17626686   6.618   6.809   0.586  0.4100  0.3586 -0.0343
   56MOL   O17726687   6.552   6.772   0.687 -0.0754 -0.2494  0.9020
   56MOL   C17826688   6.684   6.945   0.585 -0.1106 -0.1529  0.1873
   56MOL   C17926689   6.836   6.931   0.627  0.0719 -0.9127 -0.2538
   56MOL   C18026690   6.934   6.942   0.506 -0.6611 -0.4693 -0.7732
   56MOL   O18126691   7.038   7.003   0.510  0.0324  0.1964 -0.9946
   56MOL   H18226692   6.502   6.554   0.062  0.4963 -0.1003 -0.5588
   56MOL   H18326693   6.672   6.492   0.068 -2.5343 -2.4846  0.6674
   56MOL   H18426694   6.495   6.679   0.230 -0.9521 -1.7482 -0.8891
   56MOL   H18526695   6.668   6.728   0.228  1.0037 -0.6937  2.2009
   56MOL   H18626696   6.746   6.548   0.326 -0.0528  1.3260 -0.3100
   56MOL   H18726697   6.610   6.444   0.322  0.5641  0.3952 -1.0427
   56MOL   H18826698   6.498   6.589   0.495  0.5868 -1.0631  1.9134
   56MOL   H18926699   6.659   6.546   0.546 -1.1782  0.5564  1.2818
   56MOL   H19026700   6.633   7.008   0.658 -0.2514 -1.4028  1.1776
   56MOL   H19126701   6.681   6.999   0.490 -0.5358 -0.1994  0.1757
   56MOL   H19226702   6.865   6.999   0.707 -1.4438  0.4343 -0.8343
   56MOL   H19326703   6.850   6.830   0.666  0.7615  0.4685  3.2069
   56MOL   O19426704   6.897   6.877   0.395  0.6674 -0.1546 -0.7641
   56MOL   C19526705   6.981   6.843   0.285  0.1382 -0.4557  0.4840
   56MOL   C19626706   6.963   6.955   0.177  0.5385  0.1934  0.5052
   56MOL   C19726707   6.817   6.965   0.116 -0.3079 -0.5970 -0.5591
   56MOL   C19826708   6.714   7.023   0.216 -0.7692  0.4770  0.4580
   56MOL   O19926709   6.581   7.023   0.161  0.0030 -0.3473  0.8246
   56MOL   C20026710   6.480   7.039   0.243 -0.3660 -0.1789 -0.0180
   56MOL   O20126711   6.483   7.068   0.363  0.6038 -0.5640 -0.3726
   56MOL   C20226712   6.340   7.030   0.181  0.2652  0.0174 -0.1355
   56MOL   C20326713   6.303   7.126   0.064 -0.0101 -0.2551 -0.0782
   56MOL   C20426714   6.265   7.265   0.116  0.0795  0.0258  0.1125
   56MOL   O20526715   6.153   7.298   0.145  0.6927 -0.6625 -0.8285
   56MOL   H20626716   7.088   6.849   0.304  0.6415 -1.6570 -1.8426
   56MOL   H20726717   6.950   6.745   0.249  1.0449 -0.0685 -1.4156
   56MOL   H20826718   7.029   6.934   0.093  0.1355 -0.4480  0.3452
   56MOL   H20926719   6.994   7.048   0.224 -0.7849 -0.4805  2.8046
   56MOL   H21026720   6.777   6.870   0.081 -2.3984  0.2338 -0.4566
   56MOL   H21126721   6.817   7.023   0.024  2.0106  0.2709 -0.0422
   56MOL   H21226722   6.715   6.969   0.310 -2.2104 -1.2625 -0.4962
   56MOL   H21326723   6.752   7.124   0.235  0.9080 -0.1796  0.6635
   56MOL   H21426724   6.265   7.043   0.259  0.9967  2.6709  0.1555
   56MOL   H21526725   6.318   6.928   0.150 -1.7593  0.3393  0.1633
   56MOL   H21626726   6.378   7.127   7.860 -0.3663  1.5437 -0.4322
   56MOL   H21726727   6.210   7.091   0.018  0.6526 -0.0674 -1.5738
   56MOL   O21826728   6.379   7.343   0.111 -0.3505  0.2061  0.4182
   56MOL   C21926729   6.371   7.482   0.136  0.3520 -0.3389 -0.0631
   56MOL   C22026730   6.405   7.508   0.278  0.1002  0.0199  0.0898
   56MOL   C22126731   6.297   7.463   0.378  0.2637  0.0933  0.3235
   56MOL   C22226732   6.316   7.515   0.520  0.2942 -0.2609  0.0137
   56MOL   O22326733   6.242   7.634   0.552  0.1694 -0.0173  0.6321
   56MOL   C22426734   6.305   7.752   0.538 -0.2656  0.3611 -0.2501
   56MOL   O22526735   6.416   7.767   0.495  0.9675 -0.6477  0.0748
   56MOL   C22626736   6.217   7.861   0.587 -0.2449 -0.0909 -0.0559
   56MOL   C22726737   6.299   0.107   0.637 -0.2473  0.2101 -0.6858
   56MOL   C22826738   6.296   0.212   0.535  0.1490 -0.0528 -0.3102
   56MOL   O22926739   6.377   0.210   0.442 -0.4375  0.4908  0.1270
   56MOL   H23026740   6.451   7.524   0.075 -1.0605  1.8673 -0.4332
   56MOL   H23126741   6.279   7.534   0.111  1.3853  1.1950 -0.7555
   56MOL   H23226742   6.432   7.612   0.293 -0.3075  0.0598  0.5586
   56MOL   H23326743   6.494   7.453   0.309 -0.6781 -0.8890  0.7369
   56MOL   H23426744   6.308   7.355   0.384  0.0417  0.1330  1.4247
   56MOL   H23526745   6.198   7.486   0.339 -0.7393 -2.0775  1.5088
   56MOL   H23626746   6.281   7.436   0.587 -0.7976  0.0958 -0.1328
   56MOL   H23726747   6.418   7.538   0.549  0.5098 -0.5890 -0.4755
   56MOL   H23826748   6.166   7.824   0.676 -0.6549  0.2057 -0.1645
   56MOL   H23926749   6.145   0.016   0.511 -1.0077 -3.2477 -0.6394
   56MOL   H24026750   6.258   0.144   0.730 -0.5385 -0.0969 -0.6903
   56MOL   H24126751   6.405   0.091   0.658 -0.3132 -0.4642 -0.8341
   56MOL   O24226752   6.201   0.301   0.553  0.7958  0.0698  0.0136
   56MOL   C24326753   6.187   0.400   0.455 -0.0580 -0.0235 -1.2483
   56MOL   C24426754   6.048   0.409   0.400  0.2616  0.7642 -0.1344
   56MOL   C24526755   5.923   0.433   0.493 -0.4234  0.1694 -0.4241
   56MOL   C24626756   5.807   0.481   0.407 -0.3045  0.3790  0.5520
   56MOL   O24726757   5.693   0.504   0.489 -0.1166  0.5552  0.0977
   56MOL   C24826758   5.604   0.595   0.455  0.2452 -0.6701  0.1309
   56MOL   O24926759   5.608   0.666   0.352  0.3344 -0.2141  0.2467
   56MOL   C25026760   5.489   0.607   0.551 -0.1030  0.0642  0.0534
   56MOL   C25126761   5.375   0.517   0.515 -0.1918  0.2192  0.2638
   56MOL   C25226762   5.288   0.574   0.404  1.7071  0.3926  0.0388
   56MOL   O25326763   5.265   0.509   0.305  0.0880 -0.0839  0.2459
   56MOL   H25426764   6.203   0.496   0.505 -0.9193 -0.2498 -0.5327
   56MOL   H25526765   6.259   0.405   0.373  0.2690  1.9143 -0.8755
   56MOL   H25626766   6.029   0.318   0.343  1.8220  0.3974 -0.1056
   56MOL   H25726767   6.042   0.480   0.317  1.7573 -0.1313 -1.0275
   56MOL   H25826768   5.936   0.500   0.578  0.9961 -0.2969 -0.2568
   56MOL   H25926769   5.892   0.336   0.533 -1.9886  0.8793  0.1334
   56MOL   H26026770   5.830   0.560   0.336 -1.9670 -0.9432 -1.5068
   56MOL   H26126771   5.770   0.405   0.339 -3.4952  1.0246  1.4948
   56MOL   H26226772   5.454   0.710   0.549 -1.4626 -0.3676  0.9160
   56MOL   H26326773   5.507   0.592   0.657 -1.0440 -2.1309 -0.0773
   56MOL   H26426774   5.410   0.419   0.483  0.7173  0.3237  0.9477
   56MOL   H26526775   5.302   0.499   0.594 -0.8765 -2.8290 -0.9594
   56MOL   O26626776   5.235   0.695   0.436  0.2760  0.2234 -0.1907
   56MOL   C26726777   5.143   0.756   0.348 -0.8016  0.2409  0.1187
   56MOL   C26826778   5.155   0.906   0.369  0.2334  0.0742 -0.4118
   56MOL   C26926779   5.062   0.975   0.276  0.3852  0.5942  0.1478
   56MOL   C27026780   5.059   1.126   0.303 -0.4367 -0.0963  0.7932
   56MOL   O27126781   4.984   1.179   0.195  0.4861  0.5191 -0.4416
   56MOL   C27226782   5.041   1.245   0.105  0.1986 -0.3469 -0.4628
   56MOL   O27326783   5.162   1.275   0.095  0.3792 -0.4630 -0.0653
   56MOL   C27426784   4.954   1.273   7.849  0.0395 -0.1069 -0.5280
   56MOL   C27526785   5.022   1.327   7.728  0.1419  0.3922 -0.4470
   56MOL   C27626786   4.982   1.469   7.705 -0.0853  0.3877  1.0739
   56MOL   O27726787   4.926   1.539   7.794 -0.4938 -0.2922 -0.1018
   56MOL   H27826788   5.140   0.733   0.241 -2.7707  2.6587 -0.3918
   56MOL   H27926789   5.047   0.713   0.374 -0.5456 -0.4947 -0.1354
   56MOL   H28026790   5.254   0.948   0.351  0.5111 -0.4756 -0.1712
   56MOL   H28126791   5.129   0.932   0.472 -0.1418 -0.5267 -0.3565
   56MOL   H28226792   4.964   0.927   0.281  0.7497 -0.1520  0.2799
   56MOL   H28326793   5.101   0.959   0.175 -1.8013  1.5246 -0.8627
   56MOL   H28426794   5.005   1.144   0.396 -1.3703 -1.3491  0.5104
   56MOL   H28526795   5.160   1.165   0.303  0.0855 -0.9828 -4.8482
   56MOL   H28626796   4.860   1.324   7.870 -0.0301 -0.0559 -0.9462
   56MOL   H28726797   4.924   1.171   7.823 -0.2338 -0.1365 -0.0906
   56MOL   H28826798   5.130   1.323   7.740  0.0050 -1.1905  0.3418
   56MOL   H28926799   5.005   1.261   7.643  1.8296 -0.7593  0.0742
   56MOL   O29026800   5.016   1.512   7.578  0.0533  0.5450 -0.3007
   56MOL   C29126801   4.977   1.637   7.527 -0.5003  0.0193  0.1926
   56MOL   C29226802   5.096   1.725   7.499  0.1979  0.2793  0.0849
   56MOL   C29326803   5.160   1.779   7.626 -0.2087  0.4250 -0.2178
   56MOL   C29426804   5.296   1.844   7.606  0.2156  0.6213 -0.0992
   56MOL   O29526805   5.343   1.878   7.738 -0.4477  0.1618  0.0602
   56MOL   C29626806   5.382   1.997   7.770 -0.2189  0.6328  0.5591
   56MOL   O29726807   5.355   2.092   7.703 -0.1216 -0.1790 -0.3823
   56MOL   C29826808   5.457   1.998   0.025 -0.3914  0.2719  0.1788
   56MOL   C29926809   5.363   2.035   0.143  0.2565  0.4950 -0.2942
   56MOL   C30026810   5.389   2.178   0.194  0.1476  0.0309  0.0827
   56MOL   O30126811   5.294   2.262   0.198 -0.1631  0.1336  0.4080
   56MOL   H30226812   4.935   1.628   7.427 -0.2643 -0.3306  0.1238
   56MOL   H30326813   4.903   1.686   7.591 -0.4078 -2.0430  1.9225
   56MOL   H30426814   5.059   1.812   7.445  1.7619  0.8698 -0.0472
   56MOL   H30526815   5.179   1.692   7.436  0.7426  0.0511  0.9200
   56MOL   H30626816   5.154   1.704   7.705 -0.7985  1.1536  0.4394
   56MOL   H30726817   5.093   1.856   7.664 -0.7326  0.2411 -0.7588
   56MOL   H30826818   5.371   1.777   7.565  1.3070  2.9294 -1.9930
   56MOL   H30926819   5.295   1.933   7.542  0.0211  0.1584 -0.7429
   56MOL   H31026820   5.542   2.063   0.003  1.0539 -1.3668  0.8287
   56MOL   H31126821   5.507   1.903   0.039 -3.2772 -1.3540 -0.2387
   56MOL   H31226822   5.260   2.026   0.110 -0.3913  0.3446  1.7300
   56MOL   H31326823   5.377   1.966   0.226  2.4113 -0.6530 -1.5554
   56MOL   O31426824   5.514   2.199   0.239  0.2179 -0.0868 -0.4142
   56MOL   C31526825   5.558   2.327   0.282 -0.6269  0.2623  0.2573
   56MOL   C31626826   5.635   2.317   0.414  0.0400 -0.0077 -0.5423
   56MOL   C31726827   5.556   2.239   0.517  0.4717 -0.5326  0.0670
   56MOL   C31826828   5.628   2.223   0.650  0.3744 -0.6250 -0.6700
   56MOL   O31926829   5.743   2.144   0.632  0.0680 -0.1265  0.1971
   56MOL   C32026830   5.822   2.103   0.736 -0.3121 -0.4547  0.1905
   56MOL   O32126831   5.800   2.144   0.852  0.1457  0.1366 -0.4387
   56MOL   C32226832   5.928   2.003   0.701  0.0698  0.7999 -0.0408
   56MOL   C32326833   6.051   2.074   0.643  1.3684 -0.1605 -0.7526
   56MOL   C32426834   6.105   2.011   0.517 -0.0941  0.1484  0.3959
   56MOL   O32526835   6.090   2.061   0.409  0.0903 -0.5799 -0.6521
   56MOL   H32626836   5.631   2.357   0.206  0.5162 -1.6361  0.5731
   56MOL   H32726837   5.487   2.410   0.276 -0.2960  0.4721 -0.9233
   56MOL   H32826838   5.657   2.415   0.457  0.2280 -0.2264 -0.1375
   56MOL   H32926839   5.728   2.277   0.375  1.4089  1.5037  1.1191
   56MOL   H33026840   5.518   2.140   0.492 -0.8963  0.2330 -0.9579
   56MOL   H33126841   5.463   2.291   0.544  1.1292  0.4681  0.4431
   56MOL   H33226842   5.657   2.321   0.686 -0.6427 -0.2113 -0.9486
   56MOL   H33326843   5.563   2.178   0.725  0.2219 -0.2677 -0.5913
   56MOL   H33426844   5.891   1.922   0.639  1.9312 -0.5078  0.5001
   56MOL   H33526845   5.950   1.955   0.796  0.3330  0.9897 -0.0037
   56MOL   H33626846   6.027   2.176   0.615  0.8229  0.5428  2.0840
   56MOL   H33726847   6.125   2.091   0.721  0.7717 -1.8305  0.1933
   56MOL   O33826848   6.167   1.896   0.538 -0.0731 -0.0380  0.3424
   56MOL   C33926849   6.221   1.818   0.436  0.2362  1.0588  0.3483
   56MOL   C34026850   6.338   1.743   0.492  0.0830 -0.8103  0.4208
   56MOL   C34126851   6.305   1.610   0.565  0.5278 -0.6370  0.1944
   56MOL   C34226852   6.416   1.538   0.647  0.1660  0.0998  0.1195
   56MOL   O34326853   6.367   1.426   0.708  0.3029  0.2678  0.4591
   56MOL   C34426854   6.409   1.305   0.688  0.5193  0.4442  0.2182
   56MOL   O34526855   6.487   1.272   0.602 -0.2071 -0.2617  0.1627
   56MOL   C34626856   6.320   1.206   0.769  0.4619 -1.0755  0.2640
   56MOL   C34726857   6.181   1.181   0.711 -0.0284  0.8011  0.2618
   56MOL   C34826858   6.181   1.181   0.554  0.1523  0.3773  0.1570
   56MOL   O34926859   6.147   1.280   0.491  0.4137  0.5310  0.2910
   56MOL   H35026860   6.137   1.755   0.405 -0.2834  3.2083 -2.8218
   56MOL   H35126861   6.244   1.875   0.347 -0.2471  1.9225  0.7693
   56MOL   H35226862   6.398   1.805   0.558  0.5591 -2.1974  1.3273
   56MOL   H35326863   6.399   1.722   0.405 -0.4325 -1.7306  0.2767
   56MOL   H35426864   6.264   1.540   0.492 -1.6399  0.8954 -0.1158
   56MOL   H35526865   6.228   1.642   0.636  1.9093  0.2773  1.3082
   56MOL   H35626866   6.510   1.519   0.596  0.7459  3.5065 -0.2011
   56MOL   H35726867   6.444   1.598   0.733 -2.2290  1.6322 -0.1153
   56MOL   H35826868   6.305   1.255   0.865  0.1812 -2.5772  0.9868
   56MOL   H35926869   6.362   1.106   0.780  0.4085 -1.2266 -0.8132
   56MOL   H36026870   6.131   1.099   0.762  2.8794 -1.1124  0.1626
   56MOL   H36126871   6.121   1.270   0.728 -2.8862 -0.8900 -0.6319
   56MOL   O36226872   6.206   1.063   0.505  0.2222 -0.4349  0.1511
   56MOL   C36326873   6.224   1.043   0.364 -0.0750 -0.2582  0.4334
   56MOL   C36426874   6.324   0.928   0.342 -0.1667 -0.2503  0.3331
   56MOL   C36526875   6.472   0.962   0.380  0.3247  0.0960  0.2258
   56MOL   C36626876   6.496   0.930   0.529  0.0035 -0.3926  0.4181
   56MOL   O36726877   6.622   0.969   0.582  0.1906 -0.0920 -0.0903
   56MOL   C36826878   6.666   0.924   0.705  0.5679 -0.1118 -0.3561
   56MOL   O36926879   6.600   0.869   0.787  0.2908  0.1438 -1.2144
   56MOL   C37026880   6.814   0.959   0.729  0.5905 -0.0330 -0.4908
   56MOL   C37126881   6.841   1.073   0.823  0.8944  0.2185 -0.1761
   56MOL   C37226882   6.865   1.197   0.734 -0.1404 -0.4394  0.0114
   56MOL   O37326883   6.941   1.194   0.641  0.1406  0.0851  0.2605
   56MOL   H37426884   6.125   1.025   0.322 -0.0127  2.8662 -1.2226
   56MOL   H37526885   6.267   1.130   0.313 -0.8953  0.3599  0.7705
   56MOL   H37626886   6.338   0.907   0.236  0.2513  0.1635  0.3085
   56MOL   H37726887   6.299   0.831   0.387  2.7332 -1.1335  0.1208
   56MOL   H37826888   6.494   1.067   0.362  1.6019  0.2270  2.4381
   56MOL   H37926889   6.540   0.924   0.304 -1.1592 -0.2149 -0.9782
   56MOL   H38026890   6.417   0.970   0.592 -0.3092 -1.1897  0.5425
   56MOL   H38126891   6.489   0.822   0.543 -1.7634 -0.2435  0.7819
   56MOL   H38226892   6.873   0.965   0.637 -1.3398 -0.6600 -1.8152
   56MOL   H38326893   6.849   0.867   0.774  2.2396  0.4361 -0.7969
   56MOL   H38426894   6.757   1.090   0.890  0.7704  2.1815 -0.7933
   56MOL   H38526895   6.926   1.052   0.888  1.4801  2.2298 -0.2563
   56MOL   O38626896   6.800   1.304   0.773  0.5040 -0.1805 -0.0292
   56MOL   C38726897   6.784   1.416   0.696 -0.0515 -0.7922  0.4289
   56MOL   C38826898   6.729   1.516   0.795 -0.3862  0.0157 -0.2458
   56MOL   C38926899   6.714   1.661   0.753 -0.4576  0.0549  0.4552
   56MOL   C39026900   6.676   1.763   0.868 -0.3018 -0.2167 -0.4339
   56MOL   O39126901   6.539   1.749   0.911 -0.1088  0.2710  0.1205
   56MOL   C39226902   6.455   1.837   0.870 -0.2932  0.5673 -0.2356
   56MOL   O39326903   6.475   1.914   0.774 -0.2809 -0.3491  0.0204
   56MOL   C39426904   6.322   1.820   0.943 -0.3780 -0.5588  0.6647
   56MOL   C39526905   6.233   1.954   0.965 -1.0887  0.1435  0.5073
   56MOL   C39626906   6.166   1.957   1.095  0.0113 -0.0901 -0.2568
   56MOL   O39726907   6.044   1.979   1.110 -0.3849 -0.7311  0.0965
   56MOL   H39826908   6.881   1.451   0.659  0.3450 -2.5025 -0.1859
   56MOL   H39926909   6.711   1.385   0.621 -0.8134 -0.8282  1.1738
   56MOL   H40026910   6.811   1.513   0.867 -1.8695 -1.1871  1.4347
   56MOL   H40126911   6.633   1.479   0.831 -0.0667 -1.3576 -0.7633
   56MOL   H40226912   6.658   1.670   0.660 -0.2157 -0.4443  0.2575
   56MOL   H40326913   6.820   1.673   0.730 -0.6734  0.1402 -0.5346
   56MOL   H40426914   6.741   1.747   0.955  1.1636 -2.5695 -1.9078
   56MOL   H40526915   6.708   1.862   0.837  0.0585  0.0833  0.8485
   56MOL   H40626916   6.337   1.761   1.033  1.2265 -1.8927 -0.4410
   56MOL   H40726917   6.269   1.752   0.877  0.4251  0.4189 -1.0232
   56MOL   H40826918   6.287   2.044   0.937 -0.9431 -1.1607 -3.7792
   56MOL   H40926919   6.164   1.937   0.882 -0.1487 -0.4289 -0.1614
   56MOL   O41026920   6.250   1.912   1.194  0.1868 -0.4638 -0.4927
   56MOL   C41126921   6.188   1.879   1.319  0.0398  0.3017  0.7338
   56MOL   C41226922   6.293   1.806   1.410  0.4865  0.4981  0.1327
   56MOL   C41326923   6.360   1.685   1.354  0.4951  0.1803 -0.0558
   56MOL   C41426924   6.265   1.566   1.352 -1.0235 -0.9902  1.2058
   56MOL   O41526925   6.161   1.562   1.258 -0.3862 -0.4592  0.3025
   56MOL   C41626926   6.178   1.509   1.132  0.0825  0.1728  0.9617
   56MOL   O41726927   6.288   1.468   1.090  0.0174 -0.3487 -0.1462
   56MOL   C41826928   6.047   1.509   1.055  0.8276 -0.1095  0.6509
   56MOL   C41926929   6.060   1.450   0.913  1.0456 -0.1009  0.0301
   56MOL   C42026930   6.030   1.558   0.807  0.3594 -0.2998  0.0935
   56MOL   O42126931   6.033   1.678   0.833 -0.2470  0.3032 -0.7968
   56MOL   H42226932   6.138   1.959   1.375  1.0547  1.0797  0.5530
   56MOL   H42326933   6.113   1.804   1.296 -0.3948  0.3583  1.9418
   56MOL   H42426934   6.240   1.773   1.500  0.5147 -0.0426 -0.0492
   56MOL   H42526935   6.362   1.884   1.440  0.4878  0.7111 -0.4346
   56MOL   H42626936   6.448   1.657   1.412 -0.0008  0.5285  0.8776
   56MOL   H42726937   6.409   1.699   1.257 -1.7425 -0.4864 -1.3203
   56MOL   H42826938   6.330   1.480   1.340 -1.1667 -0.7180 -1.8230
   56MOL   H42926939   6.230   1.552   1.455  0.0300 -0.2288  1.6689
   56MOL   H43026940   6.021   1.615   1.058  0.7162 -0.1118 -0.0715
   56MOL   H43126941   5.968   1.456   1.108 -1.0136  0.6944 -1.1826
   56MOL   H43226942   6.161   1.409   0.901 -0.0867 -2.5554 -1.4153
   56MOL   H43326943   5.987   1.371   0.899 -0.5334  1.0808  1.3294
   56MOL   O43426944   5.994   1.496   0.690 -0.0335  0.6465  0.2895
   56MOL   C43526945   5.944   1.567   0.572 -0.1667 -0.1313  0.0633
   56MOL   C43626946   5.818   1.500   0.508  0.5800  0.7628  0.1125
   56MOL   C43726947   5.825   1.349   0.522 -0.1514  0.0422  0.4330
   56MOL   C43826948   5.703   1.281   0.457  0.1280 -0.9135 -0.7666
   56MOL   O43926949   5.692   1.145   0.491 -0.0325  0.9018  0.3395
   56MOL   C44026950   5.779   1.054   0.440 -0.4357  0.7736  0.0725
   56MOL   O44126951   5.869   1.068   0.361 -1.2625 -0.1991 -0.0908
   56MOL   C44226952   5.751   0.917   0.502  0.5042 -0.2268 -0.0862
   56MOL   C44326953   5.842   0.884   0.620 -0.4046  0.1732 -0.0638
   56MOL   C44426954   5.961   0.804   0.585  0.3293 -0.1538 -0.1905
   56MOL   O44526955   6.004   0.792   0.468  0.0331  0.1362  0.5769
   56MOL   H44626956   5.932   1.673   0.594  4.0521  0.4421  0.0139
   56MOL   H44726957   6.032   1.559   0.507 -0.7576 -0.5218 -0.6981
   56MOL   H44826958   5.815   1.523   0.402  2.5173 -1.2589 -0.4188
   56MOL   H44926959   5.721   1.536   0.545 -1.9248 -2.3654 -3.0381
   56MOL   H45026960   5.831   1.321   0.627  0.2600  1.9454  0.9235
   56MOL   H45126961   5.919   1.332   0.470 -0.4425 -1.2145  0.2868
   56MOL   H45226962   5.624   1.323   0.520  1.1555 -1.8873  1.2227
   56MOL   H45326963   5.699   1.303   0.350 -0.0746  0.3121 -0.5148
   56MOL   H45426964   5.744   0.847   0.418  0.8459  0.3013 -0.5644
   56MOL   H45526965   5.646   0.928   0.527  0.0628  0.5596 -2.1066
   56MOL   H45626966   5.882   0.971   0.673  0.6866 -1.3545  1.6715
   56MOL   H45726967   5.787   0.819   0.688  2.7520 -0.6880  1.7974
   56MOL   O45826968   6.021   0.764   0.693 -0.0350  0.0382  0.1549
   56MOL   C45926969   6.159   0.717   0.704  1.0026 -0.5526 -0.0772
   56MOL   C46026970   6.254   0.802   0.778  0.1470 -0.0026  0.5302
   56MOL   C46126971   6.231   0.817   0.930 -0.2543 -0.4038  0.4190
   56MOL   C46226972   6.287   0.701   1.009 -0.2990 -0.5044  0.0228
   56MOL   O46326973   6.192   0.594   1.008 -0.1735 -0.4409  1.1591
   56MOL   C46426974   6.151   0.542   1.123  0.5061 -0.0372  0.0519
   56MOL   O46526975   6.188   0.576   1.237  0.1771 -1.0435 -0.1975
   56MOL   C46626976   6.039   0.447   1.110  0.3033 -0.1320  0.4464
   56MOL   C46726977   6.014   0.359   1.236  0.5643  0.2652  0.3901
   56MOL   C46826978   5.899   0.257   1.224 -0.0916  0.4221  0.2148
   56MOL   O46926979   5.847   0.236   1.118 -0.0957 -0.6538 -0.4151
   56MOL   H47026980   6.156   0.629   0.770  2.4877  0.6096  1.5865
   56MOL   H47126981   6.208   0.688   0.611 -0.0426 -1.2154 -0.4357
   56MOL   H47226982   6.248   0.906   0.748  0.9481  0.4623  1.9298
   56MOL   H47326983   6.353   0.757   0.766  0.0429 -0.2487  0.5896
   56MOL   H47426984   6.132   0.836   0.971 -0.4418  0.6991 -0.5000
   56MOL   H47526985   6.283   0.909   0.959 -1.2108  0.5933 -0.9428
   56MOL   H47626986   6.384   0.662   0.978 -1.6836 -2.1852 -2.4087
   56MOL   H47726987   6.291   0.747   1.107 -0.0832  3.0905 -1.6083
   56MOL   H47826988   6.067   0.393   1.020 -0.6555 -0.4613  0.3447
   56MOL   H47926989   5.947   0.502   1.091  0.5115 -0.1113 -0.5451
   56MOL   H48026990   6.101   0.300   1.266  0.1786  0.6017  2.2522
   56MOL   H48126991   6.005   0.420   1.326 -0.3384  0.0477  0.4528
   56MOL   H48226992   5.875   0.211   1.320 -0.1452  0.6625  0.3154
   57MOL     O126993   2.799   4.883   6.226 -0.5358  0.0163  0.0868
   57MOL     C226994   2.912   4.808   6.260  0.1664 -0.1002  0.0910
   57MOL     C326995   3.040   4.849   6.188  0.3702 -0.2940  0.3677
   57MOL     C426996   3.038   4.814   6.044  0.3443  0.0474 -0.8797
   57MOL     C526997   3.163   4.839   5.960 -0.0678  1.0126 -0.7604
   57MOL     O626998   3.278   4.783   6.013 -0.1965  0.4239  0.3974
   57MOL     C726999   3.404   4.825   5.965 -0.3842  0.5403  0.6664
   57MOL     O827000   3.429   4.902   5.870 -0.2123  0.1038  0.3346
   57MOL     C927001   3.516   4.780   6.058 -0.7126  0.4468  0.2221
   57MOL    C1027002   3.661   4.830   6.033 -0.1650  0.7066 -0.0521
   57MOL    C1127003   3.754   4.720   5.982 -0.1345  0.0432 -0.2966
   57MOL    O1227004   3.806   4.731   5.874 -0.0848  0.3370 -0.2974
   57MOL    H1327005   2.934   4.813   6.366  0.2682  0.2222  0.0548
   57MOL    H1427006   2.890   4.703   6.242  2.7155 -0.5614 -0.5663
   57MOL    H1527007   3.119   4.788   6.231  2.0444  0.7338 -1.1615
   57MOL    H1627008   3.076   4.950   6.205 -0.6847  0.0702  0.4763
   57MOL    H1727009   2.954   4.871   6.003 -0.8596 -0.6587  0.5382
   57MOL    H1827010   3.010   4.709   6.032  0.5495 -0.0659 -0.3705
   57MOL    H1927011   3.153   4.780   5.868 -3.0196 -0.4940  0.4574
   57MOL    H2027012   3.177   4.943   5.929  1.0458  0.5307 -1.9071
   57MOL    H2127013   3.515   4.672   6.071 -3.5379  0.3017 -0.7790
   57MOL    H2227014   3.478   4.808   6.157 -0.4108  1.7324 -0.0143
   57MOL    H2327015   3.652   4.903   5.953  1.4834 -0.7118 -1.5888
   57MOL    H2427016   3.701   4.894   6.112  0.1693 -1.2459  1.3984
   57MOL    H2527017   2.727   4.830   6.255  0.3615 -0.1571  2.0331
   57MOL    O2627018   3.769   4.628   6.069 -0.2727  0.0984 -0.3432
   57MOL    C2727019   3.860   4.522   6.042 -0.5800 -0.0331  0.4376
   57MOL    C2827020   3.880   4.445   6.174  0.2459  0.2418 -0.5586
   57MOL    C2927021   3.935   4.299   6.151  0.9102  0.0493 -0.0670
   57MOL    C3027022   4.061   4.285   6.067 -0.4520 -0.1302 -0.0731
   57MOL    O3127023   4.171   4.333   6.148 -0.0987  0.5315  0.3201
   57MOL    C3227024   4.298   4.285   6.126  0.3014 -0.1305  0.1688
   57MOL    O3327025   4.320   4.182   6.061  0.2965  0.2513 -0.3050
   57MOL    C3427026   4.411   4.354   6.193 -0.2860  0.0753 -0.0882
   57MOL    C3527027   4.548   4.295   6.155 -0.2002 -0.3244  0.1534
   57MOL    C3627028   4.616   4.369   6.034 -0.0961  0.3357 -0.3451
   57MOL    O3727029   4.654   4.485   6.042 -0.1136  0.4375 -0.0313
   57MOL    H3827030   3.821   4.462   5.959  0.7458 -0.2657 -0.0239
   57MOL    H3927031   3.957   4.563   6.016 -0.4775 -0.3521  0.3116
   57MOL    H4027032   3.787   4.438   6.231  0.5422  1.0379  0.0256
   57MOL    H4127033   3.947   4.494   6.244  1.0876 -2.2660  0.4402
   57MOL    H4227034   3.859   4.235   6.106 -1.1201 -0.7927  4.3459
   57MOL    H4327035   3.955   4.263   6.251 -0.2028 -1.5108 -0.3992
   57MOL    H4427036   4.073   4.179   6.048  0.0903 -0.6464  2.8659
   57MOL    H4527037   4.047   4.337   5.972 -1.8132 -0.7322 -0.2179
   57MOL    H4627038   4.395   4.330   6.298  0.5320  1.6536  0.4249
   57MOL    H4727039   4.403   4.462   6.178 -1.2520 -0.1184 -0.9879
   57MOL    H4827040   4.616   4.314   6.239  0.3076  0.1706 -0.3711
   57MOL    H4927041   4.546   4.187   6.143  0.1979 -0.0618 -2.4264
   57MOL    O5027042   4.631   4.290   5.924  0.1133 -0.7162  0.0342
   57MOL    C5127043   4.677   4.353   5.801  0.0426 -0.4644  0.0757
   57MOL    C5227044   4.609   4.272   5.691  0.2730  0.3475  0.2480
   57MOL    C5327045   4.482   4.329   5.634 -0.3819 -0.1869  0.2764
   57MOL    C5427046   4.384   4.364   5.746 -0.3987 -0.6073 -0.4362
   57MOL    O5527047   4.269   4.417   5.685  0.3016 -0.0830 -0.0744
   57MOL    C5627048   4.179   4.478   5.758  0.5557 -0.5277 -0.0135
   57MOL    O5727049   4.195   4.503   5.876  0.2520  0.3953  0.5026
   57MOL    C5827050   4.057   4.510   5.668  0.5599  0.0660 -0.2353
   57MOL    C5927051   4.085   4.607   5.552 -0.1754 -0.1330  0.3854
   57MOL    C6027052   4.080   4.539   5.417 -0.0235  0.5435 -0.1975
   57MOL    O6127053   4.164   4.564   5.328 -0.0515 -0.4430 -0.2455
   57MOL    H6227054   4.628   4.449   5.786 -1.3640 -1.4494 -1.7704
   57MOL    H6327055   4.786   4.350   5.804  0.0149 -1.6921  0.0092
   57MOL    H6427056   4.608   4.168   5.725 -0.7389  0.4287  0.4686
   57MOL    H6527057   4.677   4.281   5.606  0.5326 -1.4725  0.2449
   57MOL    H6627058   4.437   4.249   5.576 -0.2146  0.3734 -0.6383
   57MOL    H6727059   4.511   4.417   5.575 -0.9499 -2.1262 -3.0297
   57MOL    H6827060   4.355   4.277   5.805 -1.5391  0.7856  1.1156
   57MOL    H6927061   4.423   4.431   5.823 -2.6384  1.4389 -1.0173
   57MOL    H7027062   3.977   4.566   5.717  1.6868  0.8316  0.7596
   57MOL    H7127063   4.018   4.416   5.629  1.1777 -0.7468  1.0811
   57MOL    H7227064   4.013   4.689   5.559 -0.9951 -0.8547  0.5757
   57MOL    H7327065   4.186   4.646   5.558 -0.4090  0.4053  0.8454
   57MOL    O7427066   3.988   4.440   5.402 -0.1676 -1.0978 -0.2053
   57MOL    C7527067   3.974   4.388   5.273  0.2989  0.0012  0.7006
   57MOL    C7627068   3.858   4.284   5.268  0.0075  0.0605  0.3966
   57MOL    C7727069   3.860   4.205   5.144 -0.4131 -0.6163  0.1810
   57MOL    C7827070   3.837   4.286   5.018  0.1367 -0.0410 -0.3868
   57MOL    O7927071   3.808   4.199   4.912  0.2586  0.0178  0.2840
   57MOL    C8027072   3.884   4.196   4.799 -0.3359  0.2472  0.1062
   57MOL    O8127073   3.985   4.265   4.780 -0.3204  0.5889  0.4948
   57MOL    C8227074   3.820   4.108   4.696  0.1395 -0.3139 -0.3551
   57MOL    C8327075   3.935   4.048   4.607 -0.3567 -0.5124 -0.1301
   57MOL    C8427076   3.951   4.128   4.474  0.3288  0.2424  0.1965
   57MOL    O8527077   3.881   4.223   4.444 -0.1024 -0.0885  0.8461
   57MOL    H8627078   3.945   4.456   5.193 -1.1914 -1.0508  0.3322
   57MOL    H8727079   4.072   4.343   5.255 -0.0257 -1.1741  1.7648
   57MOL    H8827080   3.764   4.336   5.285  0.2764  1.0049 -0.9787
   57MOL    H8927081   3.873   4.210   5.347  0.5599 -0.1320  0.1105
   57MOL    H9027082   3.787   4.124   5.151 -0.5233 -0.4028  1.6740
   57MOL    H9127083   3.959   4.160   5.135 -0.7457 -1.6139  1.3926
   57MOL    H9227084   3.748   4.347   5.034 -0.6758 -1.5910  1.0351
   57MOL    H9327085   3.919   4.356   5.000 -1.2757  1.5377 -0.8342
   57MOL    H9427086   3.748   4.169   4.641 -0.9394 -0.2330  1.1225
   57MOL    H9527087   3.766   4.027   4.744  0.8153 -0.1061  0.7766
   57MOL    H9627088   4.026   4.064   4.666  0.6592  0.1987 -1.8636
   57MOL    H9727089   3.929   3.940   4.592  0.2934 -0.3013 -2.0374
   57MOL    O9827090   4.060   4.085   4.405 -0.1322  0.0961  0.0676
   57MOL    C9927091   4.096   4.141   4.277  0.0275 -0.5797 -0.4666
   57MOL   C10027092   4.178   4.037   4.215 -0.4440  0.9084 -0.0966
   57MOL   C10127093   4.116   3.895   4.207 -0.3593 -0.0245  0.3080
   57MOL   C10227094   4.202   3.794   4.128 -0.7589 -0.0777 -0.5375
   57MOL   O10327095   4.183   3.822   3.990 -0.2457  0.0598 -0.0988
   57MOL   C10427096   4.287   3.865   3.922  0.4522  0.5556  0.2418
   57MOL   O10527097   4.400   3.888   3.967 -0.1384 -0.4735 -0.2313
   57MOL   C10627098   4.242   3.890   3.773 -0.3768  0.1713 -0.3142
   57MOL   C10727099   4.149   3.782   3.705 -0.0574  0.1579 -0.1858
   57MOL   C10827100   4.124   3.824   3.562 -0.3267  0.0682 -0.6062
   57MOL   O10927101   4.198   3.893   3.501  0.6612 -0.4331 -0.1685
   57MOL   H11027102   4.013   4.172   4.214 -0.5527  0.1775  0.6564
   57MOL   H11127103   4.156   4.232   4.289  0.5725 -0.8647 -1.0104
   57MOL   H11227104   4.274   4.045   4.267 -0.2380  3.3349 -0.7832
   57MOL   H11327105   4.187   4.072   4.112 -1.3680 -1.0625 -0.8585
   57MOL   H11427106   4.020   3.907   4.157  0.6702  1.7823 -1.3028
   57MOL   H11527107   4.096   3.865   4.310 -0.7158 -0.2047  0.1859
   57MOL   H11627108   4.302   3.794   4.170 -0.5016  0.0209 -1.1440
   57MOL   H11727109   4.168   3.693   4.154  0.9348 -0.8929 -1.3828
   57MOL   H11827110   4.333   3.897   3.713  0.0316  0.5397  0.3424
   57MOL   H11927111   4.190   3.985   3.775 -0.7965 -0.0695  0.3354
   57MOL   H12027112   4.213   3.694   3.698 -0.8977 -0.3393 -2.1929
   57MOL   H12127113   4.053   3.766   3.753  0.3825 -0.2717  0.5552
   57MOL   O12227114   4.001   3.799   3.521 -0.0843  0.5678 -0.5359
   57MOL   C12327115   3.954   3.857   3.407 -0.0609  0.0380 -0.0041
   57MOL   C12427116   3.798   3.854   3.418  0.1597  0.0618 -0.7303
   57MOL   C12527117   3.740   3.951   3.532  0.3425  0.5792 -0.0030
   57MOL   C12627118   3.750   4.106   3.504  0.1247 -0.0176  0.7170
   57MOL   O12727119   3.678   4.137   3.382 -0.5937  0.3646 -0.1737
   57MOL   C12827120   3.608   4.250   3.377 -0.1135  0.6661 -0.0779
   57MOL   O12927121   3.598   4.339   3.458  0.7394 -0.2765  0.1824
   57MOL   C13027122   3.525   4.254   3.245  0.4332  0.7114 -0.3202
   57MOL   C13127123   3.620   4.269   3.123  0.0207  0.1052 -0.5638
   57MOL   C13227124   3.536   4.302   3.002 -0.5894 -0.8620  0.7676
   57MOL   O13327125   3.436   4.380   3.008  0.3249  0.2880 -0.6746
   57MOL   H13427126   3.989   3.958   3.387 -0.2222  0.0525 -0.2151
   57MOL   H13527127   3.982   3.787   3.329  0.1525 -2.1141  1.9562
   57MOL   H13627128   3.789   3.745   3.417  0.1443  0.0370  0.7008
   57MOL   H13727129   3.741   3.882   3.330  0.1477 -0.2446 -0.8202
   57MOL   H13827130   3.782   3.909   3.623  1.4073 -0.3657 -0.9002
   57MOL   H13927131   3.632   3.937   3.539  0.3853 -0.5088 -1.2403
   57MOL   H14027132   3.719   4.150   3.598 -2.2556 -1.0159  0.4337
   57MOL   H14127133   3.852   4.143   3.494  0.0460  0.0053 -0.0950
   57MOL   H14227134   3.459   4.341   3.252  1.4834  1.7774 -2.9146
   57MOL   H14327135   3.468   4.161   3.233  2.7893 -0.7887 -0.2203
   57MOL   H14427136   3.691   4.351   3.138 -1.1864  1.5374 -2.4167
   57MOL   H14527137   3.694   4.189   3.121 -0.1401 -0.0372 -0.8050
   57MOL   O14627138   3.584   4.246   2.894 -0.0813 -0.0404  0.1075
   57MOL   C14727139   3.519   4.255   2.770 -0.3355 -0.2175 -0.4476
   57MOL   C14827140   3.603   4.226   2.647  0.1810 -0.4670  0.0260
   57MOL   C14927141   3.659   4.088   2.647 -0.3930  0.7189 -0.2967
   57MOL   C15027142   3.744   4.065   2.518 -0.5458 -0.5538  0.5442
   57MOL   O15127143   3.825   3.947   2.528  0.8141  0.3057  0.0638
   57MOL   C15227144   3.795   3.835   2.464  0.2891 -0.4073  0.4046
   57MOL   O15327145   3.694   3.817   2.396  0.1386  0.5252 -0.3077
   57MOL   C15427146   3.898   3.731   2.490  0.5275  0.0406 -0.3082
   57MOL   C15527147   4.033   3.752   2.411 -0.2077 -0.5632  0.4216
   57MOL   C15627148   4.159   3.733   2.489 -0.5496 -0.4346 -0.3978
   57MOL   O15727149   4.160   3.699   2.606  0.2165  0.0502 -0.1917
   57MOL   H15827150   3.438   4.182   2.768 -1.3846  0.9417 -3.1155
   57MOL   H15927151   3.488   4.359   2.760 -0.9639 -0.2304  1.3009
   57MOL   H16027152   3.684   4.298   2.641  0.3115 -0.5688  0.5465
   57MOL   H16127153   3.540   4.235   2.558  1.9966 -0.8403 -1.3416
   57MOL   H16227154   3.586   4.008   2.657  0.1873  0.1621 -0.5046
   57MOL   H16327155   3.733   4.065   2.724 -0.6934  0.2733 -0.1424
   57MOL   H16427156   3.673   4.059   2.436 -1.3951  1.5088  1.1090
   57MOL   H16527157   3.807   4.152   2.501 -1.5275  0.4976  2.1865
   57MOL   H16627158   3.851   3.633   2.473  1.3195 -0.7814  2.0391
   57MOL   H16727159   3.918   3.726   2.597  1.7790 -0.0998 -0.5440
   57MOL   H16827160   4.030   3.680   2.329 -0.6129  1.0125 -0.9792
   57MOL   H16927161   4.036   3.854   2.372 -1.2952 -0.3244  0.9630
   57MOL   O17027162   4.258   3.756   2.417  0.0118 -0.4430 -0.0735
   57MOL   C17127163   4.388   3.757   2.474  0.7977 -0.1790 -0.2530
   57MOL   C17227164   4.490   3.751   2.358 -0.1149  0.4261  0.4127
   57MOL   C17327165   4.634   3.758   2.412  0.6358  0.1699  0.2800
   57MOL   C17427166   4.697   3.623   2.449 -1.0020  0.5286 -0.1889
   57MOL   O17527167   4.836   3.661   2.472 -0.3598 -0.2229  0.6383
   57MOL   C17627168   4.931   3.570   2.512 -0.0238 -0.2390 -0.2786
   57MOL   O17727169   4.912   3.445   2.532  0.0490 -0.9479  0.4020
   57MOL   C17827170   5.073   3.631   2.520 -0.2094 -0.6849 -0.3078
   57MOL   C17927171   5.180   3.548   2.585  0.4373 -0.0598 -0.3305
   57MOL   C18027172   5.319   3.568   2.531  0.1049  0.5319 -0.6057
   57MOL   O18127173   5.390   3.664   2.567 -0.4401 -0.1986  0.1630
   57MOL   H18227174   4.392   3.852   2.526  1.1721 -0.3216 -0.0130
   57MOL   H18327175   4.391   3.668   2.538 -0.8725 -0.0658  0.0059
   57MOL   H18427176   4.468   3.820   2.277  0.7041  1.7856  1.3398
   57MOL   H18527177   4.483   3.650   2.317  1.1957  0.2499  0.5848
   57MOL   H18627178   4.633   3.808   2.509 -1.9803 -0.0853  0.4206
   57MOL   H18727179   4.709   3.801   2.347  1.5347 -2.1209 -0.2659
   57MOL   H18827180   4.646   3.578   2.534 -0.6681 -1.2489 -0.8985
   57MOL   H18927181   4.676   3.561   2.362 -2.8065  0.5970  0.1807
   57MOL   H19027182   5.067   3.730   2.567  1.9676 -0.6262 -0.1225
   57MOL   H19127183   5.095   3.656   2.416 -0.9807  0.2232 -0.2633
   57MOL   H19227184   5.181   3.543   2.694  0.3914 -1.0663 -0.3693
   57MOL   H19327185   5.152   3.447   2.556 -2.2404  1.4606 -3.2975
   57MOL   O19427186   5.348   3.471   2.449  0.0839 -0.5184  0.6387
   57MOL   C19527187   5.482   3.461   2.390 -0.0322  1.0413 -0.2828
   57MOL   C19627188   5.460   3.354   2.285  0.3253  1.0260  0.0085
   57MOL   C19727189   5.583   3.324   2.198 -0.0657 -0.4292 -0.2000
   57MOL   C19827190   5.564   3.219   2.093  0.3089  0.2366  0.6772
   57MOL   O19927191   5.481   3.270   1.986  0.2826  0.2300  0.4358
   57MOL   C20027192   5.451   3.211   1.878  0.0202  0.4785  0.8107
   57MOL   O20127193   5.467   3.088   1.863  0.6983 -0.0295  0.0268
   57MOL   C20227194   5.380   3.300   1.772  0.1947 -0.0431  0.4937
   57MOL   C20327195   5.265   3.384   1.822 -0.1115  0.5250 -0.8254
   57MOL   C20427196   5.149   3.377   1.731 -0.1296  0.5088  0.2989
   57MOL   O20527197   5.034   3.321   1.756 -0.5148 -0.7285 -0.3199
   57MOL   H20627198   5.504   3.561   2.352  0.9881  0.4671 -1.2266
   57MOL   H20727199   5.564   3.440   2.460  2.1008  0.1099 -2.9725
   57MOL   H20827200   5.380   3.371   2.213  1.4782 -2.2585 -2.1740
   57MOL   H20927201   5.424   3.263   2.332  0.8810  0.6193 -0.3548
   57MOL   H21027202   5.657   3.295   2.272 -1.8836 -1.8782  1.1135
   57MOL   H21127203   5.621   3.418   2.159  0.5115  0.8674  3.3299
   57MOL   H21227204   5.663   3.199   2.051 -0.0178  0.0011  0.0169
   57MOL   H21327205   5.534   3.130   2.148 -0.7831 -0.4651 -1.0195
   57MOL   H21427206   5.350   3.241   1.685 -1.7184  1.1044  0.3519
   57MOL   H21527207   5.452   3.372   1.733 -1.0372 -0.5557 -2.8733
   57MOL   H21627208   5.212   3.353   1.912 -1.0487  2.4970 -0.6558
   57MOL   H21727209   5.306   3.485   1.825 -0.3261  0.5532  2.3676
   57MOL   O21827210   5.184   3.430   1.607 -0.2112 -0.6071 -0.6970
   57MOL   C21927211   5.085   3.418   1.505 -0.2587 -0.4411 -0.6715
   57MOL   C22027212   5.093   3.280   1.426  0.0000  0.1696 -0.0772
   57MOL   C22127213   5.209   3.282   1.327  0.7443  0.1257 -0.6050
   57MOL   C22227214   5.262   3.153   1.264 -0.6249 -0.5237 -0.2483
   57MOL   O22327215   5.376   3.178   1.180 -0.1114 -0.3265  0.2292
   57MOL   C22427216   5.438   3.076   1.112  0.7841  0.0069  0.1545
   57MOL   O22527217   5.403   2.955   1.112 -0.1519  0.2067  0.1480
   57MOL   C22627218   5.568   3.136   1.046 -0.2034 -0.2975 -0.3476
   57MOL   C22727219   5.651   3.038   0.966  0.2901  0.4124 -0.1287
   57MOL   C22827220   5.632   3.056   0.811 -0.2271 -0.0341  0.1170
   57MOL   O22927221   5.737   3.061   0.747  0.0942  0.3081  0.5860
   57MOL   H23027222   4.982   3.436   1.536  0.3029  1.4960  0.1398
   57MOL   H23127223   5.110   3.501   1.438 -1.2041  1.2312  0.9851
   57MOL   H23227224   4.998   3.260   1.376 -0.1823  0.5805  0.1060
   57MOL   H23327225   5.102   3.190   1.486 -1.0234  0.4650  0.5300
   57MOL   H23427226   5.296   3.314   1.384  0.3935  0.9771 -0.5384
   57MOL   H23527227   5.189   3.353   1.246 -0.9787 -2.5676 -2.6160
   57MOL   H23627228   5.292   3.075   1.334  0.7187 -0.8085 -1.1142
   57MOL   H23727229   5.179   3.108   1.209 -0.5316 -0.9293 -0.0576
   57MOL   H23827230   5.625   3.182   1.127 -1.0358  1.6026 -0.8310
   57MOL   H23927231   5.533   3.218   0.984  1.4850  1.9656  1.5511
   57MOL   H24027232   5.758   3.056   0.982  0.7670  0.3085 -2.8995
   57MOL   H24127233   5.632   2.938   1.005 -1.0822  0.1986 -1.3419
   57MOL   O24227234   5.506   3.063   0.763  0.4136 -0.0360 -0.1338
   57MOL   C24327235   5.482   3.086   0.626  0.2285 -0.9632 -0.0246
   57MOL   C24427236   5.349   3.035   0.570 -0.2057  0.3751 -0.4842
   57MOL   C24527237   5.228   3.111   0.624 -0.1314 -0.2910  0.0145
   57MOL   C24627238   5.113   3.101   0.530 -0.9809  0.0911  0.2148
   57MOL   O24727239   5.002   3.178   0.574 -0.2320 -0.0565 -0.3072
   57MOL   C24827240   4.912   3.217   0.487 -0.2204  0.5296 -0.1012
   57MOL   O24927241   4.923   3.193   0.368 -1.0000 -0.0709 -0.6887
   57MOL   C25027242   4.790   3.283   0.550  0.1129 -0.3303  0.3272
   57MOL   C25127243   4.731   3.228   0.676  0.4647 -0.3812 -0.3742
   57MOL   C25227244   4.610   3.308   0.723  0.1695  0.2172 -0.0538
   57MOL   O25327245   4.516   3.251   0.771  0.2681  0.0081 -0.0209
   57MOL   H25427246   5.488   3.195   0.618  0.0455 -0.7118  2.7389
   57MOL   H25527247   5.572   3.051   0.577  0.0535  1.3382 -2.0951
   57MOL   H25627248   5.332   2.927   0.576  1.0584  0.0267 -2.8272
   57MOL   H25727249   5.353   3.035   0.462  0.4575 -3.2697 -0.5390
   57MOL   H25827250   5.255   3.216   0.636  1.2065 -1.0094  4.0412
   57MOL   H25927251   5.207   3.066   0.721 -0.6551  0.1226  0.1009
   57MOL   H26027252   5.145   3.131   0.430 -0.6407  0.3088  0.3871
   57MOL   H26127253   5.092   2.995   0.519  2.1971 -0.4015 -1.9437
   57MOL   H26227254   4.708   3.275   0.479 -0.3613  1.0074  0.7035
   57MOL   H26327255   4.822   3.386   0.568  0.7865 -0.1089 -2.0730
   57MOL   H26427256   4.700   3.124   0.666 -3.9197  0.4517  2.8173
   57MOL   H26527257   4.805   3.223   0.757  0.0162  0.4010  0.1002
   57MOL   O26627258   4.624   3.442   0.720 -0.0829 -0.1396  0.3462
   57MOL   C26727259   4.513   3.524   0.749  0.2192 -0.0663 -0.4771
   57MOL   C26827260   4.463   3.580   0.617  0.3551 -0.0191  0.7109
   57MOL   C26927261   4.406   3.471   0.524 -0.0319 -0.0188 -0.4190
   57MOL   C27027262   4.338   3.526   0.394  0.0315 -0.3142 -0.2418
   57MOL   O27127263   4.410   3.631   0.331  0.3638 -0.2701  0.7533
   57MOL   C27227264   4.511   3.588   0.251  0.3219 -0.5117 -0.1492
   57MOL   O27327265   4.533   3.475   0.220  0.3548 -0.3646  0.1771
   57MOL   C27427266   4.594   3.707   0.202 -0.3872  0.7018 -0.1702
   57MOL   C27527267   4.689   3.756   0.310 -0.2537  0.2540  0.3088
   57MOL   C27627268   4.825   3.690   0.283 -0.0686  0.1245 -0.1116
   57MOL   O27727269   4.872   3.592   0.342 -0.1740  0.1685 -0.2256
   57MOL   H27827270   4.431   3.482   0.808  0.0353  1.3546  0.3272
   57MOL   H27927271   4.554   3.606   0.808 -0.4526 -1.5350  2.1320
   57MOL   H28027272   4.538   3.637   0.562 -0.7861  0.2173 -0.6399
   57MOL   H28127273   4.378   3.641   0.649  0.4905  0.6158 -0.1218
   57MOL   H28227274   4.335   3.411   0.581  0.6442 -0.1316  0.3217
   57MOL   H28327275   4.488   3.407   0.492 -2.7429 -3.7665 -0.3020
   57MOL   H28427276   4.331   3.441   0.326  0.9205 -0.2918 -0.3720
   57MOL   H28527277   4.240   3.570   0.409 -0.0245  0.6524 -3.2338
   57MOL   H28627278   4.524   3.787   0.179 -2.3991 -0.5681  1.3286
   57MOL   H28727279   4.650   3.680   0.113 -1.1547  1.0661 -0.7762
   57MOL   H28827280   4.685   3.864   0.313  0.9753  0.3786 -1.5996
   57MOL   H28927281   4.664   3.716   0.409  1.6899 -1.2201  0.2463
   57MOL   O29027282   4.890   3.768   0.193  0.1112 -0.0412 -0.0735
   57MOL   C29127283   5.022   3.734   0.151  0.3799 -0.1520 -0.4979
   57MOL   C29227284   5.038   3.640   0.029 -1.7689  0.5825  0.3910
   57MOL   C29327285   4.977   3.686   7.774 -0.2577  0.3336  0.2968
   57MOL   C29427286   4.823   3.683   7.769 -1.0365  0.2408 -0.6491
   57MOL   O29527287   4.774   3.726   7.640 -0.0187  0.0138  0.3878
   57MOL   C29627288   4.728   3.634   7.556  0.0045  0.2462  0.0257
   57MOL   O29727289   4.738   3.513   7.571 -0.2165 -0.1306 -0.0412
   57MOL   C29827290   4.673   3.690   7.432 -0.0400  0.1214 -0.2234
   57MOL   C29927291   4.661   3.588   7.317  0.1711  0.3476 -1.0304
   57MOL   C30027292   4.795   3.538   7.268 -0.0666  0.0461  0.3546
   57MOL   O30127293   4.886   3.618   7.244  0.2337  0.0932 -0.0002
   57MOL   H30227294   5.081   3.823   0.130 -0.4461  0.6550  0.5951
   57MOL   H30327295   5.085   3.693   0.230  0.4663 -0.5064 -0.7487
   57MOL   H30427296   5.013   3.536   0.050  3.2232 -0.9263 -0.5785
   57MOL   H30527297   5.146   3.632   0.018 -1.2603  1.3424  4.2068
   57MOL   H30627298   5.002   3.617   7.693  1.5511  1.7684 -0.4008
   57MOL   H30727299   5.009   3.783   7.736 -2.3329  0.8206 -0.2940
   57MOL   H30827300   4.785   3.584   7.793 -1.3106  0.1324 -1.5037
   57MOL   H30927301   4.774   3.758   7.831  1.2436  1.0068  0.2782
   57MOL   H31027302   4.747   3.766   7.406  1.0511 -1.0587 -0.6441
   57MOL   H31127303   4.578   3.738   7.453 -0.9979 -1.5930 -0.5579
   57MOL   H31227304   4.592   3.507   7.340 -0.4581  1.7622  2.3651
   57MOL   H31327305   4.621   3.647   7.234  1.1327  1.5129 -0.6807
   57MOL   O31427306   4.798   3.403   7.251  0.5387  0.2776 -0.6589
   57MOL   C31527307   4.912   3.341   7.188  0.1493 -0.3004 -0.5105
   57MOL   C31627308   4.885   3.194   7.155 -0.0875 -0.8857 -0.3582
   57MOL   C31727309   4.998   3.122   7.088 -0.0081  0.3860 -0.0002
   57MOL   C31827310   5.027   3.164   6.943  0.5861  0.4407 -0.1406
   57MOL   O31927311   5.139   3.247   6.929 -1.0397 -0.2110 -0.6156
   57MOL   C32027312   5.127   3.367   6.868  0.1768  0.2164 -0.1394
   57MOL   O32127313   5.030   3.417   6.822  0.1899  0.2909 -0.3201
   57MOL   C32227314   5.259   3.438   6.870  0.0525 -0.7150  0.7995
   57MOL   C32327315   5.301   3.494   7.016 -1.1156  0.0394  0.0643
   57MOL   C32427316   5.446   3.548   7.028 -0.7316  0.1099 -0.1227
   57MOL   O32527317   5.521   3.504   7.115 -0.1155  0.0398  0.6990
   57MOL   H32627318   4.945   3.398   7.101  2.6740 -1.3130 -0.2564
   57MOL   H32727319   4.995   3.350   7.257 -0.0817 -2.1086  0.0085
   57MOL   H32827320   4.794   3.173   7.097 -0.5191  1.9471 -0.7999
   57MOL   H32927321   4.868   3.151   7.253 -2.0979  0.8446  0.1087
   57MOL   H33027322   4.965   3.021   7.066 -1.8409  0.8169  0.7063
   57MOL   H33127323   5.083   3.112   7.155 -0.8598  0.3189  1.0863
   57MOL   H33227324   5.053   3.078   6.882 -0.5775 -1.5652  2.0823
   57MOL   H33327325   4.929   3.200   6.912 -0.3485 -2.3791 -0.5459
   57MOL   H33427326   5.252   3.518   6.796  0.8515 -0.9366  0.4765
   57MOL   H33527327   5.345   3.382   6.833  0.6093  0.2116  0.6663
   57MOL   H33627328   5.223   3.559   7.055 -2.6891 -0.7957 -1.5877
   57MOL   H33727329   5.292   3.409   7.084 -0.6574  0.8139  1.1054
   57MOL   O33827330   5.472   3.635   6.928 -0.4434 -0.3175  0.4257
   57MOL   C33927331   5.604   3.683   6.910  0.3722  0.1524  0.3466
   57MOL   C34027332   5.612   3.837   6.921  0.2439  0.0729  0.2235
   57MOL   C34127333   5.760   3.888   6.911  0.9530 -0.2688 -0.2500
   57MOL   C34227334   5.785   4.036   6.960  0.4683  0.3389  0.0566
   57MOL   O34327335   5.750   4.139   6.871 -0.4671  0.5977  0.4191
   57MOL   C34427336   5.651   4.218   6.902 -0.2112 -0.3412  0.0437
   57MOL   O34527337   5.596   4.224   7.006 -0.3119 -0.8254 -0.2107
   57MOL   C34627338   5.618   4.326   6.796 -0.1972  0.2201  0.1900
   57MOL   C34727339   5.507   4.431   6.826 -0.1072 -0.0759  0.2190
   57MOL   C34827340   5.556   4.577   6.811 -0.1121  0.5862  0.3878
   57MOL   O34927341   5.493   4.661   6.743  0.3692 -0.0437  0.5790
   57MOL   H35027342   5.664   3.641   6.991 -0.0191 -1.2910 -0.0910
   57MOL   H35127343   5.645   3.641   6.819  0.3196  0.8043  0.0252
   57MOL   H35227344   5.570   3.876   7.013 -0.6630  0.4420 -0.3410
   57MOL   H35327345   5.558   3.889   6.842 -0.5066 -0.4340  0.4016
   57MOL   H35427346   5.780   3.871   6.805  0.5399 -0.7343 -0.2577
   57MOL   H35527347   5.820   3.828   6.978 -0.0537  0.1933  1.0996
   57MOL   H35627348   5.747   4.052   7.061 -0.8094 -0.2650 -0.3204
   57MOL   H35727349   5.893   4.033   6.974  0.3391 -0.8506  0.9508
   57MOL   H35827350   5.584   4.269   6.709 -1.7803  3.2370 -1.2611
   57MOL   H35927351   5.712   4.373   6.768 -0.8212  0.6538 -1.1977
   57MOL   H36027352   5.418   4.428   6.764  0.9909 -1.1390 -1.3422
   57MOL   H36127353   5.467   4.419   6.927  1.9772 -1.1571  0.9563
   57MOL   O36227354   5.670   4.606   6.872 -0.3565 -0.5717  0.4103
   57MOL   C36327355   5.715   4.735   6.883  0.1382 -0.2035  0.3033
   57MOL   C36427356   5.801   4.755   7.011  0.0333  1.1084 -0.0354
   57MOL   C36527357   5.730   4.716   7.147 -0.4817  0.5807  0.0177
   57MOL   C36627358   5.822   4.740   7.270 -0.1823 -0.4486  0.7851
   57MOL   O36727359   5.928   4.644   7.267 -0.6859 -0.1373 -0.3274
   57MOL   C36827360   5.982   4.587   7.381 -0.4186 -0.1497  0.6713
   57MOL   O36927361   5.950   4.616   7.497  0.1420  0.3816  0.8266
   57MOL   C37027362   6.081   4.476   7.352 -0.6542 -0.5094  0.9133
   57MOL   C37127363   6.015   4.341   7.314 -0.3661  0.4233 -1.2144
   57MOL   C37227364   6.081   4.275   7.190  0.1208  0.4252 -0.2754
   57MOL   O37327365   6.102   4.156   7.201 -0.1695 -0.5910 -0.1018
   57MOL   H37427366   5.782   4.765   6.803  0.3170  0.6586  0.7698
   57MOL   H37527367   5.634   4.808   6.880 -1.6112 -2.1485 -1.5283
   57MOL   H37627368   5.833   4.859   7.016 -0.8596  1.2952  2.2988
   57MOL   H37727369   5.896   4.701   7.006 -1.1371 -1.0402  0.4185
   57MOL   H37827370   5.701   4.611   7.154  0.1553  0.3518 -0.8271
   57MOL   H37927371   5.642   4.780   7.161 -0.7418  0.0189  1.0096
   57MOL   H38027372   5.863   4.841   7.261 -1.1976  0.0073  1.1656
   57MOL   H38127373   5.752   4.733   7.353 -4.1552  2.2167 -2.1207
   57MOL   H38227374   6.139   4.448   7.441  0.3332 -0.8949  0.1515
   57MOL   H38327375   6.155   4.514   7.281 -0.0107 -0.7384  1.4503
   57MOL   H38427376   6.022   4.274   7.399  3.2904  1.3379 -0.7386
   57MOL   H38527377   5.909   4.343   7.287 -0.4577  0.0902 -0.8826
   57MOL   O38627378   6.101   4.353   7.082 -0.2038 -0.4059  0.1764
   57MOL   C38727379   6.166   4.305   6.968 -0.6111  0.1908 -0.4395
   57MOL   C38827380   6.154   4.417   6.862  0.2085 -0.1917  0.7342
   57MOL   C38927381   6.008   4.458   6.826 -0.2553 -0.4565  0.1635
   57MOL   C39027382   6.001   4.555   6.712 -0.5250 -0.2946 -0.2839
   57MOL   O39127383   6.056   4.496   6.593  0.0359 -0.0515 -0.5476
   57MOL   C39227384   6.017   4.547   6.472 -0.4432  0.2920 -0.5829
   57MOL   O39327385   5.959   4.658   6.464 -0.1524 -0.0877 -0.5775
   57MOL   C39427386   6.048   4.456   6.355 -0.2749 -0.3853 -0.0491
   57MOL   C39527387   6.038   4.530   6.217  0.2941  0.1026 -0.1423
   57MOL   C39627388   6.171   4.580   6.166 -0.2779  0.3025  0.2804
   57MOL   O39727389   6.274   4.514   6.180  0.1203  0.0648  0.3929
   57MOL   H39827390   6.272   4.293   6.989 -0.9298 -1.4956  0.2802
   57MOL   H39927391   6.124   4.209   6.939 -0.0238 -0.1435 -0.2083
   57MOL   H40027392   6.214   4.385   6.777 -2.0068 -0.7177 -0.6756
   57MOL   H40127393   6.213   4.501   6.898  0.1092 -0.6139  1.9201
   57MOL   H40227394   5.971   4.502   6.919  0.4818  0.8495 -0.1484
   57MOL   H40327395   5.955   4.367   6.798 -1.8835 -0.4121  2.9517
   57MOL   H40427396   5.892   4.567   6.707 -0.1850  2.8971 -1.3316
   57MOL   H40527397   6.051   4.649   6.733  0.0629 -1.0547  1.7979
   57MOL   H40627398   5.989   4.366   6.368  1.0175 -0.9073  2.4971
   57MOL   H40727399   6.153   4.430   6.363  0.6250  3.5000  2.1116
   57MOL   H40827400   6.003   4.457   6.144 -0.4133 -1.4314  1.6786
   57MOL   H40927401   5.969   4.614   6.227 -0.6956 -0.5643 -1.3131
   57MOL   O41027402   6.162   4.705   6.109  0.4560 -0.1070  0.2127
   57MOL   C41127403   6.273   4.782   6.074 -0.0544 -0.4132  0.6076
   57MOL   C41227404   6.354   4.822   6.203 -0.1270 -0.2799  1.0206
   57MOL   C41327405   6.479   4.906   6.164 -0.5041  0.7153 -0.3030
   57MOL   C41427406   6.460   5.061   6.175 -0.1356  0.0781  0.3744
   57MOL   O41527407   6.378   5.097   6.065  0.1616 -0.2846  0.4052
   57MOL   C41627408   6.378   5.226   6.022  0.5317  0.4289  0.1841
   57MOL   O41727409   6.423   5.321   6.093 -0.8544  0.5240 -0.1297
   57MOL   C41827410   6.293   5.248   5.899 -0.5856  0.5012  0.0725
   57MOL   C41927411   6.146   5.235   5.947  0.3307 -0.7150  0.6058
   57MOL   C42027412   6.083   5.099   5.926 -0.6010 -0.0642 -0.2900
   57MOL   O42127413   6.113   5.023   5.834 -0.8891 -0.1262  0.3972
   57MOL   H42227414   6.326   4.725   5.997 -1.2415 -0.8191  0.0828
   57MOL   H42327415   6.243   4.872   6.022 -0.4607  0.5675  2.5066
   57MOL   H42427416   6.389   4.731   6.251  1.3666 -0.3441 -0.1552
   57MOL   H42527417   6.290   4.873   6.274  1.0065 -0.0782  1.9128
   57MOL   H42627418   6.527   4.874   6.071  0.9441  0.9441  0.3620
   57MOL   H42727419   6.561   4.864   6.222 -0.7987 -0.3649 -0.6593
   57MOL   H42827420   6.399   5.081   6.264 -0.5769 -1.7565  0.5087
   57MOL   H42927421   6.557   5.110   6.172 -0.2413  0.2643 -0.0114
   57MOL   H43027422   6.325   5.172   5.828  1.1284  0.0390  1.2987
   57MOL   H43127423   6.305   5.347   5.856  2.9442  0.0017 -0.2632
   57MOL   H43227424   6.134   5.267   6.050 -0.1393 -0.4553  0.4705
   57MOL   H43327425   6.086   5.309   5.895  1.6046  0.4022  0.6917
   57MOL   O43427426   5.977   5.079   6.005 -0.0847 -0.0484 -0.2766
   57MOL   C43527427   5.892   4.970   6.005  0.5634 -0.2165 -0.8802
   57MOL   C43627428   5.809   4.969   6.132  0.2511 -0.2171 -0.2180
   57MOL   C43727429   5.873   4.907   6.251 -0.0378 -0.0835 -0.7069
   57MOL   C43827430   5.994   4.987   6.308  0.1389  0.0689  0.1130
   57MOL   O43927431   5.951   5.115   6.344  0.1069  0.0287  0.2605
   57MOL   C44027432   6.043   5.205   6.382 -0.1117 -0.4909 -0.5549
   57MOL   O44127433   6.161   5.171   6.403 -0.1442 -0.0435 -0.3706
   57MOL   C44227434   5.995   5.341   6.392 -0.4519  0.1426  0.7826
   57MOL   C44327435   6.019   5.408   6.526  0.9016 -0.4980 -0.3709
   57MOL   C44427436   5.901   5.467   6.598 -0.2669 -0.3950 -0.7334
   57MOL   O44527437   5.791   5.437   6.568  0.4030  0.3513  0.1444
   57MOL   H44627438   5.826   4.978   5.918 -1.5829 -0.2115  0.7282
   57MOL   H44727439   5.949   4.878   5.994 -0.4410 -0.8866 -0.5916
   57MOL   H44827440   5.717   4.912   6.122 -0.1862  0.2328  1.0976
   57MOL   H44927441   5.773   5.068   6.159  0.5407  0.0563 -0.8364
   57MOL   H45027442   5.917   4.814   6.215 -1.1826 -1.4571  1.3411
   57MOL   H45127443   5.793   4.881   6.320  0.0845  1.7208  0.1259
   57MOL   H45227444   6.039   4.926   6.386  0.9963  0.7168  0.1278
   57MOL   H45327445   6.068   5.010   6.231 -0.4219  1.0309 -0.1556
   57MOL   H45427446   5.892   5.357   6.362  0.4623  1.1998 -1.9651
   57MOL   H45527447   6.050   5.397   6.317 -1.1573  2.4243  1.9334
   57MOL   H45627448   6.050   5.333   6.599  0.8420  0.0766  0.2462
   57MOL   H45727449   6.098   5.482   6.516  0.8813 -0.5504 -0.9159
   57MOL   O45827450   5.930   5.533   6.707 -0.2910  0.0740  0.2010
   57MOL   C45927451   5.832   5.600   6.789  0.3722 -0.0718  0.5141
   57MOL   C46027452   5.838   5.759   6.774 -0.0863  0.7980 -0.4419
   57MOL   C46127453   5.748   5.825   6.888 -0.3453 -0.4141 -0.5612
   57MOL   C46227454   5.729   5.980   6.870 -0.5327  0.1594  0.5101
   57MOL   O46327455   5.627   6.012   6.974 -0.0039  0.8196  0.0358
   57MOL   C46427456   5.679   6.049   7.092 -0.2869 -0.0056 -1.0132
   57MOL   O46527457   5.792   6.088   7.109  0.0080 -0.0642 -0.0082
   57MOL   C46627458   5.575   6.067   7.205  0.2689 -0.6400  0.5070
   57MOL   C46727459   5.647   6.103   7.339  0.1298  0.7174 -0.2159
   57MOL   C46827460   5.653   5.977   7.421  0.3378 -0.6161  0.1434
   57MOL   O46927461   5.690   5.876   7.372  0.1990  0.5456  0.0876
   57MOL   H47027462   5.731   5.568   6.763  1.4077 -3.8020  0.8662
   57MOL   H47127463   5.836   5.564   6.892  1.7103  0.5949  0.7081
   57MOL   H47227464   5.816   5.798   6.675  0.1298  1.8145 -0.0979
   57MOL   H47327465   5.942   5.786   6.794 -0.2969 -0.4948  2.6250
   57MOL   H47427466   5.801   5.806   6.981  0.7978 -1.0308 -1.3238
   57MOL   H47527467   5.655   5.773   6.906 -0.2093 -0.0738  1.2210
   57MOL   H47627468   5.820   6.038   6.863 -0.7791  0.5498  0.5587
   57MOL   H47727469   5.676   5.996   6.776 -0.7740  0.4000  0.6869
   57MOL   H47827470   5.512   5.978   7.210  0.4391 -0.8123 -0.3667
   57MOL   H47927471   5.523   6.156   7.171  1.7484  1.3059  3.1963
   57MOL   H48027472   5.741   6.156   7.322  1.0500 -1.0084 -0.5767
   57MOL   H48127473   5.579   6.174   7.386  1.2839  2.0963 -0.5577
   57MOL   H48227474   5.605   5.980   7.519  1.2413  2.1138  0.5437
   58MOL     O127475   1.632   4.302   2.531 -0.3586  0.6931  0.5863
   58MOL     C227476   1.683   4.206   2.616  0.1280 -0.5606  0.5547
   58MOL     C327477   1.779   4.271   2.723 -0.8937 -0.1364  0.8704
   58MOL     C427478   1.922   4.310   2.662  0.3494  0.4089  0.0248
   58MOL     C527479   2.020   4.339   2.776 -0.1360 -0.2146 -0.0355
   58MOL     O627480   1.971   4.458   2.842  0.7076 -0.6427 -0.5745
   58MOL     C727481   1.927   4.462   2.972  0.8288 -0.6511 -0.0597
   58MOL     O827482   1.916   4.363   3.042 -0.6388  0.2991 -0.2302
   58MOL     C927483   1.889   4.604   3.014  0.0913  0.2673 -0.0891
   58MOL    C1027484   2.018   4.679   3.045  0.2287 -0.2068  0.0914
   58MOL    C1127485   2.006   4.831   3.066  0.2651 -0.5860  0.1738
   58MOL    O1227486   1.904   4.893   3.040  0.2576 -0.4300 -0.0036
   58MOL    H1327487   1.600   4.151   2.661 -1.5503  0.4026 -1.2845
   58MOL    H1427488   1.730   4.122   2.567 -0.5643  0.0661 -1.2130
   58MOL    H1527489   1.803   4.185   2.785 -2.8504 -1.1630  0.2590
   58MOL    H1627490   1.741   4.357   2.779 -0.0656  1.3681 -0.8438
   58MOL    H1727491   1.901   4.397   2.600 -1.3528  1.1380  1.5577
   58MOL    H1827492   1.958   4.229   2.599 -0.1674  0.2481 -0.0736
   58MOL    H1927493   2.021   4.264   2.855 -2.5715 -0.9388 -0.6612
   58MOL    H2027494   2.113   4.369   2.727  0.2074 -0.7381  0.2853
   58MOL    H2127495   1.830   4.601   3.106  1.1173 -1.4621  0.5457
   58MOL    H2227496   1.841   4.658   2.933  1.5827  1.2766 -0.3157
   58MOL    H2327497   2.066   4.632   3.131 -1.3078 -0.8334  0.6300
   58MOL    H2427498   2.090   4.658   2.966 -0.3878 -1.1770 -0.2262
   58MOL    H2527499   1.597   4.373   2.583  0.2032  2.2068 -1.0523
   58MOL    O2627500   2.119   4.886   3.099 -0.2107 -0.2474  0.1618
   58MOL    C2727501   2.124   5.028   3.122  0.1022  0.1251 -0.2950
   58MOL    C2827502   2.259   5.073   3.078  0.0604 -0.1571  0.8411
   58MOL    C2927503   2.262   5.231   3.074 -0.2089 -0.3643 -0.0906
   58MOL    C3027504   2.391   5.280   3.010 -0.1246  0.3263 -0.1119
   58MOL    O3127505   2.499   5.258   3.097 -0.5983  0.3749 -0.4467
   58MOL    C3227506   2.543   5.358   3.174 -0.4092 -0.6249  0.3897
   58MOL    O3327507   2.490   5.464   3.181  0.6214  0.0931 -0.2941
   58MOL    C3427508   2.657   5.310   3.259 -0.2996 -0.0604  0.1447
   58MOL    C3527509   2.664   5.362   3.397 -0.3311 -0.2528  0.1519
   58MOL    C3627510   2.806   5.392   3.434  0.3993 -0.1209  0.3884
   58MOL    O3727511   2.885   5.307   3.472 -0.1920  0.1315  0.0420
   58MOL    H3827512   2.046   5.077   3.063  0.5105  0.5408 -0.4910
   58MOL    H3927513   2.112   5.048   3.228  1.0015 -2.1055  0.2633
   58MOL    H4027514   2.296   5.020   2.991 -0.2301  2.0894 -0.7088
   58MOL    H4127515   2.328   5.032   3.152 -2.1554 -3.4016  1.1996
   58MOL    H4227516   2.250   5.270   3.175  5.2505 -0.7455  0.8601
   58MOL    H4327517   2.185   5.272   3.008 -1.2495 -0.9832  0.7084
   58MOL    H4427518   2.409   5.214   2.926  0.8870  4.0976 -3.0078
   58MOL    H4527519   2.384   5.379   2.964  1.3336  0.3370 -0.3296
   58MOL    H4627520   2.745   5.332   3.198  1.0582 -0.7762  1.8141
   58MOL    H4727521   2.650   5.202   3.272  1.8966 -0.3833 -1.0463
   58MOL    H4827522   2.597   5.448   3.395 -1.3286 -0.9695  1.7552
   58MOL    H4927523   2.621   5.290   3.466 -2.6924  0.4420 -0.5341
   58MOL    O5027524   2.834   5.522   3.422  0.1625  0.0106  0.4720
   58MOL    C5127525   2.967   5.562   3.433 -1.2061 -0.1560 -0.4118
   58MOL    C5227526   2.990   5.698   3.377  0.3485 -0.0603 -0.2170
   58MOL    C5327527   3.141   5.749   3.387  1.0071 -0.2803  0.0715
   58MOL    C5427528   3.164   5.896   3.338 -0.0282 -0.7333  0.5123
   58MOL    O5527529   3.087   5.986   3.415  0.5978 -0.0076 -0.1430
   58MOL    C5627530   2.978   6.046   3.370  0.1138  0.2804  0.6898
   58MOL    O5727531   2.946   6.046   3.255 -0.0647 -0.8417  0.3322
   58MOL    C5827532   2.891   6.125   3.476 -0.8029  0.6138  0.1807
   58MOL    C5927533   2.743   6.093   3.454 -0.4126 -0.0966 -0.2075
   58MOL    C6027534   2.688   6.005   3.568 -0.0246 -0.2792  0.0647
   58MOL    O6127535   2.697   6.040   3.689  0.5324 -0.2834  0.3571
   58MOL    H6227536   2.981   5.563   3.541  0.2842  2.0134 -0.5891
   58MOL    H6327537   3.038   5.487   3.397 -0.4621  0.1992  0.2885
   58MOL    H6427538   2.926   5.775   3.420  0.8383 -0.7162  1.7484
   58MOL    H6527539   2.960   5.700   3.272 -0.2530 -1.3603 -0.0861
   58MOL    H6627540   3.214   5.688   3.334 -0.9098 -1.4035 -1.3454
   58MOL    H6727541   3.156   5.755   3.495  0.8451 -2.1259  0.2125
   58MOL    H6827542   3.267   5.930   3.350 -0.0665  0.3566 -1.8548
   58MOL    H6927543   3.146   5.900   3.230  0.6589  0.6060  0.4370
   58MOL    H7027544   2.914   6.232   3.475  2.8778 -0.0951  1.2957
   58MOL    H7127545   2.923   6.084   3.572 -0.9172 -3.3591 -1.4049
   58MOL    H7227546   2.687   6.186   3.448  2.1093  1.5074  0.0716
   58MOL    H7327547   2.733   6.036   3.362 -1.1681 -0.2586 -0.0257
   58MOL    O7427548   2.630   5.884   3.535 -0.0476 -0.6017 -0.0474
   58MOL    C7527549   2.577   5.802   3.629 -0.4464 -0.2663 -0.1892
   58MOL    C7627550   2.426   5.825   3.653  0.9892  0.7206  0.5003
   58MOL    C7727551   2.364   5.741   3.762  0.3064  0.1197  1.0164
   58MOL    C7827552   2.214   5.740   3.748 -0.4488  0.3517  0.1717
   58MOL    O7927553   2.172   5.642   3.847  0.0740 -0.9327 -0.0936
   58MOL    C8027554   2.044   5.620   3.862 -0.1886 -0.5509 -0.3676
   58MOL    O8127555   1.955   5.673   3.792 -0.0042 -0.2277 -0.3372
   58MOL    C8227556   2.018   5.517   3.965 -0.1664 -0.0350 -0.1748
   58MOL    C8327557   2.029   5.375   3.900  0.0218 -0.2744 -0.5830
   58MOL    C8427558   2.125   5.293   3.979 -0.1590  0.4333  0.1224
   58MOL    O8527559   2.080   5.207   4.053 -0.0633  0.2346 -0.1058
   58MOL    H8627560   2.590   5.701   3.591 -1.6202 -0.2424 -0.6625
   58MOL    H8727561   2.631   5.808   3.724 -1.1432  1.4764  0.1068
   58MOL    H8827562   2.376   5.809   3.557 -0.6950  0.5346  1.4003
   58MOL    H8927563   2.409   5.927   3.686 -0.3371  0.2685  1.2497
   58MOL    H9027564   2.387   5.791   3.856  0.2650 -1.8117  2.0740
   58MOL    H9127565   2.408   5.642   3.761 -0.9824 -0.4656 -0.3628
   58MOL    H9227566   2.162   5.833   3.770  0.1038  0.4412  1.1074
   58MOL    H9327567   2.169   5.716   3.651  0.5414  0.9269 -0.4320
   58MOL    H9427568   1.926   5.540   4.019  0.8690 -0.0604  1.6276
   58MOL    H9527569   2.089   5.535   4.046  2.2672  0.5187 -2.3631
   58MOL    H9627570   1.928   5.343   3.875 -0.1718  1.2353 -1.8442
   58MOL    H9727571   2.077   5.398   3.805  2.6901 -0.6255  0.6211
   58MOL    O9827572   2.254   5.320   3.947 -0.3118 -0.0086 -0.2640
   58MOL    C9927573   2.356   5.218   3.983 -0.0843 -0.4968  0.7106
   58MOL   C10027574   2.481   5.229   3.893  0.3441  0.5174  0.1962
   58MOL   C10127575   2.537   5.364   3.862  0.2715 -0.1214 -0.3589
   58MOL   C10227576   2.660   5.359   3.778  0.7945 -0.3364 -0.4848
   58MOL   O10327577   2.710   5.488   3.758  0.2841  0.4784 -0.4548
   58MOL   C10427578   2.837   5.511   3.794 -0.4030  0.5225  0.4509
   58MOL   O10527579   2.911   5.422   3.837  0.4947  0.1947 -0.2301
   58MOL   C10627580   2.882   5.654   3.774  0.2373 -1.0048 -0.0663
   58MOL   C10727581   3.033   5.680   3.794 -0.8391 -0.9582 -0.0849
   58MOL   C10827582   3.057   5.834   3.807 -0.1906 -0.0495 -0.5614
   58MOL   O10927583   3.117   5.899   3.717 -0.7595 -0.0532  0.6452
   58MOL   H11027584   2.389   5.241   4.084 -0.9056 -0.4654  0.9740
   58MOL   H11127585   2.321   5.115   3.989 -2.2296  0.1398 -0.2172
   58MOL   H11227586   2.483   5.158   3.811  1.3837 -0.1125  0.7547
   58MOL   H11327587   2.557   5.187   3.959  1.9187 -0.8375 -2.4230
   58MOL   H11427588   2.571   5.404   3.957  0.6850 -0.4109 -0.3817
   58MOL   H11527589   2.470   5.435   3.815  0.3698  0.1935 -0.0231
   58MOL   H11627590   2.724   5.302   3.846  0.5939 -0.1368 -0.1255
   58MOL   H11727591   2.649   5.309   3.682 -0.2736 -0.4196 -0.3181
   58MOL   H11827592   2.817   5.725   3.825  0.8856  0.3763 -1.0933
   58MOL   H11927593   2.846   5.672   3.673  0.3728  2.0517  0.3601
   58MOL   H12027594   3.060   5.625   3.885  2.7836  0.6504 -0.1338
   58MOL   H12127595   3.091   5.631   3.716 -2.6424 -1.6688 -1.0069
   58MOL   O12227596   3.011   5.873   3.922  0.3620 -0.3778 -0.5876
   58MOL   C12327597   3.013   6.011   3.956  0.1099 -0.6754 -0.1926
   58MOL   C12427598   3.002   6.032   4.103  0.3825 -0.6905 -0.2890
   58MOL   C12527599   3.137   6.009   4.174 -0.5292 -0.3335 -0.7207
   58MOL   C12627600   3.115   5.976   4.322 -0.3538  0.3376 -0.7054
   58MOL   O12727601   3.059   5.838   4.342 -0.0334  0.3360  0.0091
   58MOL   C12827602   3.071   5.791   4.468  0.0779 -0.5119  0.3300
   58MOL   O12927603   3.113   5.858   4.561 -0.3606  0.2338  0.1835
   58MOL   C13027604   3.027   5.648   4.488  0.4223  0.3887  0.8245
   58MOL   C13127605   3.061   5.591   4.623 -0.1475  0.1431  0.3667
   58MOL   C13227606   2.959   5.493   4.688 -0.0148 -0.5700 -0.7271
   58MOL   O13327607   2.872   5.539   4.769 -0.4033  0.4583 -0.1514
   58MOL   H13427608   3.096   6.074   3.926 -1.3458  1.1914 -0.3741
   58MOL   H13527609   2.920   6.043   3.908 -0.0873  1.2824  1.4292
   58MOL   H13627610   2.940   5.954   4.147  0.5044  0.4154  1.9064
   58MOL   H13727611   2.964   6.130   4.131  0.7747 -0.2707 -1.2009
   58MOL   H13827612   3.202   6.096   4.166 -1.5983  0.9486  3.2381
   58MOL   H13927613   3.192   5.927   4.128  1.4832  0.1946  0.6861
   58MOL   H14027614   3.214   5.990   4.365  0.3282 -0.4798 -1.9865
   58MOL   H14127615   3.051   6.050   4.371  0.0194  0.2297 -0.0473
   58MOL   H14227616   3.073   5.584   4.413  1.1572  0.0813  1.5270
   58MOL   H14327617   2.918   5.646   4.486  0.4055 -1.0072  2.0174
   58MOL   H14427618   3.156   5.539   4.616 -1.6538 -2.6529  0.0335
   58MOL   H14527619   3.061   5.672   4.696 -0.8420  0.1755  0.3404
   58MOL   O14627620   2.980   5.365   4.643 -0.1838  0.2368  0.1700
   58MOL   C14727621   2.887   5.265   4.686  0.0461  0.0001  0.2769
   58MOL   C14827622   2.948   5.161   4.786  0.3276 -0.2918 -0.1119
   58MOL   C14927623   2.952   5.216   4.930 -0.0283 -0.0752 -0.1845
   58MOL   C15027624   3.057   5.142   5.023  0.0035 -0.0273 -0.4610
   58MOL   O15127625   3.046   4.998   5.020 -0.0700 -0.2949  0.1164
   58MOL   C15227626   2.960   4.931   5.109 -0.3217  0.7304  0.4270
   58MOL   O15327627   2.897   4.974   5.203 -0.3064  0.0966 -0.0119
   58MOL   C15427628   2.926   4.786   5.071 -0.1360  0.0827  0.1217
   58MOL   C15527629   2.810   4.726   5.149 -0.4002  0.2012  0.3136
   58MOL   C15627630   2.678   4.737   5.060 -0.6894 -0.4504  0.6633
   58MOL   O15727631   2.669   4.817   4.967  0.2475 -0.3487 -0.2371
   58MOL   H15827632   2.802   5.311   4.737  0.4211  2.1796 -0.9936
   58MOL   H15927633   2.839   5.218   4.600 -0.3554  0.2032  0.3893
   58MOL   H16027634   3.049   5.135   4.753  0.7543 -0.1460  1.0232
   58MOL   H16127635   2.891   5.068   4.787  1.6218 -1.1361 -1.7780
   58MOL   H16227636   2.855   5.215   4.979 -0.2133 -0.4189 -0.5636
   58MOL   H16327637   3.000   5.314   4.923 -0.1766 -0.0865 -1.3501
   58MOL   H16427638   3.164   5.164   5.011  0.1886 -0.4539  0.3562
   58MOL   H16527639   3.041   5.172   5.127 -0.0716 -3.9169  0.7268
   58MOL   H16627640   3.012   4.739   5.119 -0.7133 -2.6934 -1.4721
   58MOL   H16727641   2.931   4.766   4.964  0.9275 -0.3205  0.2372
   58MOL   H16827642   2.833   4.627   5.189 -1.8180 -0.6094 -0.8430
   58MOL   H16927643   2.778   4.791   5.230 -2.1005  2.2335 -1.9260
   58MOL   O17027644   2.594   4.639   5.090 -0.0204  0.0775 -0.2891
   58MOL   C17127645   2.484   4.609   5.011  0.5803  0.6084 -0.3761
   58MOL   C17227646   2.409   4.498   5.077 -0.3782  0.3512  0.0773
   58MOL   C17327647   2.471   4.352   5.079 -0.0272 -0.7000 -0.2932
   58MOL   C17427648   2.587   4.342   5.179  0.1733  0.1778 -0.3928
   58MOL   O17527649   2.634   4.211   5.188 -0.0343 -0.0822 -0.0689
   58MOL   C17627650   2.679   4.140   5.088 -0.0368  0.1820 -0.6895
   58MOL   O17727651   2.686   4.176   4.973  0.5702 -0.0418 -0.6297
   58MOL   C17827652   2.729   3.998   5.127  0.4210  0.4186 -0.4239
   58MOL   C17927653   2.847   3.954   5.035 -0.2587  0.4391  0.9005
   58MOL   C18027654   2.994   3.978   5.081 -0.2081  1.4680  0.0135
   58MOL   O18127655   3.054   4.074   5.038 -0.3102 -0.0712 -0.1055
   58MOL   H18227656   2.420   4.697   4.999 -0.1765 -0.1643 -2.2434
   58MOL   H18327657   2.511   4.569   4.913  1.1087 -2.4378  0.9549
   58MOL   H18427658   2.315   4.483   5.025 -1.0298  2.2267  0.6560
   58MOL   H18527659   2.388   4.530   5.179  0.3821 -0.6276  0.5506
   58MOL   H18627660   2.508   4.324   4.980 -2.0653  1.9283 -1.8702
   58MOL   H18727661   2.389   4.286   5.105  0.7796 -1.3909  0.5305
   58MOL   H18827662   2.667   4.403   5.138 -0.9586  0.4679 -2.2221
   58MOL   H18927663   2.541   4.374   5.273 -1.7410  0.1260 -1.2838
   58MOL   H19027664   2.642   3.933   5.133  1.6235 -0.9968  3.1375
   58MOL   H19127665   2.758   4.005   5.232 -3.3244  1.3525  0.6429
   58MOL   H19227666   2.849   3.847   5.014  0.4101  0.3897  1.1896
   58MOL   H19327667   2.845   3.997   4.935 -0.3459 -1.0546  0.2474
   58MOL   O19427668   3.032   3.888   5.177 -0.2503  0.2949  0.6080
   58MOL   C19527669   3.151   3.909   5.250  0.7422 -0.7783  0.1626
   58MOL   C19627670   3.131   3.878   5.397 -0.0611 -0.0904  0.1041
   58MOL   C19727671   3.079   3.735   5.427 -0.1102  0.5031  0.2502
   58MOL   C19827672   3.061   3.716   5.577  0.4060 -0.1740  0.1109
   58MOL   O19927673   3.036   3.575   5.605  0.2653 -0.4423 -0.1561
   58MOL   C20027674   2.908   3.527   5.631 -0.0196  0.5026 -0.8074
   58MOL   O20127675   2.803   3.588   5.612  1.0732  0.6914  0.3038
   58MOL   C20227676   2.901   3.387   5.675  0.7975  0.6423  0.1421
   58MOL   C20327677   3.021   3.306   5.621  1.3821 -0.1153 -0.2744
   58MOL   C20427678   3.003   3.157   5.653 -0.2161 -0.4902 -0.3715
   58MOL   O20527679   2.896   3.110   5.687  0.1154 -0.0359 -0.6471
   58MOL   H20627680   3.232   3.846   5.213  2.1534 -0.0292  1.8871
   58MOL   H20727681   3.187   4.011   5.251  1.4525 -1.0225  0.1909
   58MOL   H20827682   3.062   3.954   5.433  0.7045  0.3158  0.7266
   58MOL   H20927683   3.224   3.902   5.447  1.5432 -0.3886 -2.6498
   58MOL   H21027684   3.149   3.663   5.384  1.6141  1.7722  0.8788
   58MOL   H21127685   2.988   3.717   5.370  0.4570 -0.9593 -0.2081
   58MOL   H21227686   3.155   3.736   5.628  0.8049  2.3043 -1.5188
   58MOL   H21327687   2.983   3.772   5.628  2.2922 -0.2075  3.1863
   58MOL   H21427688   2.808   3.347   5.634  2.0421 -4.7947  2.2008
   58MOL   H21527689   2.878   3.369   5.780 -2.5142  1.1403 -0.4207
   58MOL   H21627690   3.030   3.316   5.513  1.2991 -1.7840 -0.4420
   58MOL   H21727691   3.118   3.350   5.646  0.5402  0.6193  1.8329
   58MOL   O21827692   3.122   3.087   5.640 -0.8867  0.4421 -0.2092
   58MOL   C21927693   3.119   2.948   5.672  0.4527  0.1785  0.1785
   58MOL   C22027694   3.191   2.930   5.806 -0.7428 -1.1676 -0.6651
   58MOL   C22127695   3.346   2.934   5.783  0.3274 -0.0697 -0.0528
   58MOL   C22227696   3.427   2.911   5.913  0.0806 -0.2441 -0.2505
   58MOL   O22327697   3.563   2.909   5.879  0.3455  0.5500 -0.4694
   58MOL   C22427698   3.643   3.003   5.930 -0.4443 -0.0490  0.5270
   58MOL   O22527699   3.606   3.089   6.013  0.2464 -0.2387 -0.1166
   58MOL   C22627700   3.790   3.000   5.877 -0.4748  0.1870 -0.1297
   58MOL   C22727701   3.870   2.867   5.916 -0.8194 -0.1419  0.7058
   58MOL   C22827702   3.974   2.821   5.814  0.3770 -0.6882 -0.2652
   58MOL   O22927703   3.947   2.836   5.695  0.2776  0.2408  0.2193
   58MOL   H23027704   3.018   2.911   5.691 -0.2822  1.1201 -1.6979
   58MOL   H23127705   3.157   2.887   5.590  1.5135 -0.1204  0.8784
   58MOL   H23227706   3.162   2.833   5.847 -1.7807  0.4185  2.6008
   58MOL   H23327707   3.170   3.009   5.878  0.3790 -0.2312 -1.3466
   58MOL   H23427708   3.363   3.028   5.732 -1.3855 -0.4778 -1.3982
   58MOL   H23527709   3.371   2.853   5.714  1.0431 -1.2584  1.5543
   58MOL   H23627710   3.398   2.986   5.986 -1.2963  1.9011 -2.8933
   58MOL   H23727711   3.405   2.815   5.961  1.1347 -0.3845 -0.0306
   58MOL   H23827712   3.848   3.086   5.910 -0.3309  0.4810 -1.1360
   58MOL   H23927713   3.777   3.006   5.769 -0.2525  0.5052 -0.1410
   58MOL   H24027714   3.914   2.873   6.016  1.6035 -3.3560 -0.0784
   58MOL   H24127715   3.793   2.790   5.915 -1.1074  0.1483 -1.0502
   58MOL   O24227716   4.079   2.763   5.870 -0.1531 -0.1315  0.5042
   58MOL   C24327717   4.183   2.710   5.784 -0.0083  0.2925 -0.7755
   58MOL   C24427718   4.147   2.565   5.759 -0.2656 -0.1962  0.1378
   58MOL   C24527719   4.230   2.508   5.648 -0.1192  0.3310 -0.2187
   58MOL   C24627720   4.187   2.367   5.604  0.4237  0.2045  0.0308
   58MOL   O24727721   4.261   2.341   5.488  0.8954 -0.1964  0.1907
   58MOL   C24827722   4.212   2.395   5.374 -2.1124 -0.4996  0.1276
   58MOL   O24927723   4.106   2.456   5.361  0.6609  0.0913 -0.5283
   58MOL   C25027724   4.308   2.355   5.263  0.5002 -0.4791 -0.6608
   58MOL   C25127725   4.317   2.453   5.146 -0.2574  0.5901 -0.2153
   58MOL   C25227726   4.358   2.379   5.020  0.2466  0.0660  0.1740
   58MOL   O25327727   4.470   2.347   4.994  0.1344 -0.1938 -0.3549
   58MOL   H25427728   4.182   2.771   5.694 -2.3434 -0.8391 -1.5603
   58MOL   H25527729   4.271   2.716   5.849 -2.0505  0.8542  2.0236
   58MOL   H25627730   4.039   2.558   5.746 -0.1881 -1.9362  0.2107
   58MOL   H25727731   4.158   2.511   5.853  0.1693 -0.5159 -0.0940
   58MOL   H25827732   4.334   2.507   5.680  1.1980  1.0812 -4.2307
   58MOL   H25927733   4.225   2.584   5.570 -0.3246  0.4888 -0.0509
   58MOL   H26027734   4.212   2.292   5.680 -1.2374  0.8751  1.2942
   58MOL   H26127735   4.078   2.364   5.601  0.4874 -1.1498 -2.3825
   58MOL   H26227736   4.265   2.266   5.219 -1.7396  1.5026 -2.6706
   58MOL   H26327737   4.409   2.343   5.304  0.2725  0.5953  0.2421
   58MOL   H26427738   4.222   2.506   5.134 -0.4529 -0.1318 -1.9703
   58MOL   H26527739   4.396   2.522   5.177 -0.8769  1.4190 -0.4599
   58MOL   O26627740   4.256   2.357   4.937 -0.2701 -0.6891 -0.3574
   58MOL   C26727741   4.267   2.263   4.836  0.0360  0.0331 -0.2941
   58MOL   C26827742   4.138   2.256   4.755  0.8847 -0.9692  0.2449
   58MOL   C26927743   4.112   2.130   4.677 -0.5029  0.5541  0.8383
   58MOL   C27027744   4.104   2.002   4.761  0.0399 -0.0079  0.1898
   58MOL   O27127745   4.046   2.030   4.888  0.5263  0.3663 -0.4264
   58MOL   C27227746   3.916   2.029   4.919 -0.6006 -0.2525  0.0030
   58MOL   O27327747   3.833   2.000   4.834  0.5767  0.9107 -0.0986
   58MOL   C27427748   3.885   2.058   5.062 -0.2668 -0.0142  0.2402
   58MOL   C27527749   3.951   2.180   5.115 -0.4099 -0.8003 -0.3012
   58MOL   C27627750   3.868   2.253   5.215  0.1117 -0.6296  0.5173
   58MOL   O27727751   3.783   2.334   5.176  0.0742 -0.0594 -0.1507
   58MOL   H27827752   4.353   2.287   4.774  1.6394 -0.4048  1.7221
   58MOL   H27927753   4.284   2.168   4.886  1.6502  0.4537 -0.0279
   58MOL   H28027754   4.135   2.347   4.695  1.5143 -0.8993  0.3178
   58MOL   H28127755   4.055   2.255   4.826 -0.2515 -0.4246 -1.0413
   58MOL   H28227756   4.195   2.107   4.609 -1.0856  2.4000 -0.5333
   58MOL   H28327757   4.025   2.141   4.612 -0.5647 -1.8911  0.4707
   58MOL   H28427758   4.059   1.917   4.710 -1.2258  0.4544  0.5229
   58MOL   H28527759   4.209   1.977   4.778  0.0250  1.3293  2.4059
   58MOL   H28627760   3.917   1.974   5.123 -0.2533  1.0835  1.7644
   58MOL   H28727761   3.776   2.056   5.070 -0.2619  3.1159  1.4080
   58MOL   H28827762   4.046   2.155   5.164 -0.2150  1.8907  0.7532
   58MOL   H28927763   3.973   2.250   5.034 -0.6721  0.7515  0.9618
   58MOL   O29027764   3.869   2.199   5.336  0.1652 -0.3023 -0.5954
   58MOL   C29127765   3.780   2.250   5.430 -0.8309  0.5819 -0.6520
   58MOL   C29227766   3.755   2.159   5.549  0.1365 -0.1763 -0.9958
   58MOL   C29327767   3.863   2.151   5.660  0.3754  0.0878  0.5508
   58MOL   C29427768   3.861   2.276   5.752 -0.1241  0.1450 -0.2027
   58MOL   O29527769   3.971   2.291   5.835 -0.0326 -0.3278  0.1619
   58MOL   C29627770   3.974   2.230   5.956  0.0251 -0.2460 -0.2994
   58MOL   O29727771   3.881   2.176   6.014  0.7866  0.3200  0.4353
   58MOL   C29827772   4.117   2.227   6.021 -0.2515 -0.1862  0.0626
   58MOL   C29927773   4.121   2.180   6.162  0.5102  0.0767 -0.4646
   58MOL   C30027774   4.138   2.288   6.271 -0.6445  0.2459 -0.0630
   58MOL   O30127775   4.040   2.328   6.338 -0.2156 -0.1017  0.1365
   58MOL   H30227776   3.812   2.347   5.469 -0.0767 -0.0593  0.3403
   58MOL   H30327777   3.682   2.269   5.385 -0.6745  1.9138 -0.4397
   58MOL   H30427778   3.725   2.058   5.519  1.3120 -1.7064  2.7835
   58MOL   H30527779   3.672   2.207   5.602  1.7580 -0.8278  2.2548
   58MOL   H30627780   3.956   2.125   5.608 -1.3086  0.9180 -3.0598
   58MOL   H30727781   3.841   2.067   5.726 -0.1944 -1.9370 -2.1049
   58MOL   H30827782   3.852   2.371   5.699  0.5503  0.4632  0.2402
   58MOL   H30927783   3.770   2.251   5.807 -1.0920  1.5993 -1.1433
   58MOL   H31027784   4.157   2.329   6.020 -3.1727  1.0053 -1.9862
   58MOL   H31127785   4.174   2.159   5.958  2.6124  1.9040  0.2741
   58MOL   H31227786   4.038   2.117   6.193 -0.5804  1.8415  0.3025
   58MOL   H31327787   4.207   2.114   6.171 -0.6437 -1.1718  1.9088
   58MOL   O31427788   4.270   2.321   6.281 -0.4388 -0.3010  0.1338
   58MOL   C31527789   4.309   2.423   6.375  0.2491 -0.4622 -0.4318
   58MOL   C31627790   4.449   2.470   6.350  0.5433 -0.4781 -0.1015
   58MOL   C31727791   4.564   2.390   6.423 -0.3988 -0.2124  0.9499
   58MOL   C31827792   4.705   2.451   6.413  0.0989 -0.6071  0.4239
   58MOL   O31927793   4.722   2.539   6.524 -0.1496  0.1995  0.0017
   58MOL   C32027794   4.816   2.636   6.504  0.3486 -0.2604  0.3619
   58MOL   O32127795   4.896   2.643   6.410 -0.4468  0.4569 -0.3876
   58MOL   C32227796   4.811   2.745   6.616 -0.0029 -0.5020  0.6242
   58MOL   C32327797   4.922   2.853   6.597 -0.3735  0.0925  0.3878
   58MOL   C32427798   5.035   2.852   6.697 -0.6136  0.1365  0.3988
   58MOL   O32527799   5.004   2.817   6.806  0.1033 -1.0030 -0.5193
   58MOL   H32627800   4.242   2.508   6.366 -2.0942 -2.0345  1.6615
   58MOL   H32727801   4.308   2.380   6.475 -0.1231 -3.0312 -1.4996
   58MOL   H32827802   4.455   2.567   6.399 -0.3805  0.8210 -2.4732
   58MOL   H32927803   4.466   2.492   6.245 -1.2383 -0.9021 -0.5121
   58MOL   H33027804   4.552   2.291   6.380 -1.6107  0.1262  0.4777
   58MOL   H33127805   4.535   2.389   6.528  0.5324  1.7509  1.2531
   58MOL   H33227806   4.777   2.369   6.408  1.5676  0.7388 -1.3179
   58MOL   H33327807   4.699   2.510   6.321 -0.8139  1.0468  1.5073
   58MOL   H33427808   4.811   2.697   6.713  0.2216 -1.7039  0.0315
   58MOL   H33527809   4.720   2.804   6.601  1.5520  1.4208 -1.6168
   58MOL   H33627810   4.980   2.846   6.505  0.8918 -2.6119  1.3327
   58MOL   H33727811   4.879   2.953   6.588 -2.4266 -0.9577 -2.3761
   58MOL   O33827812   5.152   2.915   6.666 -0.3839  0.9478  0.0825
   58MOL   C33927813   5.265   2.898   6.747  0.5878 -0.7463  0.0766
   58MOL   C34027814   5.387   2.945   6.679 -0.1236  0.1435 -0.3805
   58MOL   C34127815   5.392   3.095   6.661  0.3895 -0.3526 -0.4766
   58MOL   C34227816   5.527   3.151   6.602  0.9891  0.3068  0.5887
   58MOL   O34327817   5.644   3.117   6.677  0.5122  0.1715 -0.0371
   58MOL   C34427818   5.761   3.157   6.637 -1.1869 -0.1135 -0.0184
   58MOL   O34527819   5.787   3.212   6.531  0.4569 -0.0026 -0.7632
   58MOL   C34627820   5.861   3.091   6.723  0.2296  0.7206 -0.0570
   58MOL   C34727821   5.928   2.969   6.654  0.8491  0.1509  0.8592
   58MOL   C34827822   6.079   2.979   6.659 -0.5219 -0.4314  0.0678
   58MOL   O34927823   6.138   2.893   6.720  0.3275  0.5299 -0.3865
   58MOL   H35027824   5.265   2.951   6.842  1.1383  1.1261 -0.9481
   58MOL   H35127825   5.274   2.794   6.777 -1.1745 -0.4861  1.5660
   58MOL   H35227826   5.396   2.905   6.578  2.3388 -1.1728  0.3248
   58MOL   H35327827   5.476   2.907   6.729  2.2463  2.0638 -2.9500
   58MOL   H35427828   5.372   3.146   6.755  0.0841 -2.0086  0.3874
   58MOL   H35527829   5.303   3.122   6.605  0.3444 -0.5856 -0.5148
   58MOL   H35627830   5.543   3.107   6.504  2.6406 -0.6627  1.2606
   58MOL   H35727831   5.515   3.257   6.583  0.6110  0.3575  1.1070
   58MOL   H35827832   5.820   3.062   6.820 -0.1609  1.2434 -0.0644
   58MOL   H35927833   5.937   3.162   6.753  1.1525 -0.8370  1.3857
   58MOL   H36027834   5.896   2.874   6.698  3.6462 -1.7699 -1.0725
   58MOL   H36127835   5.901   2.972   6.548 -1.1788 -0.7596  1.3190
   58MOL   O36227836   6.131   3.092   6.608 -0.4116  0.6871 -1.3751
   58MOL   C36327837   6.274   3.103   6.607  0.3006  0.2187  0.4748
   58MOL   C36427838   6.331   3.244   6.568 -0.0707 -0.4710 -0.0947
   58MOL   C36527839   6.256   3.358   6.645  0.4210  0.7791  0.5683
   58MOL   C36627840   6.287   3.508   6.596  0.2206 -0.1314 -0.6909
   58MOL   O36727841   6.426   3.516   6.606 -0.4072 -0.2105 -0.2078
   58MOL   C36827842   6.485   3.637   6.619 -0.5830 -0.0804  0.6754
   58MOL   O36927843   6.421   3.745   6.628  0.4462  0.4729 -0.1596
   58MOL   C37027844   6.635   3.640   6.632  0.1784 -0.3971 -0.2970
   58MOL   C37127845   6.675   3.647   6.782  0.5937  0.4702 -0.8783
   58MOL   C37227846   6.700   3.501   6.829  0.5590 -0.2037 -0.3807
   58MOL   O37327847   6.810   3.452   6.845 -0.2099  0.2578  0.4418
   58MOL   H37427848   6.323   3.081   6.702  2.4301  1.5276 -0.2792
   58MOL   H37527849   6.327   3.031   6.543  0.7451 -0.7023  1.8627
   58MOL   H37627850   6.320   3.258   6.460  0.7881  0.8785 -0.0212
   58MOL   H37727851   6.439   3.245   6.587  0.1935  3.6312 -1.1874
   58MOL   H37827852   6.281   3.347   6.750  3.6454 -1.6781 -0.3897
   58MOL   H37927853   6.148   3.349   6.651  0.5589  0.3567  2.5578
   58MOL   H38027854   6.249   3.530   6.496  0.4008 -0.9970 -0.9533
   58MOL   H38127855   6.242   3.574   6.670 -0.5945 -0.6513 -0.7109
   58MOL   H38227856   6.672   3.731   6.586  1.7769  0.9825  3.4706
   58MOL   H38327857   6.687   3.560   6.579  1.5338  0.1584  0.1782
   58MOL   H38427858   6.765   3.707   6.797 -0.1480  1.3081  0.3170
   58MOL   H38527859   6.591   3.693   6.834  1.0551  1.1491 -0.7246
   58MOL   O38627860   6.583   3.435   6.859 -0.3013  0.5065 -0.1024
   58MOL   C38727861   6.593   3.301   6.910  0.0727  0.0794  0.2573
   58MOL   C38827862   6.460   3.267   6.988 -0.6199  0.4081  0.6602
   58MOL   C38927863   6.450   3.118   7.004 -0.1768 -0.8281 -0.9869
   58MOL   C39027864   6.333   3.083   7.098 -0.3488 -0.1339 -0.0760
   58MOL   O39127865   6.352   3.115   7.234  0.0661 -0.3848  1.0789
   58MOL   C39227866   6.420   3.032   7.309 -0.8266  0.2490 -0.2412
   58MOL   O39327867   6.468   2.923   7.275  0.2132  0.0205 -0.1964
   58MOL   C39427868   6.451   3.085   7.450 -0.4861 -0.6355  0.5452
   58MOL   C39527869   6.592   3.053   7.492 -0.2144 -0.3212 -0.6853
   58MOL   C39627870   6.586   3.001   7.637 -0.1687  0.4230 -0.6586
   58MOL   O39727871   6.613   2.884   7.663 -0.1990 -0.6457  0.5419
   58MOL   H39827872   6.601   3.242   6.818  2.1798  1.6904 -0.6312
   58MOL   H39927873   6.680   3.289   6.974  0.6568  2.7396  0.0080
   58MOL   H40027874   6.372   3.307   6.938 -1.2128 -0.8165  0.7036
   58MOL   H40127875   6.473   3.317   7.084 -0.4228  0.2795  0.7004
   58MOL   H40227876   6.547   3.085   7.040  0.2796  0.6992 -0.7820
   58MOL   H40327877   6.434   3.070   6.907  0.8698 -3.2990  0.0048
   58MOL   H40427878   6.241   3.132   7.064 -0.6749  0.2966  1.4036
   58MOL   H40527879   6.307   2.979   7.083  1.6428 -0.6469 -0.0818
   58MOL   H40627880   6.372   3.053   7.519 -1.7224  2.6168  0.7230
   58MOL   H40727881   6.447   3.193   7.463  0.2069 -0.8357  2.6348
   58MOL   H40827882   6.636   2.967   7.440 -0.8504 -0.4860 -0.9457
   58MOL   H40927883   6.649   3.146   7.490 -1.1583  0.3333  1.2860
   58MOL   O41027884   6.538   3.094   7.721  0.0658  0.4253  0.2631
   58MOL   C41127885   6.516   3.062   7.864  0.0375 -0.1826 -0.0185
   58MOL   C41227886   6.406   3.144   0.050  0.2936 -0.0929  0.1579
   58MOL   C41327887   6.265   3.112   0.002 -0.1505  0.7737 -0.6081
   58MOL   C41427888   6.154   3.196   0.063 -0.0714 -0.2807 -0.1890
   58MOL   O41527889   6.164   3.331   0.016 -0.4912 -0.1045  1.1922
   58MOL   C41627890   6.067   3.413   0.050  0.2019  0.2562 -0.5762
   58MOL   O41727891   5.977   3.385   0.125  0.0609  0.4196 -0.2366
   58MOL   C41827892   6.085   3.557   0.008  0.0858  0.0909  0.0393
   58MOL   C41927893   6.226   3.609   0.001  0.3359  0.5792 -0.4299
   58MOL   C42027894   6.240   3.754   0.042 -0.2099 -0.5303  0.6798
   58MOL   O42127895   6.311   3.788   0.142  0.5891  0.0147  0.0560
   58MOL   H42227896   6.495   2.955   7.873 -2.0632  0.3396  1.4899
   58MOL   H42327897   6.616   3.083   0.028  0.9758  1.7179 -3.2829
   58MOL   H42427898   6.422   3.251   0.046  0.1204 -0.0948 -0.5328
   58MOL   H42527899   6.400   3.121   0.157  0.3960  0.2251  0.2321
   58MOL   H42627900   6.254   3.005   0.022  1.8593  0.6310 -0.0866
   58MOL   H42727901   6.261   3.115   7.768 -1.0838  0.3249 -0.5941
   58MOL   H42827902   6.061   3.149   0.029  0.6692 -1.5022 -0.5497
   58MOL   H42927903   6.167   3.191   0.171  2.5681 -2.0981 -0.5380
   58MOL   H43027904   6.031   3.616   0.081  1.0696  0.0625  0.7983
   58MOL   H43127905   6.041   3.559   7.783 -0.9833 -1.7902  0.4527
   58MOL   H43227906   6.295   3.544   0.056 -0.7392 -0.7802 -0.6720
   58MOL   H43327907   6.264   3.588   7.775 -0.1499 -3.1581  0.0886
   58MOL   O43427908   6.172   3.835   7.833 -0.5688 -0.6204  0.2746
   58MOL   C43527909   6.182   3.975   7.845  0.0404 -0.4469 -0.3533
   58MOL   C43627910   6.307   4.042   7.785  0.0892 -0.5360  0.2192
   58MOL   C43727911   6.361   4.006   7.647  0.0455 -0.0246 -0.1954
   58MOL   C43827912   6.437   3.873   7.638 -0.1162  0.1505 -0.0050
   58MOL   O43927913   6.545   3.884   7.730  0.5720  0.0911 -0.4649
   58MOL   C44027914   6.668   3.907   7.686 -0.3003 -0.1654 -0.5394
   58MOL   O44127915   6.698   3.909   7.563 -0.2561 -0.0420 -0.5368
   58MOL   C44227916   6.759   3.943   7.804 -0.1345  0.0719 -0.2767
   58MOL   C44327917   6.823   4.078   7.793 -0.5692  0.1561 -0.8778
   58MOL   C44427918   6.756   4.185   0.002  0.4435  0.0644  0.5930
   58MOL   O44527919   6.726   4.292   7.814  0.0340 -0.6063  0.2257
   58MOL   H44627920   6.092   4.016   7.798 -0.5050  0.8152  1.7115
   58MOL   H44727921   6.161   4.006   0.073  1.6333 -0.4771 -0.0183
   58MOL   H44827922   6.388   4.036   7.857  1.3225  0.5398 -1.0673
   58MOL   H44927923   6.285   4.148   7.779 -1.7118 -0.8127  1.4100
   58MOL   H45027924   6.430   4.084   7.613  0.9197 -0.8349 -0.3210
   58MOL   H45127925   6.286   3.998   7.568  2.0245 -1.2623 -2.0101
   58MOL   H45227926   6.385   3.788   7.682 -0.4932  0.9789  1.1663
   58MOL   H45327927   6.477   3.850   7.539  3.1131 -0.7589  1.4125
   58MOL   H45427928   6.839   3.870   7.798 -1.5000 -1.5349  0.5125
   58MOL   H45527929   6.704   3.930   0.023  2.4937  0.1914  1.3293
   58MOL   H45627930   6.927   4.062   7.823 -1.2272 -0.8675  0.8896
   58MOL   H45727931   6.822   4.107   7.688 -1.7145  0.7373 -0.7164
   58MOL   O45827932   6.736   4.159   0.131  0.4216  0.0389  0.4417
   58MOL   C45927933   6.653   4.241   0.214 -0.0622 -0.6870  0.2680
   58MOL   C46027934   6.503   4.211   0.220 -0.0651 -0.7487  0.0631
   58MOL   C46127935   6.468   4.060   0.249 -0.1478 -0.2125  0.0657
   58MOL   C46227936   6.494   4.012   0.398 -0.3763  0.2081  0.1093
   58MOL   O46327937   6.415   4.085   0.480  0.4439 -0.0751 -0.0824
   58MOL   C46427938   6.467   4.097   0.597  0.1501  0.9971  0.4232
   58MOL   O46527939   6.564   4.044   0.648 -0.3608 -0.1002 -0.4081
   58MOL   C46627940   6.394   4.206   0.682  0.6527  0.3594  0.2078
   58MOL   C46727941   6.490   4.312   0.739 -0.6860 -0.7315  0.6237
   58MOL   C46827942   6.503   4.430   0.641  0.7052 -0.9359  0.6057
   58MOL   O46927943   6.541   4.417   0.528 -1.2060  0.2385 -0.3441
   58MOL   H47027944   6.701   4.251   0.312  0.7587 -2.2208  0.0533
   58MOL   H47127945   6.665   4.345   0.186 -2.9370  0.7973  4.1135
   58MOL   H47227946   6.462   4.239   0.124 -1.0138  1.9837  1.2276
   58MOL   H47327947   6.452   4.271   0.295  1.2779  0.7496 -0.1833
   58MOL   H47427948   6.525   3.995   0.182 -0.6194 -1.3869  0.7795
   58MOL   H47527949   6.362   4.059   0.225 -0.2031  0.2853  0.3015
   58MOL   H47627950   6.479   3.904   0.403  0.8104  0.0298 -0.0323
   58MOL   H47727951   6.601   4.030   0.410 -0.5193 -0.0812  1.8118
   58MOL   H47827952   6.349   4.157   0.768  2.3156 -0.3453  0.7051
   58MOL   H47927953   6.307   4.249   0.632  0.1575 -0.3681  0.4319
   58MOL   H48027954   6.444   4.343   0.833 -2.7021 -2.4530  0.2184
   58MOL   H48127955   6.592   4.280   0.760  0.5135 -0.2111 -3.9328
   58MOL   H48227956   6.490   4.533   0.675 -0.8309 -1.0030  0.2833
   59MOL     O127957   7.162   5.045   3.071  0.9202 -0.1506 -0.1070
   59MOL     C227958   7.211   5.102   3.194 -0.6055  0.8220  0.4762
   59MOL     C327959   7.150   5.239   3.221  0.1945 -0.0262  0.5801
   59MOL     C427960   7.212   5.354   3.141  0.1840  0.0519 -0.2172
   59MOL     C527961   7.177   5.498   3.185  0.1288  0.1777 -0.4665
   59MOL     O627962   7.050   5.545   3.143  0.1068 -0.4835 -0.6759
   59MOL     C727963   7.014   5.670   3.149  0.2047  0.5299 -0.3827
   59MOL     O827964   7.084   5.769   3.179 -0.0565 -0.6123 -0.0325
   59MOL     C927965   6.872   5.675   3.100 -0.3938 -0.1252 -0.0641
   59MOL    C1027966   6.842   5.800   3.015  0.0099 -0.2028  0.3393
   59MOL    C1127967   6.772   5.913   3.088 -0.1212  0.2388  0.5143
   59MOL    O1227968   6.713   5.897   3.194 -0.3447  0.9249 -0.8021
   59MOL    H1327969   7.183   5.028   3.269 -0.9991 -0.2416 -0.7000
   59MOL    H1427970   7.319   5.102   3.205 -0.4838 -3.3534  0.1358
   59MOL    H1527971   7.171   5.252   3.326 -0.6646 -0.1468  0.7757
   59MOL    H1627972   7.041   5.245   3.210  0.3092  2.3366  0.4315
   59MOL    H1727973   7.190   5.354   3.035  0.9926  1.5545 -0.3932
   59MOL    H1827974   7.321   5.353   3.148  0.3572  1.9450 -2.0562
   59MOL    H1927975   7.189   5.519   3.292  0.8316  0.5763 -0.6196
   59MOL    H2027976   7.249   5.560   3.133  0.3373  0.2794 -0.0621
   59MOL    H2127977   6.804   5.673   3.185  0.0180 -0.4657  0.2558
   59MOL    H2227978   6.858   5.588   3.036  1.0267  0.5419 -1.3147
   59MOL    H2327979   6.933   5.835   2.966  0.1379 -1.7952 -0.6016
   59MOL    H2427980   6.775   5.770   2.934  0.1332  1.1715 -0.2894
   59MOL    H2527981   7.193   5.100   3.000 -1.6081 -0.8688 -1.8400
   59MOL    O2627982   6.770   6.025   3.020  0.0975 -0.0635  0.2323
   59MOL    C2727983   6.700   6.137   3.066 -0.4842  0.1979 -0.3368
   59MOL    C2827984   6.695   6.236   2.955  0.8911 -0.5622 -0.6990
   59MOL    C2927985   6.634   6.369   2.997 -0.1143  0.0578 -0.0221
   59MOL    C3027986   6.592   6.445   2.871 -0.2468  0.3308 -0.0256
   59MOL    O3127987   6.703   6.503   2.802  0.7963 -0.1930  0.0864
   59MOL    C3227988   6.759   6.615   2.836 -0.5653  0.5992 -0.0773
   59MOL    O3327989   6.729   6.695   2.920 -0.2035  0.0627  0.3262
   59MOL    C3427990   6.870   6.651   2.739  0.1693 -0.2072 -0.1064
   59MOL    C3527991   6.918   6.797   2.763 -0.3414  0.6658 -0.9443
   59MOL    C3627992   7.030   6.802   2.866 -0.1552 -0.2265  0.0818
   59MOL    O3727993   7.135   6.744   2.847 -0.6639 -0.5746 -0.0499
   59MOL    H3827994   6.604   6.115   3.113  0.6681 -0.8755  1.5637
   59MOL    H3927995   6.765   6.183   3.140 -1.8372  0.6275  0.5881
   59MOL    H4027996   6.635   6.184   2.879  0.2091 -2.6667  1.2273
   59MOL    H4127997   6.791   6.261   2.909  0.0353  1.4462 -1.4544
   59MOL    H4227998   6.716   6.417   3.050  1.1904 -0.4283 -1.5763
   59MOL    H4327999   6.546   6.348   3.058 -0.7854  1.5944 -0.4276
   59MOL    H4428000   6.536   6.376   2.809 -1.5781  0.7365  0.6921
   59MOL    H4528001   6.517   6.517   2.904 -0.6747  0.2930 -0.9174
   59MOL    H4628002   6.835   6.637   2.637  0.6345 -1.5152 -0.1024
   59MOL    H4728003   6.958   6.587   2.751 -0.1992 -0.7507 -0.2982
   59MOL    H4828004   6.969   6.829   2.672  0.7809  1.8605  0.0920
   59MOL    H4928005   6.836   6.866   2.781  0.3599  1.6335 -1.4410
   59MOL    O5028006   7.003   6.883   2.966  0.2913  0.1338  0.4154
   59MOL    C5128007   7.103   6.912   3.063 -0.2434 -0.3299  0.6241
   59MOL    C5228008   7.032   6.988   3.182 -0.1200  0.5204 -0.3883
   59MOL    C5328009   7.127   7.028   3.293  0.0124  0.2253 -0.0615
   59MOL    C5428010   7.057   7.076   3.430  0.0262 -0.0966  0.0179
   59MOL    O5528011   6.956   7.171   3.414 -0.4871 -0.1225  0.0349
   59MOL    C5628012   6.887   7.214   3.518  0.0672 -0.1325 -0.2708
   59MOL    O5728013   6.885   7.163   3.636  0.3943  0.1193 -0.0044
   59MOL    C5828014   6.796   7.329   3.481  0.2747 -0.8249  0.4454
   59MOL    C5928015   6.835   7.383   3.339 -0.4455 -0.5712 -0.3679
   59MOL    C6028016   6.771   7.519   3.311 -0.4160 -0.0876  0.4964
   59MOL    O6128017   6.842   7.613   3.279  0.5617  0.3216  0.7448
   59MOL    H6228018   7.153   6.818   3.088 -0.2373 -0.2524  0.9026
   59MOL    H6328019   7.173   6.981   3.016  0.4899 -2.8514 -2.1576
   59MOL    H6428020   6.970   6.907   3.222 -0.9682  0.3864 -1.9362
   59MOL    H6528021   6.953   7.060   3.164 -0.4029  0.1495 -0.6463
   59MOL    H6628022   7.192   7.107   3.256  0.2670  0.6954  1.3614
   59MOL    H6728023   7.195   6.947   3.315  0.0888  0.7231  1.5529
   59MOL    H6828024   7.010   6.985   3.466  0.7497 -0.8478 -0.9053
   59MOL    H6928025   7.133   7.108   3.502  1.2006  1.3942 -1.8195
   59MOL    H7028026   6.809   7.406   3.558  1.3612 -0.9998  0.4304
   59MOL    H7128027   6.693   7.293   3.476 -0.7084  1.7113  1.2427
   59MOL    H7228028   6.942   7.397   3.328 -0.4926 -0.6515 -0.9053
   59MOL    H7328029   6.806   7.307   3.267 -0.6181 -0.4873 -0.3882
   59MOL    O7428030   6.645   7.520   3.315  0.5550  0.5434  0.2801
   59MOL    C7528031   6.578   7.643   3.293  0.4955 -0.3047  0.4748
   59MOL    C7628032   6.527   7.695   3.429  0.1623 -0.2071 -0.0618
   59MOL    C7728033   6.626   7.702   3.541 -0.5382  0.8411  0.0346
   59MOL    C7828034   6.565   7.784   3.660 -0.1378  0.1379  0.1023
   59MOL    O7928035   6.672   7.792   3.762  0.1245 -0.3338  0.1244
   59MOL    C8028036   6.660   0.002   3.858  0.1427 -0.8156 -0.2755
   59MOL    O8128037   6.558   0.070   3.883  0.6680 -0.4136 -0.0662
   59MOL    C8228038   6.785   0.002   3.946  0.1843 -0.6326 -0.1604
   59MOL    C8328039   6.758   0.037   4.092  0.0544 -0.4608  0.3738
   59MOL    C8428040   6.699   7.792   4.166 -1.1879  0.5027 -0.6078
   59MOL    O8528041   6.752   7.685   4.150  0.4413  0.3006 -0.3256
   59MOL    H8628042   6.638   7.717   3.241 -0.2809  0.2513  0.3575
   59MOL    H8728043   6.493   7.626   3.226  0.2144 -3.1182  1.4808
   59MOL    H8828044   6.444   7.639   3.470  2.1343 -3.3765 -0.1928
   59MOL    H8928045   6.483   7.793   3.412 -0.7087 -0.4972  0.5324
   59MOL    H9028046   6.717   7.751   3.504  0.2266  2.1618  3.5210
   59MOL    H9128047   6.660   7.601   3.564 -1.0443  1.0793  1.8441
   59MOL    H9228048   6.528   0.007   3.629 -0.4135  0.0693  0.2178
   59MOL    H9328049   6.485   7.721   3.699  0.7503 -1.5490 -0.7389
   59MOL    H9428050   6.852   0.077   3.902  0.4131  0.0613  1.3403
   59MOL    H9528051   6.845   7.787   3.930 -1.4242 -1.6235 -0.8149
   59MOL    H9628052   6.850   0.079   4.133 -1.0757  2.4135  0.0783
   59MOL    H9728053   6.684   0.116   4.098 -0.4752 -0.9492  0.3826
   59MOL    O9828054   6.604   7.828   4.263 -0.2701  0.6243  0.5488
   59MOL    C9928055   6.571   7.736   4.359 -0.1246 -0.2637  0.0026
   59MOL   C10028056   6.682   7.717   4.461 -1.0355  0.3554  0.8143
   59MOL   C10128057   6.647   7.626   4.579 -0.0401  0.2305  0.0872
   59MOL   C10228058   6.749   7.626   4.686  0.0885  0.3004  0.2900
   59MOL   O10328059   6.708   7.548   4.793 -0.3644  0.0414 -0.1627
   59MOL   C10428060   6.758   7.566   4.921 -0.0012  0.2902  0.2311
   59MOL   O10528061   6.846   7.652   4.958 -0.1398  0.3484  0.2697
   59MOL   C10628062   6.678   7.485   5.025  0.4396  0.4868 -0.2624
   59MOL   C10728063   6.756   7.482   5.163 -0.3003 -0.0937  0.0876
   59MOL   C10828064   6.673   7.514   5.284 -0.9042 -0.1143  0.1416
   59MOL   O10928065   6.643   7.433   5.367 -0.1545  0.1643 -0.0039
   59MOL   H11028066   6.481   7.768   4.411  0.0095 -0.2342  0.2172
   59MOL   H11128067   6.541   7.644   4.308 -1.3208 -0.0847  0.3784
   59MOL   H11228068   6.698   7.813   4.510 -0.0656 -0.5272  2.2777
   59MOL   H11328069   6.771   7.679   4.411 -1.1577  1.8571 -0.5933
   59MOL   H11428070   6.640   7.523   4.543 -0.6504 -0.0042  0.8816
   59MOL   H11528071   6.551   7.644   4.627  0.0020  0.3475  0.1291
   59MOL   H11628072   6.842   7.590   4.642 -0.9920 -1.3286 -0.6771
   59MOL   H11728073   6.763   7.731   4.714 -0.5796  0.9350 -1.7075
   59MOL   H11828074   6.657   7.383   4.993 -2.9847 -0.0658  3.4194
   59MOL   H11928075   6.584   7.534   5.051  0.9367  1.1561  0.2917
   59MOL   H12028076   6.806   7.385   5.170 -0.6920 -0.3151 -0.1207
   59MOL   H12128077   6.830   7.561   5.166 -1.5591  1.0540  1.6349
   59MOL   O12228078   6.652   7.643   5.284 -0.4568  0.0145  0.1657
   59MOL   C12328079   6.597   7.706   5.401  0.1066  0.5927  0.3473
   59MOL   C12428080   6.607   7.865   5.394  0.0425  0.3420 -0.5897
   59MOL   C12528081   6.745   0.046   5.418  0.4741 -0.9446 -0.2577
   59MOL   C12628082   6.736   0.202   5.395  0.0146 -0.3434  0.8760
   59MOL   O12728083   6.872   0.253   5.432  0.0139  0.8183 -0.4414
   59MOL   C12828084   6.888   0.361   5.507  0.4502  0.5616  0.4176
   59MOL   O12928085   6.799   0.429   5.554 -0.3500 -0.1417 -0.0445
   59MOL   C13028086   7.035   0.392   5.515 -0.9505 -0.0742  0.1925
   59MOL   C13128087   7.061   0.502   5.617  0.0914 -0.5742  0.2583
   59MOL   C13228088   7.205   0.545   5.630 -0.1291  0.5630  0.3065
   59MOL   O13328089   7.241   0.636   5.556 -0.0791 -0.3097 -0.0279
   59MOL   H13428090   6.492   7.677   5.401  0.2029  0.2241 -1.0510
   59MOL   H13528091   6.645   7.661   5.488  1.6474  0.4854 -0.5305
   59MOL   H13628092   6.543   0.026   5.475 -0.4214 -0.6281 -0.5179
   59MOL   H13728093   6.564   0.027   5.300  0.2129  1.6625 -0.1568
   59MOL   H13828094   6.802   7.870   5.340 -1.5115  0.2244 -2.5458
   59MOL   H13928095   6.783   0.025   5.518  0.6496  0.0484 -0.1110
   59MOL   H14028096   6.715   0.235   5.293 -1.7550 -0.0850  1.3054
   59MOL   H14128097   6.664   0.256   5.458  0.9226  1.3297  0.5025
   59MOL   H14228098   7.078   0.416   5.418  1.0709  0.3855  1.1710
   59MOL   H14328099   7.074   0.298   5.554  1.0207 -0.1616 -1.8956
   59MOL   H14428100   6.999   0.589   5.596  0.7708  0.3490  1.9538
   59MOL   H14528101   7.023   0.473   5.714  2.5713  4.0664  2.7886
   59MOL   O14628102   7.282   0.467   5.712  0.2080  0.1179 -0.3169
   59MOL   C14728103   7.418   0.493   5.729 -0.2578  0.1009 -0.2613
   59MOL   C14828104   7.494   0.367   5.702  0.4128  0.3236 -0.2451
   59MOL   C14928105   7.475   0.298   5.565  0.4896 -0.0326  0.2614
   59MOL   C15028106   7.536   0.369   5.445 -0.0077  0.5158  0.1839
   59MOL   O15128107   7.522   0.287   5.326 -0.4430 -0.1048 -1.2111
   59MOL   C15228108   7.621   0.198   5.301  0.2585 -0.7682  0.0811
   59MOL   O15328109   7.721   0.188   5.376  0.5576  0.1627  0.7715
   59MOL   C15428110   7.606   0.131   5.161 -0.6064 -0.1145 -0.5647
   59MOL   C15528111   7.729   0.079   5.089 -0.0730  0.4370 -0.2721
   59MOL   C15628112   7.709   7.842   4.987  0.6197 -0.1059  0.7323
   59MOL   O15728113   7.753   7.856   4.873  0.5508 -0.0129  0.1927
   59MOL   H15828114   7.453   0.576   5.667  0.4105  1.3681  1.7545
   59MOL   H15928115   7.425   0.524   5.833  0.7706 -2.0383  0.3336
   59MOL   H16028116   7.454   0.301   5.778 -1.8998  0.3980 -1.3749
   59MOL   H16128117   7.600   0.391   5.711  0.5284  0.2427 -1.3631
   59MOL   H16228118   7.369   0.289   5.543  0.5713 -0.7838  0.1734
   59MOL   H16328119   7.509   0.195   5.579 -1.6105 -0.6504  1.0338
   59MOL   H16428120   7.476   0.457   5.423 -0.8631 -0.3534 -1.0478
   59MOL   H16528121   7.636   0.404   5.467 -0.1143  0.0771  1.4717
   59MOL   H16628122   7.541   0.192   5.098 -1.7732  0.3278  1.0463
   59MOL   H16728123   7.567   0.031   5.180 -0.5482 -0.4998 -2.3651
   59MOL   H16828124   7.777   0.158   5.031 -0.7752  0.1776 -1.2155
   59MOL   H16928125   7.798   0.054   5.169  0.0630  0.4658 -0.3800
   59MOL   O17028126   7.633   7.738   5.037 -0.1560 -0.2368  0.3354
   59MOL   C17128127   7.592   7.623   4.956  0.6396 -0.0454  0.5489
   59MOL   C17228128   7.482   7.541   5.023  0.5735 -0.2413  0.4046
   59MOL   C17328129   7.336   7.585   4.987  0.0757  0.0414  0.4141
   59MOL   C17428130   7.246   7.525   5.094 -0.2363 -0.3357  0.2814
   59MOL   O17528131   7.221   7.389   5.056 -0.1071  0.1446 -0.8098
   59MOL   C17628132   7.268   7.292   5.137 -0.0471  0.5063 -0.0467
   59MOL   O17728133   7.344   7.307   5.234  0.0733 -0.5299 -0.1219
   59MOL   C17828134   7.230   7.151   5.086  0.1011 -0.2055 -0.1651
   59MOL   C17928135   7.355   7.067   5.065 -0.2603 -0.1582 -0.0738
   59MOL   C18028136   7.367   6.952   5.161 -0.2976  0.3374 -0.6311
   59MOL   O18128137   7.444   6.857   5.140 -0.2791 -0.3845  1.0173
   59MOL   H18228138   7.578   7.651   4.851  0.5089  0.1025  0.6065
   59MOL   H18328139   7.681   7.561   4.940 -0.0348 -0.8851 -0.0256
   59MOL   H18428140   7.507   7.548   5.129 -1.8657  2.3524  0.8864
   59MOL   H18528141   7.502   7.439   4.992  2.1059  0.8977 -2.5298
   59MOL   H18628142   7.316   7.542   4.889  0.5408  0.9455 -0.0826
   59MOL   H18728143   7.328   7.694   4.992 -0.7008  0.0520 -0.9454
   59MOL   H18828144   7.293   7.532   5.192  1.4740 -0.6579 -0.5007
   59MOL   H18928145   7.154   7.583   5.104 -0.7801 -1.0205 -0.6533
   59MOL   H19028146   7.176   7.152   4.992  1.1634 -0.4915 -0.7856
   59MOL   H19128147   7.162   7.111   5.161  0.5261 -0.5853  0.0182
   59MOL   H19228148   7.344   7.028   4.964  1.3883  1.8402 -1.0720
   59MOL   H19328149   7.450   7.121   5.064 -0.5464  0.3418 -1.4995
   59MOL   O19428150   7.293   6.967   5.273 -0.0398  0.1793 -0.1778
   59MOL   C19528151   7.305   6.869   5.373 -0.2759  0.4007  0.0696
   59MOL   C19628152   7.200   6.906   5.480 -0.6328 -0.3623  0.1383
   59MOL   C19728153   7.196   6.811   5.602  0.2688 -0.2638  0.4274
   59MOL   C19828154   7.080   6.841   5.698 -0.2961  0.9550  0.1480
   59MOL   O19928155   6.959   6.810   5.639 -0.0496  0.5687 -0.1751
   59MOL   C20028156   6.850   6.792   5.709  0.2985 -0.1733  0.0839
   59MOL   O20128157   6.837   6.798   5.829  0.4715  0.0640  0.0584
   59MOL   C20228158   6.730   6.781   5.618  0.2185 -0.4319  0.5888
   59MOL   C20328159   6.618   6.889   5.632 -0.2949  0.4212 -0.2031
   59MOL   C20428160   6.481   6.826   5.668  0.4624 -0.1608  0.4536
   59MOL   O20528161   6.386   6.809   5.587 -0.7513 -0.3879  0.1571
   59MOL   H20628162   7.292   6.768   5.334  0.6632  0.1519  0.3920
   59MOL   H20728163   7.404   6.870   5.418  0.0361 -1.7099 -0.5366
   59MOL   H20828164   7.101   6.901   5.435 -0.0385  1.0888 -1.3871
   59MOL   H20928165   7.210   7.009   5.513 -2.1133  0.8738 -3.0572
   59MOL   H21028166   7.288   6.809   5.659 -0.3923  1.2242  1.5618
   59MOL   H21128167   7.172   6.712   5.563  1.7546 -1.0482  1.4942
   59MOL   H21228168   7.109   6.781   5.785 -1.3135  0.0764 -0.1093
   59MOL   H21328169   7.073   6.944   5.734 -1.1505  0.6690  0.8234
   59MOL   H21428170   6.683   6.684   5.634 -1.4000 -0.0153 -1.4278
   59MOL   H21528171   6.764   6.784   5.514 -0.5023 -1.0954  0.3246
   59MOL   H21628172   6.639   6.965   5.707 -3.0355  1.3191 -0.2823
   59MOL   H21728173   6.608   6.933   5.534  0.4534  0.3624 -0.3046
   59MOL   O21828174   6.479   6.769   5.791 -0.4892  0.3413 -0.0410
   59MOL   C21928175   6.358   6.714   5.853 -0.3916  0.3038 -0.4104
   59MOL   C22028176   6.392   6.715   5.999 -0.2615 -0.2589 -0.0050
   59MOL   C22128177   6.287   6.663   6.094  0.1636  0.5353 -0.1181
   59MOL   C22228178   6.337   6.655   6.234 -0.0208  0.5453  0.0905
   59MOL   O22328179   6.345   6.790   6.297 -0.1241 -0.3032 -0.6315
   59MOL   C22428180   6.392   6.800   6.418 -0.9162  0.2524 -0.0454
   59MOL   O22528181   6.462   6.716   6.476  0.1555  0.5786  0.1084
   59MOL   C22628182   6.376   6.942   6.485  0.9488 -0.5553 -0.4928
   59MOL   C22728183   6.482   7.042   6.444  0.3351  0.7938 -0.1460
   59MOL   C22828184   6.575   7.083   6.550  1.1528 -0.5180  0.0733
   59MOL   O22928185   6.545   7.106   6.666  0.6117 -0.2009  0.1695
   59MOL   H23028186   6.270   6.774   5.831  1.2144  2.9022  0.0629
   59MOL   H23128187   6.357   6.607   5.831 -0.0633  0.5306 -1.5893
   59MOL   H23228188   6.446   6.807   6.022  2.6395 -2.0408  0.4672
   59MOL   H23328189   6.476   6.648   6.011 -0.7819 -0.5426  2.3154
   59MOL   H23428190   6.264   6.562   6.061  0.1851  0.1888  0.8909
   59MOL   H23528191   6.194   6.719   6.084 -0.9035 -0.7615  2.1067
   59MOL   H23628192   6.269   6.592   6.292 -1.4919  1.4278 -0.6320
   59MOL   H23728193   6.436   6.611   6.228  0.1637  0.5126  2.6807
   59MOL   H23828194   6.376   6.923   6.593 -1.9659  1.7940  0.0112
   59MOL   H23928195   6.276   6.979   6.460  0.7861 -0.8005 -0.2086
   59MOL   H24028196   6.547   6.998   6.368 -0.9002 -0.9404 -0.2106
   59MOL   H24128197   6.436   7.125   6.391 -0.6117 -1.4047 -2.8757
   59MOL   O24228198   6.696   7.077   6.505 -0.2936 -0.3904 -0.5991
   59MOL   C24328199   6.815   7.096   6.583 -0.2323 -0.1053  0.2990
   59MOL   C24428200   6.934   7.110   6.487  0.4106 -0.1578  0.0540
   59MOL   C24528201   6.932   7.231   6.390  0.8481  0.1406 -0.3977
   59MOL   C24628202   7.076   7.295   6.374 -0.0260  0.1399  0.3904
   59MOL   O24728203   7.128   7.339   6.494 -0.8700 -0.1632 -0.0673
   59MOL   C24828204   7.098   7.461   6.539 -0.6566  0.2533 -0.4728
   59MOL   O24928205   7.013   7.536   6.491  0.1219 -0.0039 -0.1267
   59MOL   C25028206   7.191   7.505   6.653  0.2960 -0.1276  0.3657
   59MOL   C25128207   7.143   7.639   6.717  0.2910  0.4630  0.3031
   59MOL   C25228208   7.106   7.623   6.863  0.9725 -0.5978 -0.5157
   59MOL   O25328209   6.991   7.648   6.902 -0.2737  0.1582  0.1104
   59MOL   H25428210   6.805   7.182   6.649  1.7310  0.4530 -0.0988
   59MOL   H25528211   6.823   7.008   6.647  0.7201 -1.2753 -1.3793
   59MOL   H25628212   6.945   7.018   6.429  2.3160 -1.1244  1.8983
   59MOL   H25728213   7.021   7.107   6.552 -0.6539 -0.0652  1.5026
   59MOL   H25828214   6.868   7.313   6.424  2.7166  0.7361  1.8177
   59MOL   H25928215   6.900   7.208   6.289  0.0951  1.8739 -0.5668
   59MOL   H26028216   7.137   7.221   6.322 -3.4532 -1.8173 -1.0222
   59MOL   H26128217   7.095   7.379   6.306  0.0580 -1.0828 -1.1355
   59MOL   H26228218   7.294   7.498   6.618  0.3975  0.7392  0.4919
   59MOL   H26328219   7.188   7.433   6.735  1.7201  0.1521  0.6810
   59MOL   H26428220   7.213   7.719   6.693 -0.7297  1.8344  1.8220
   59MOL   H26528221   7.057   7.681   6.666  0.7743 -1.1558 -1.9478
   59MOL   O26628222   7.210   7.578   6.941 -0.0068 -0.0095  1.2186
   59MOL   C26728223   7.193   7.572   7.079  0.7530  0.1838  0.3791
   59MOL   C26828224   7.134   7.435   7.128  0.2495 -0.0151 -0.4231
   59MOL   C26928225   7.232   7.329   7.106  0.3616  0.6849 -0.4611
   59MOL   C27028226   7.175   7.192   7.158 -0.0491  0.4372  0.2022
   59MOL   O27128227   7.288   7.113   7.185 -0.5095  0.5984 -0.5105
   59MOL   C27228228   7.268   6.997   7.247  0.6666 -0.8483  0.2624
   59MOL   O27328229   7.158   6.958   7.261  0.1899  0.0176 -0.0173
   59MOL   C27428230   7.394   6.929   7.299  0.1266  0.2925  0.7851
   59MOL   C27528231   7.380   6.824   7.403 -0.1690 -0.3188 -0.1244
   59MOL   C27628232   7.479   6.716   7.361  0.3781  0.2424 -0.3062
   59MOL   O27728233   7.439   6.609   7.318 -0.0912 -0.1140 -0.1992
   59MOL   H27828234   7.287   7.581   7.134 -0.1115  0.8151  1.8073
   59MOL   H27928235   7.130   7.654   7.115 -1.2188  0.0216 -2.5696
   59MOL   H28028236   7.042   7.417   7.072 -0.9274  2.0446  0.8052
   59MOL   H28128237   7.109   7.438   7.234  0.8056 -0.8021 -0.2628
   59MOL   H28228238   7.319   7.350   7.167  0.5414 -2.1090  0.3025
   59MOL   H28328239   7.262   7.325   7.002 -0.1946  0.5248 -0.6178
   59MOL   H28428240   7.126   7.202   7.255  0.9695 -1.2433  0.9224
   59MOL   H28528241   7.108   7.157   7.079 -1.3394  2.0699  0.5602
   59MOL   H28628242   7.455   7.008   7.342 -0.6394  0.8972  0.7583
   59MOL   H28728243   7.454   6.893   7.215 -0.4564  1.3825 -0.1166
   59MOL   H28828244   7.414   6.862   7.499 -0.7031 -0.2552  0.0425
   59MOL   H28928245   7.274   6.797   7.412  0.0091 -1.0335 -0.1166
   59MOL   O29028246   7.606   6.766   7.351  0.9226  0.1609  0.4347
   59MOL   C29128247   7.708   6.678   7.305 -0.1502 -0.0616  1.0489
   59MOL   C29228248   7.716   6.676   7.151  0.2309  0.5189 -0.4073
   59MOL   C29328249   7.837   6.605   7.096 -0.1228  0.2663  0.4781
   59MOL   C29428250   7.850   6.591   6.938 -0.5488 -0.8733  0.2168
   59MOL   O29528251   7.735   6.522   6.895  0.6942 -0.5560  0.6514
   59MOL   C29628252   7.726   6.477   6.769 -0.2180  0.0557 -0.1286
   59MOL   O29728253   7.804   6.495   6.675 -0.6932 -0.5185 -0.5441
   59MOL   C29828254   7.605   6.381   6.759 -0.6207 -0.7532 -0.8838
   59MOL   C29928255   7.536   6.380   6.622 -0.1152 -0.4254  0.3402
   59MOL   C30028256   7.394   6.331   6.636 -0.2646  0.6918  0.1749
   59MOL   O30128257   7.302   6.401   6.694 -0.3636  0.5745  0.0158
   59MOL   H30228258   7.796   6.722   7.351 -0.1805 -0.1691  1.2071
   59MOL   H30328259   7.708   6.574   7.336  1.6016 -0.0961  0.9898
   59MOL   H30428260   7.716   6.780   7.118 -0.2879  1.4752  2.4866
   59MOL   H30528261   7.630   6.620   7.113  0.7949 -0.3034 -0.4725
   59MOL   H30628262   7.835   6.505   7.140  3.3570 -0.0305  0.0627
   59MOL   H30728263   0.049   6.659   7.133  2.3089 -4.3486  1.7956
   59MOL   H30828264   7.860   6.687   6.887  0.6806 -0.7409  0.6850
   59MOL   H30928265   0.070   6.543   6.912  0.8072  0.8466  1.8844
   59MOL   H31028266   7.540   6.412   6.840  0.4269  0.0816 -0.3420
   59MOL   H31128267   7.655   6.291   6.796 -0.7066  0.5317  2.4772
   59MOL   H31228268   7.534   6.482   6.584 -0.4461 -0.0231  1.4269
   59MOL   H31328269   7.588   6.315   6.550  1.4932  0.2906  0.8307
   59MOL   O31428270   7.390   6.202   6.604 -0.2156 -0.1673 -0.7318
   59MOL   C31528271   7.281   6.124   6.656  0.3241  0.7237  0.1174
   59MOL   C31628272   7.332   5.997   6.722  0.8405 -0.0134 -0.1287
   59MOL   C31728273   7.437   6.016   6.834  0.5068  0.1686  0.8170
   59MOL   C31828274   7.387   6.090   6.958 -0.1587 -0.3032  0.2623
   59MOL   O31928275   7.480   6.091   7.061 -0.0393  0.3370 -0.0345
   59MOL   C32028276   7.547   6.202   7.098  0.1603 -0.6856  0.1574
   59MOL   O32128277   7.532   6.312   7.049  0.1767 -0.4340  0.2932
   59MOL   C32228278   7.632   6.179   7.225  0.2545 -0.0111 -0.6635
   59MOL   C32328279   7.571   6.248   7.353 -0.0749 -0.1466  0.3263
   59MOL   C32428280   7.499   6.146   7.440  0.3205  0.8047 -0.8019
   59MOL   O32528281   7.525   6.142   7.559 -0.2811 -0.6209 -0.5773
   59MOL   H32628282   7.208   6.184   6.710  0.1316  1.9447 -1.4931
   59MOL   H32728283   7.230   6.102   6.563 -0.2323 -0.5809  0.7229
   59MOL   H32828284   7.382   5.941   6.644  0.1334  0.6273 -1.0530
   59MOL   H32928285   7.249   5.935   6.755  1.1463 -0.0848  0.5200
   59MOL   H33028286   7.528   6.061   6.794 -1.2594 -0.3086 -3.9666
   59MOL   H33128287   7.482   5.920   6.861  0.4187  0.4235  1.9125
   59MOL   H33228288   7.351   6.192   6.940 -1.4807 -0.8408 -0.1563
   59MOL   H33328289   7.306   6.043   7.013  0.6313 -0.3769  1.3660
   59MOL   H33428290   7.729   6.221   7.198 -0.0708  0.5948 -0.9134
   59MOL   H33528291   7.650   6.072   7.237 -0.0856  0.0386  0.3537
   59MOL   H33628292   7.658   6.286   7.407  1.1930 -3.2539  0.5585
   59MOL   H33728293   7.504   6.333   7.337 -0.8505 -1.0144 -1.1007
   59MOL   O33828294   7.401   6.071   7.375 -0.5740  0.3504 -0.3321
   59MOL   C33928295   7.331   5.974   7.443  0.6776  0.2132  0.2313
   59MOL   C34028296   7.203   5.919   7.364 -0.1972  0.3789 -0.1071
   59MOL   C34128297   7.233   5.818   7.255 -0.2585 -0.1870  0.7862
   59MOL   C34228298   7.112   5.741   7.197 -0.0863  0.5506 -0.3838
   59MOL   O34328299   7.148   5.655   7.093  0.2008 -0.0022 -0.2332
   59MOL   C34428300   7.161   5.716   6.970 -0.2215 -0.1042  0.0307
   59MOL   O34528301   7.146   5.836   6.950  0.5593  0.5439 -0.7739
   59MOL   C34628302   7.210   5.614   6.867  0.2754 -1.0522  0.0410
   59MOL   C34728303   7.355   5.575   6.888 -0.3754  0.8223 -0.4481
   59MOL   C34828304   7.371   5.446   6.974 -0.6981 -0.2632  0.6422
   59MOL   O34928305   7.413   5.456   7.087  0.4229 -0.5433 -0.0892
   59MOL   H35028306   7.403   5.896   7.470 -0.4329 -0.6080  0.8852
   59MOL   H35128307   7.307   6.008   7.544  5.0310  0.3270  1.2919
   59MOL   H35228308   7.145   6.006   7.333 -0.3626  0.0155 -0.8262
   59MOL   H35328309   7.147   5.867   7.442  1.6997 -0.2304  0.8798
   59MOL   H35428310   7.313   5.752   7.288  1.1754  0.7732 -0.6718
   59MOL   H35528311   7.293   5.859   7.174 -0.6652  0.2887  0.7228
   59MOL   H35628312   7.072   5.681   7.279  2.2344  0.7274  0.9066
   59MOL   H35728313   7.030   5.809   7.172  0.4171  1.6851  0.9841
   59MOL   H35828314   7.203   5.667   6.772  2.5576  1.5807  1.2796
   59MOL   H35928315   7.153   5.521   6.870 -0.4963 -0.5435  1.8151
   59MOL   H36028316   7.394   5.560   6.788 -0.2799 -0.2911 -0.2543
   59MOL   H36128317   7.414   5.652   6.938 -0.2879 -0.1378  0.9657
   59MOL   O36228318   7.337   5.333   6.903  0.5304  0.0755  0.6173
   59MOL   C36328319   7.321   5.207   6.974  0.0556 -0.2054  0.3705
   59MOL   C36428320   7.177   5.157   6.980 -0.1614  0.1746 -0.2715
   59MOL   C36528321   7.074   5.250   7.053  0.4672  0.2712  0.9078
   59MOL   C36628322   7.060   5.228   7.204 -0.2041  0.1235 -0.2219
   59MOL   O36728323   7.190   5.256   7.263  0.3964 -0.1231  0.2307
   59MOL   C36828324   7.197   5.277   7.393 -0.3168 -0.1906  0.2140
   59MOL   O36928325   7.107   5.255   7.472  0.1774 -0.7425 -0.4569
   59MOL   C37028326   7.333   5.341   7.440  0.2939  0.5748 -0.1217
   59MOL   C37128327   7.335   5.491   7.411 -0.1941  0.0667  0.4153
   59MOL   C37228328   7.407   5.565   7.528 -0.1506 -0.0944 -0.3450
   59MOL   O37328329   7.347   5.647   7.591 -0.0908  0.0634 -0.7049
   59MOL   H37428330   7.375   5.128   6.921 -1.5332 -0.4174 -0.9558
   59MOL   H37528331   7.365   5.209   7.074 -0.2740 -3.6945  0.6538
   59MOL   H37628332   7.172   5.057   7.023  1.9042  1.3849  2.9104
   59MOL   H37728333   7.149   5.128   6.879  0.8547  0.7519 -0.7153
   59MOL   H37828334   6.978   5.230   7.006  0.4606  1.2546  0.4873
   59MOL   H37928335   7.084   5.357   7.035  0.7329  0.1690  0.4218
   59MOL   H38028336   6.991   5.299   7.249 -1.5316  0.2512 -2.3615
   59MOL   H38128337   7.023   5.126   7.217  0.8283 -0.0717  1.3086
   59MOL   H38228338   7.415   5.285   7.395  0.2760 -1.6571  2.4795
   59MOL   H38328339   7.337   5.321   7.547 -1.7390  0.9690  0.0485
   59MOL   H38428340   7.393   5.519   7.323 -3.1710  1.1726 -1.2985
   59MOL   H38528341   7.238   5.536   7.387  1.0985  3.2368  0.9181
   59MOL   O38628342   7.539   5.537   7.531  0.3770 -0.7941  0.4030
   59MOL   C38728343   7.627   5.618   7.609 -0.4635 -0.2504 -0.6050
   59MOL   C38828344   7.767   5.560   7.568 -0.6342 -0.8478 -0.8753
   59MOL   C38928345   7.790   5.425   7.644  0.1057 -0.2702  0.4973
   59MOL   C39028346   0.033   5.354   7.569  0.2989 -0.7674  0.1278
   59MOL   O39128347   7.868   5.307   7.435  0.1945  0.0892  0.1125
   59MOL   C39228348   7.787   5.204   7.422 -0.0718  0.3517  0.7527
   59MOL   O39328349   7.741   5.139   7.514 -0.3638  0.0264 -0.3686
   59MOL   C39428350   7.755   5.169   7.278 -0.6397  0.4321  0.3080
   59MOL   C39528351   7.639   5.067   7.257 -0.4111 -0.3311 -0.0205
   59MOL   C39628352   7.655   4.988   7.125  0.1044 -0.4803  0.3503
   59MOL   O39728353   7.643   5.042   7.013 -0.2496 -0.3389  0.1450
   59MOL   H39828354   7.614   5.721   7.576  0.6241 -0.2553 -1.0816
   59MOL   H39928355   7.602   5.610   7.715  0.3253 -1.2780 -0.4865
   59MOL   H40028356   7.837   5.633   7.608  1.3903 -1.5503 -2.9693
   59MOL   H40128357   7.768   5.554   7.459  0.2661 -0.0898 -0.9156
   59MOL   H40228358   7.702   5.362   7.651 -0.3041  0.2373 -0.0574
   59MOL   H40328359   7.809   5.449   7.749  0.9770  2.4198 -0.2348
   59MOL   H40428360   0.121   5.418   7.568 -1.2494  1.4140  0.7931
   59MOL   H40528361   0.068   5.272   7.632  0.2285 -2.0792 -1.4883
   59MOL   H40628362   7.848   5.128   7.238 -0.8291 -0.3143  0.6194
   59MOL   H40728363   7.726   5.262   7.229  2.4398  2.0867  1.4711
   59MOL   H40828364   7.632   5.003   7.345  0.5639  1.0686  1.1135
   59MOL   H40928365   7.549   5.128   7.258 -1.6355 -2.0870 -0.5993
   59MOL   O41028366   7.672   4.863   7.153 -0.2883  0.3215 -0.0453
   59MOL   C41128367   7.685   4.771   7.048  0.0881  0.3633  0.0876
   59MOL   C41228368   7.681   4.629   7.103  0.2518  0.3454 -0.4556
   59MOL   C41328369   7.813   4.590   7.162 -0.3358 -0.2269 -0.3399
   59MOL   C41428370   7.840   4.633   7.304  0.1821  0.0100  0.3496
   59MOL   O41528371   0.096   4.595   7.348 -0.8405 -0.2253  0.1095
   59MOL   C41628372   0.113   4.481   7.411  0.0599  0.4793  0.7568
   59MOL   O41728373   0.023   4.408   7.447 -0.1241  0.2568 -0.2626
   59MOL   C41828374   0.255   4.450   7.452  0.4171 -0.1183 -0.4790
   59MOL   C41928375   0.271   4.308   7.492  0.1713  0.3589 -0.5420
   59MOL   C42028376   0.411   4.258   7.466  0.6886 -0.0895 -0.1509
   59MOL   O42128377   0.433   4.161   7.388  0.2492 -0.1696 -0.2748
   59MOL   H42228378   7.596   4.789   6.987  0.7952  0.0951 -1.0328
   59MOL   H42328379   7.764   4.793   6.977 -1.9228  1.0670 -2.0167
   59MOL   H42428380   7.665   4.551   7.028  1.1340 -2.3294  2.0345
   59MOL   H42528381   7.617   4.618   7.191  2.9781  0.7414  1.6677
   59MOL   H42628382   0.006   4.636   7.090 -1.9521  3.3523  0.3033
   59MOL   H42728383   7.842   4.486   7.154  2.1655  0.3070  1.2818
   59MOL   H42828384   7.830   4.741   7.318 -2.7969  0.1022 -2.0784
   59MOL   H42928385   7.760   4.592   7.366  1.1191 -1.2593  0.7324
   59MOL   H43028386   0.287   4.521   7.529  0.5914 -1.2460  0.5010
   59MOL   H43128387   0.308   4.479   7.361 -0.4819 -1.5559 -1.4794
   59MOL   H43228388   0.249   4.306   7.599 -0.6407  0.8300 -0.7009
   59MOL   H43328389   0.190   4.250   7.449 -0.6335  1.3639 -0.3965
   59MOL   O43428390   0.499   4.336   7.531  0.1035 -0.5391  0.3616
   59MOL   C43528391   0.633   4.294   7.522 -1.1731 -0.2908  0.5648
   59MOL   C43628392   0.710   4.403   7.440  1.1954  0.3935  0.0472
   59MOL   C43728393   0.655   4.443   7.302  0.3695  0.6607  0.2230
   59MOL   C43828394   0.681   4.337   7.191 -0.3783 -0.0998  0.4842
   59MOL   O43928395   0.823   4.334   7.152  0.8536  0.3043 -0.3231
   59MOL   C44028396   0.851   4.319   7.022  0.0058  0.2505 -0.1727
   59MOL   O44128397   0.771   4.306   6.927 -0.5221  0.1227 -0.0560
   59MOL   C44228398   1.001   4.340   7.000  0.2022 -0.3540  0.8460
   59MOL   C44328399   1.035   4.461   6.911  0.3502  0.1283 -0.0505
   59MOL   C44428400   1.169   4.519   6.946 -0.0117  0.5021  0.2977
   59MOL   O44528401   1.189   4.638   6.940 -0.5039 -0.2193 -0.1110
   59MOL   H44628402   0.681   4.289   7.620 -0.3735  0.4861  0.2205
   59MOL   H44728403   0.653   4.204   7.465  2.2915  1.0755 -0.4728
   59MOL   H44828404   0.808   4.359   7.420  0.1468 -2.4500  0.8195
   59MOL   H44928405   0.738   4.491   7.497  1.9505 -0.5006  1.0945
   59MOL   H45028406   0.709   4.526   7.256 -0.6808  0.2899 -1.7196
   59MOL   H45128407   0.551   4.474   7.299  0.0853 -0.3131  0.0241
   59MOL   H45228408   0.659   4.237   7.228 -0.3599  0.1597  1.2086
   59MOL   H45328409   0.616   4.362   7.108  0.6282 -0.4286 -0.4065
   59MOL   H45428410   1.042   4.254   6.947 -0.4862 -0.1393 -0.0548
   59MOL   H45528411   1.051   4.372   7.092 -0.7932  1.0330  0.9204
   59MOL   H45628412   1.038   4.447   6.803 -0.0657  0.5658 -0.1222
   59MOL   H45728413   0.966   4.542   6.936  0.3022  0.1161 -0.1404
   59MOL   O45828414   1.252   4.425   6.984 -0.0456 -0.3201 -0.2992
   59MOL   C45928415   1.381   4.453   7.025  0.0986 -0.6878 -0.1223
   59MOL   C46028416   1.408   4.467   7.175  0.7059  0.4702  0.0500
   59MOL   C46128417   1.542   4.520   7.229 -0.7893  0.6750 -0.0003
   59MOL   C46228418   1.546   4.555   7.377 -0.3461 -0.1854  0.0580
   59MOL   O46328419   1.562   4.441   7.460  0.2897  0.2587  0.0570
   59MOL   C46428420   1.522   4.443   7.591  0.2612 -0.5100  0.2122
   59MOL   O46528421   1.460   4.537   7.642 -0.3233  0.1904  0.1007
   59MOL   C46628422   1.552   4.310   7.651 -0.4643 -0.3207  0.6316
   59MOL   C46728423   1.429   4.214   7.622  0.1908 -0.6058  0.0619
   59MOL   C46828424   1.470   4.069   7.674  0.1392 -0.1819 -0.3654
   59MOL   O46928425   1.524   4.053   7.782 -0.2439 -0.7749  0.0442
   59MOL   H47028426   1.446   4.374   6.987  0.2428 -0.9935  0.7447
   59MOL   H47128427   1.424   4.540   6.976 -0.6055  0.3913  1.1484
   59MOL   H47228428   1.384   4.366   7.211  1.7590  0.6421  1.2668
   59MOL   H47328429   1.322   4.521   7.214  0.5994  0.9422 -0.8337
   59MOL   H47428430   1.568   4.603   7.163 -1.9411  0.9522 -0.1125
   59MOL   H47528431   1.610   4.436   7.215 -2.4970 -0.3887 -2.0977
   59MOL   H47628432   1.633   4.619   7.395 -0.5970 -0.4893  2.5044
   59MOL   H47728433   1.456   4.608   7.405  0.0068 -1.1901  3.2004
   59MOL   H47828434   1.577   4.326   7.756  2.5915  2.1283 -0.3881
   59MOL   H47928435   1.636   4.266   7.599 -3.3163 -1.2209 -3.4530
   59MOL   H48028436   1.334   4.260   7.648  1.2168  0.9763  1.0776
   59MOL   H48128437   1.423   4.186   7.516  1.5019  0.8874 -0.4238
   59MOL   H48228438   1.432   3.982   7.622  0.6101 -1.5883  1.5883
   60MOL     O128439   0.945   0.406   3.694 -0.2582 -0.1282  0.4074
   60MOL     C228440   1.020   0.501   3.766  0.0243  0.3674 -0.0462
   60MOL     C328441   0.929   0.627   3.791  0.2604 -0.2293  0.0772
   60MOL     C428442   0.821   0.603   3.905  0.0223 -0.2483 -0.2621
   60MOL     C528443   0.694   0.691   3.876  0.3817 -0.3743  0.2700
   60MOL     O628444   0.597   0.639   3.964  1.1218  0.1858  0.0794
   60MOL     C728445   0.473   0.676   3.977  0.1465  0.4761  0.9527
   60MOL     O828446   0.420   0.753   3.903 -0.2254  0.2229 -0.1095
   60MOL     C928447   0.392   0.616   4.091  0.0430 -0.2106 -0.1352
   60MOL    C1028448   0.258   0.560   4.042 -0.7691  0.0273  0.1684
   60MOL    C1128449   0.230   0.416   4.078 -0.0935  0.8985  0.6573
   60MOL    O1228450   0.151   0.383   4.163  0.3677 -1.0082 -0.3335
   60MOL    H1328451   1.061   0.468   3.861 -1.0010 -1.0401 -0.0789
   60MOL    H1428452   1.121   0.520   3.728  0.3326 -0.0823  0.5439
   60MOL    H1528453   0.880   0.674   3.705  1.9533  0.0967 -0.7237
   60MOL    H1628454   0.990   0.712   3.821 -0.6754  0.8909 -1.1145
   60MOL    H1728455   0.850   0.634   4.005 -0.1254  1.3654 -0.6971
   60MOL    H1828456   0.784   0.501   3.905  1.3251 -0.7242  0.8058
   60MOL    H1928457   0.704   0.799   3.887  2.6214 -0.5800  0.2961
   60MOL    H2028458   0.659   0.683   3.773  1.5453  0.4767 -0.2024
   60MOL    H2128459   0.360   0.687   4.167 -1.8913 -0.8055 -0.3661
   60MOL    H2228460   0.440   0.536   4.146 -2.3256 -1.1410  0.6585
   60MOL    H2328461   0.179   0.624   4.083  1.2296  3.0699 -0.5531
   60MOL    H2428462   0.252   0.589   3.937  2.0800 -2.2561 -0.6656
   60MOL    H2528463   0.874   0.368   3.743  0.1678 -1.3683  0.0954
   60MOL    O2628464   0.289   0.337   3.988 -0.1947  0.2936  0.5293
   60MOL    C2728465   0.256   0.202   3.987 -0.0741  0.3687  0.9276
   60MOL    C2828466   0.124   0.184   3.918 -0.5454 -0.4324 -0.4149
   60MOL    C2928467   0.084   0.032   3.921  0.1887  0.2657 -0.2277
   60MOL    C3028468   7.830   7.852   3.850  0.0116 -0.0239 -0.3889
   60MOL    O3128469   7.809   7.721   3.900  0.5874  0.2394 -0.6069
   60MOL    C3228470   7.704   7.698   3.993 -0.3704  0.0981  1.0180
   60MOL    O3328471   7.633   7.792   4.033  0.0875  0.6197 -0.2800
   60MOL    C3428472   7.681   7.557   4.038 -0.6674  0.5286 -0.5321
   60MOL    C3528473   7.812   7.481   4.059 -0.3140  0.7917  0.0273
   60MOL    C3628474   7.851   7.464   4.206  0.5376 -0.1575 -0.3082
   60MOL    O3728475   7.835   7.561   4.282  0.2142 -0.7877 -0.3183
   60MOL    H3828476   0.329   0.142   3.932 -0.3649  0.4927  0.4101
   60MOL    H3928477   0.250   0.168   4.091 -2.8320 -0.7840  0.4290
   60MOL    H4028478   0.124   0.212   3.813  0.5759  1.7902  0.1521
   60MOL    H4128479   0.050   0.240   3.975  0.1164  0.6831 -0.6394
   60MOL    H4228480   0.071   0.014   4.027  0.9684 -0.3086 -0.2282
   60MOL    H4328481   0.170   7.842   3.906  1.9088  1.7078  3.0688
   60MOL    H4428482   7.756   0.053   3.874  0.8871  0.8196 -0.3071
   60MOL    H4528483   7.847   7.848   3.743  0.4730 -2.0331 -0.2723
   60MOL    H4628484   7.639   7.508   3.950 -0.1420  0.8778 -0.9820
   60MOL    H4728485   7.609   7.543   4.118  0.6603  0.0553  0.5930
   60MOL    H4828486   7.808   7.378   4.024 -6.5845  0.6002  0.7607
   60MOL    H4928487   0.025   7.533   4.020 -1.3832  2.5312 -0.1149
   60MOL    O5028488   0.021   7.349   4.234 -0.1016  0.6322  0.3942
   60MOL    C5128489   0.079   7.325   4.359  0.0336  0.9378 -0.3604
   60MOL    C5228490   7.873   7.213   4.415  0.4026 -0.1849  0.2415
   60MOL    C5328491   0.006   7.081   4.332 -0.7455  0.2502  0.2604
   60MOL    C5428492   7.779   6.983   4.381  0.4753  0.2071 -0.3893
   60MOL    O5528493   7.813   6.858   4.323  0.4014 -0.0952 -0.1475
   60MOL    C5628494   7.771   6.829   4.192  0.0034 -0.2645 -0.6508
   60MOL    O5728495   7.688   6.893   4.133 -0.0382 -0.2493 -0.0389
   60MOL    C5828496   7.825   6.698   4.136 -0.3268 -0.0927  0.5612
   60MOL    C5928497   7.742   6.641   4.011 -0.3255 -0.0578 -0.1923
   60MOL    C6028498   7.788   6.689   3.864  0.5001  1.0902 -0.4394
   60MOL    O6128499   7.801   6.603   3.776 -0.7666 -0.3234 -0.4130
   60MOL    H6228500   0.186   7.308   4.347 -0.5082 -1.0706 -2.6976
   60MOL    H6328501   0.062   7.414   4.420 -1.5525  1.3808 -1.4277
   60MOL    H6428502   7.767   7.240   4.407  0.5467  0.4643  0.5465
   60MOL    H6528503   0.039   7.213   4.516  2.7919 -2.1299 -0.6650
   60MOL    H6628504   0.103   7.035   4.348 -0.1022  0.1930 -3.4472
   60MOL    H6728505   0.001   7.094   4.224  3.5272 -1.1946 -0.2059
   60MOL    H6828506   7.785   6.981   4.490 -0.2678  3.0134 -0.2496
   60MOL    H6928507   7.679   7.021   4.364  0.9708  1.4440 -0.6558
   60MOL    H7028508   7.815   6.623   4.214 -2.8973 -0.9686 -0.5694
   60MOL    H7128509   0.057   6.697   4.114 -0.2251  0.2001  1.0371
   60MOL    H7228510   7.771   6.537   4.023 -1.7847 -0.3732  0.6838
   60MOL    H7328511   7.634   6.649   4.016 -0.2295  0.3208  1.6314
   60MOL    O7428512   7.804   6.820   3.850 -0.0072 -0.1856 -0.1985
   60MOL    C7528513   7.850   6.876   3.735  0.2912  0.0055 -0.1443
   60MOL    C7628514   0.020   7.015   3.762  0.2402  0.4095 -0.2758
   60MOL    C7728515   0.161   7.001   3.820 -0.3118  0.2727 -0.3417
   60MOL    C7828516   0.231   7.139   3.831 -0.2210 -0.5266 -0.2433
   60MOL    O7928517   0.346   7.130   3.907  0.0128  0.0292  0.1304
   60MOL    C8028518   0.338   7.129   4.041 -0.5323  0.2649 -0.7492
   60MOL    O8128519   0.243   7.164   4.103  0.0334  0.0716 -0.3714
   60MOL    C8228520   0.476   7.110   4.102 -1.0392  0.3604 -0.4883
   60MOL    C8328521   0.457   7.067   4.252 -0.1145  0.4683  0.2443
   60MOL    C8428522   0.581   6.999   4.319 -0.0988  0.8558 -0.3349
   60MOL    O8528523   0.570   6.899   4.391  0.1213 -0.5515 -0.1799
   60MOL    H8628524   0.037   6.809   3.674  0.2651  0.0423 -0.2111
   60MOL    H8728525   7.759   6.902   3.680 -0.1538 -1.2365 -0.0186
   60MOL    H8828526   7.834   7.074   3.831  1.5052 -0.4929  1.6634
   60MOL    H8928527   0.017   7.070   3.668 -0.5156  0.4669 -0.2195
   60MOL    H9028528   0.224   6.948   3.748 -2.2252 -0.3053 -1.6390
   60MOL    H9128529   0.163   6.941   3.911 -0.8072  0.2710 -0.3289
   60MOL    H9228530   0.271   7.171   3.734 -0.9011  0.6656 -0.1459
   60MOL    H9328531   0.172   7.226   3.860  1.4506  0.1923  1.1025
   60MOL    H9428532   0.522   7.208   4.089  0.1850 -0.3987 -1.9839
   60MOL    H9528533   0.530   7.045   4.034 -0.0077 -0.5604  1.1844
   60MOL    H9628534   0.428   7.139   4.329  0.9436 -2.0142  3.0766
   60MOL    H9728535   0.375   6.996   4.259  2.0194 -1.8910  2.0826
   60MOL    O9828536   0.696   7.069   4.295  0.3009 -0.1586  0.0693
   60MOL    C9928537   0.817   7.037   4.363  0.0099 -0.0567 -0.6487
   60MOL   C10028538   0.928   7.138   4.339 -0.1871  0.1158  0.2938
   60MOL   C10128539   0.986   7.117   4.199 -0.1400 -0.0333 -0.7830
   60MOL   C10228540   1.110   7.205   4.173 -0.7199 -0.3097 -0.7622
   60MOL   O10328541   1.210   7.183   4.269  0.0531  0.2722 -0.0468
   60MOL   C10428542   1.252   7.290   4.342  0.7250  0.2497  0.6753
   60MOL   O10528543   1.205   7.403   4.343 -0.1644 -0.3425  0.1457
   60MOL   C10628544   1.360   7.246   4.440 -0.7253 -0.2011 -0.5866
   60MOL   C10728545   1.488   7.212   4.367 -0.9153  0.2075  0.0200
   60MOL   C10828546   1.610   7.251   4.450 -0.7403 -0.2073 -0.2671
   60MOL   O10928547   1.597   7.272   4.573  0.2261 -0.3077  0.2152
   60MOL   H11028548   0.806   7.040   4.471 -0.0166 -0.7581 -0.6274
   60MOL   H11128549   0.837   6.935   4.330  1.0824 -0.2572  0.5836
   60MOL   H11228550   1.007   7.118   4.411  0.5573 -0.2160 -0.6029
   60MOL   H11328551   0.892   7.235   4.374 -0.3868 -0.3660  1.4444
   60MOL   H11428552   0.917   7.147   4.120  0.9611 -0.2704 -1.8604
   60MOL   H11528553   1.008   7.011   4.185 -0.2400 -0.1943  0.2694
   60MOL   H11628554   1.145   7.199   4.070 -0.1838 -0.1252 -0.5935
   60MOL   H11728555   1.071   7.307   4.182 -1.0060 -0.5454  0.6633
   60MOL   H11828556   1.327   7.171   4.512  1.4781  1.1967  1.9710
   60MOL   H11928557   1.377   7.337   4.498 -1.5628 -0.2973 -0.1821
   60MOL   H12028558   1.483   7.108   4.334 -1.4256 -0.2290  1.3807
   60MOL   H12128559   1.491   7.260   4.270 -0.0313 -0.1145 -0.1084
   60MOL   O12228560   1.729   7.256   4.382 -0.1983  0.7472 -0.3418
   60MOL   C12328561   1.851   7.266   4.455 -0.4260  0.0310  0.6624
   60MOL   C12428562   1.943   7.146   4.424 -0.3193  0.3863  0.3230
   60MOL   C12528563   2.015   7.167   4.290 -0.9708  0.1431 -0.0268
   60MOL   C12628564   2.124   7.067   4.248  0.4685  0.1272  0.1850
   60MOL   O12728565   2.146   7.104   4.117 -0.6161  0.7134  0.4080
   60MOL   C12828566   2.241   7.195   4.084 -0.5708 -1.0470 -0.1255
   60MOL   O12928567   2.300   7.269   4.167  0.2580  0.0275  0.4301
   60MOL   C13028568   2.273   7.202   3.937 -0.2330 -0.3434  0.2061
   60MOL   C13128569   2.382   7.306   3.891 -0.1491  0.0790  0.2760
   60MOL   C13228570   2.503   7.213   3.860 -0.0081  0.4072 -0.3748
   60MOL   O13328571   2.501   7.134   3.766 -0.6420 -0.8130 -0.8409
   60MOL   H13428572   1.907   7.358   4.434  2.4535 -1.7795  0.0350
   60MOL   H13528573   1.828   7.254   4.561 -2.6038  1.6653  0.4085
   60MOL   H13628574   1.893   7.053   4.452 -0.9026 -0.1268 -2.3023
   60MOL   H13728575   2.026   7.152   4.495  0.4255 -0.4802 -0.4597
   60MOL   H13828576   2.052   7.269   4.292 -1.2523  0.2379  0.9455
   60MOL   H13928577   1.935   7.163   4.217 -0.7062  0.1964 -0.3195
   60MOL   H14028578   2.215   7.084   4.306 -0.1046  0.7196  0.9219
   60MOL   H14128579   2.089   6.965   4.263  0.0021  0.1521 -0.7024
   60MOL   H14228580   2.183   7.240   3.887  1.1554  2.6816 -0.1064
   60MOL   H14328581   2.287   7.107   3.885 -0.2224 -0.9921  1.3776
   60MOL   H14428582   2.361   7.358   3.798  2.7243 -0.4512 -0.6904
   60MOL   H14528583   2.404   7.373   3.974 -0.4585  1.4899 -0.7600
   60MOL   O14628584   2.602   7.227   3.950 -0.5711  0.5432 -0.1978
   60MOL   C14728585   2.715   7.137   3.940 -0.2839  0.9114 -0.6883
   60MOL   C14828586   2.816   7.142   4.055  0.2338  0.5042 -0.2914
   60MOL   C14928587   2.937   7.048   4.031 -0.2470  0.0890 -0.7025
   60MOL   C15028588   3.040   7.063   4.148 -0.2062 -0.1992 -0.2995
   60MOL   O15128589   2.977   7.025   4.266  0.7329 -0.2618 -0.3189
   60MOL   C15228590   3.047   7.041   4.384  0.1457 -0.2487 -0.2042
   60MOL   O15328591   3.167   7.065   4.399  0.0012 -0.3189 -0.2681
   60MOL   C15428592   2.965   6.996   4.511  0.2780 -0.4386  0.0511
   60MOL   C15528593   2.949   6.844   4.518  0.0335 -0.5129  0.2694
   60MOL   C15628594   3.068   6.783   4.587  0.2470 -0.1080  0.6410
   60MOL   O15728595   3.129   6.850   4.669  0.0123  0.1538 -0.3560
   60MOL   H15828596   2.684   7.033   3.928 -0.5503  0.9458 -0.3052
   60MOL   H15928597   2.760   7.165   3.844  0.5837  2.1256  0.0635
   60MOL   H16028598   2.759   7.123   4.146 -3.3852  0.0416 -2.5141
   60MOL   H16128599   2.854   7.243   4.069  0.5861  0.0340  2.3896
   60MOL   H16228600   2.981   7.076   3.936  2.4558 -0.4908  0.3364
   60MOL   H16328601   2.898   6.946   4.035  0.1637 -0.0217  0.8402
   60MOL   H16428602   3.113   6.984   4.130  0.5633  0.1691  1.1917
   60MOL   H16528603   3.085   7.161   4.136  1.5900 -0.8443  1.0076
   60MOL   H16628604   2.867   7.042   4.500 -0.0405 -0.6646  1.8246
   60MOL   H16728605   2.987   7.044   4.606 -0.2717  1.5299 -0.7805
   60MOL   H16828606   2.858   6.822   4.574  0.6730 -2.4809  0.5931
   60MOL   H16928607   2.939   6.795   4.421 -1.3975  2.2350 -1.0300
   60MOL   O17028608   3.086   6.653   4.556 -0.5164 -0.3742 -0.7038
   60MOL   C17128609   3.176   6.571   4.626  0.5855  0.1749  0.5687
   60MOL   C17228610   3.118   6.429   4.614 -0.0939  0.2658 -0.0484
   60MOL   C17328611   3.203   6.327   4.699 -0.3277 -0.0168 -0.1854
   60MOL   C17428612   3.139   6.193   4.699 -0.3017  0.1628 -0.4130
   60MOL   O17528613   3.202   6.104   4.792  0.0684 -0.3066 -0.3285
   60MOL   C17628614   3.312   6.040   4.769 -0.3736 -0.9315 -0.1912
   60MOL   O17728615   3.383   6.063   4.668 -0.0447  0.2380  0.0863
   60MOL   C17828616   3.352   5.944   4.881 -0.0862 -0.0206 -0.1033
   60MOL   C17928617   3.275   5.808   4.873  0.1382  0.3046  0.1810
   60MOL   C18028618   3.164   5.799   4.976 -0.6569  0.0169 -1.0968
   60MOL   O18128619   3.172   5.740   5.086  0.2547 -0.1639 -0.0619
   60MOL   H18228620   3.280   6.579   4.594  0.5156 -2.0967 -0.2888
   60MOL   H18328621   3.182   6.598   4.732  0.1088  1.3133  0.3154
   60MOL   H18428622   3.113   6.390   4.513  0.6824  1.0085 -0.3840
   60MOL   H18528623   3.014   6.430   4.649  0.7254 -0.6858  2.5429
   60MOL   H18628624   3.219   6.361   4.801  0.7220  1.1964 -0.7342
   60MOL   H18728625   3.302   6.321   4.653 -0.4549 -0.7046 -0.3727
   60MOL   H18828626   3.036   6.209   4.729  0.2025  3.0423 -0.1213
   60MOL   H18928627   3.136   6.145   4.601  0.2612  0.9807 -0.8339
   60MOL   H19028628   3.334   5.986   4.980  1.2898  1.2406 -0.3770
   60MOL   H19128629   3.461   5.937   4.889  0.0894  1.5932 -1.0426
   60MOL   H19228630   3.231   5.777   4.778 -0.5012 -2.1726  1.2593
   60MOL   H19328631   3.343   5.728   4.901  2.0178  1.9268  0.3523
   60MOL   O19428632   3.050   5.861   4.937  0.1680  0.0209  0.0579
   60MOL   C19528633   2.932   5.868   5.019  0.2083  0.4386  0.2054
   60MOL   C19628634   2.821   5.940   4.947 -0.0911 -0.2990 -0.8839
   60MOL   C19728635   2.786   5.894   4.808  0.0708  0.2869  0.0384
   60MOL   C19828636   2.822   5.990   4.695  0.0782  1.1374  0.0901
   60MOL   O19928637   2.733   6.103   4.704 -0.3168 -0.3599 -0.3495
   60MOL   C20028638   2.765   6.207   4.624 -0.2258  0.7333  1.2130
   60MOL   O20128639   2.853   6.206   4.534  0.2164 -0.2104 -0.3896
   60MOL   C20228640   2.667   6.325   4.626 -1.3679 -0.2821  0.2296
   60MOL   C20328641   2.731   6.467   4.676  0.2685  0.1715  0.0882
   60MOL   C20428642   2.632   6.580   4.697 -0.3128 -0.2577 -0.2041
   60MOL   O20528643   2.653   6.696   4.666  0.1254 -0.2737 -0.0278
   60MOL   H20628644   2.897   5.771   5.055 -0.9208  1.3139  1.4842
   60MOL   H20728645   2.958   5.924   5.108  0.9510  1.3534 -0.5715
   60MOL   H20828646   2.834   6.048   4.952 -2.6687 -0.0612  2.5456
   60MOL   H20928647   2.744   5.918   5.021 -0.8950 -0.4484 -1.7564
   60MOL   H21028648   2.681   5.866   4.797  0.4724 -1.4338  0.4001
   60MOL   H21128649   2.827   5.797   4.779 -0.8524 -0.1272  0.0982
   60MOL   H21228650   2.928   6.008   4.712  0.6322 -3.3031  2.0216
   60MOL   H21328651   2.819   5.947   4.595  0.2612  0.3126  0.4349
   60MOL   H21428652   2.587   6.303   4.697 -0.1249  0.3566  1.8822
   60MOL   H21528653   2.622   6.328   4.527 -1.9529  1.3177  0.5334
   60MOL   H21628654   2.764   6.445   4.778 -1.9997 -2.5093  0.3168
   60MOL   H21728655   2.815   6.499   4.614  0.4549  0.5307  0.5258
   60MOL   O21828656   2.527   6.536   4.758  0.4717 -0.2148  0.1873
   60MOL   C21928657   2.421   6.615   4.808 -0.3361  0.2715  0.2804
   60MOL   C22028658   2.278   6.581   4.780 -0.3894 -0.5005 -0.8697
   60MOL   C22128659   2.216   6.491   4.892 -0.8027  0.4940 -0.4762
   60MOL   C22228660   2.075   6.430   4.855 -0.6624 -0.0462 -0.5761
   60MOL   O22328661   2.023   6.345   4.953 -0.2784 -0.0505 -0.1623
   60MOL   C22428662   1.940   6.383   5.049 -0.6149 -0.1473  0.0907
   60MOL   O22528663   1.883   6.492   5.052  0.5949 -0.3700  0.5153
   60MOL   C22628664   1.930   6.282   5.163  0.1591 -0.4191  0.5044
   60MOL   C22728665   1.829   6.329   5.270  0.0775  0.1654 -0.0671
   60MOL   C22828666   1.726   6.225   5.319 -0.2338 -0.5594 -0.1394
   60MOL   O22928667   1.759   6.104   5.331  0.0377 -0.1490 -0.0005
   60MOL   H23028668   2.433   6.603   4.916  1.7844 -1.2568 -0.1035
   60MOL   H23128669   2.443   6.718   4.779 -0.1985  0.3910  0.8062
   60MOL   H23228670   2.284   6.514   4.694 -1.7346 -2.7570  0.7154
   60MOL   H23328671   2.217   6.667   4.753  1.5733  1.0391 -0.5443
   60MOL   H23428672   2.210   6.538   4.990 -1.5163  0.8419 -0.6849
   60MOL   H23528673   2.293   6.414   4.898  0.5972  1.9172  0.1136
   60MOL   H23628674   2.007   6.514   4.841 -1.4037 -0.7206 -1.1262
   60MOL   H23728675   2.081   6.371   4.764  1.0866 -0.2718 -0.3344
   60MOL   H23828676   2.029   6.275   5.210  0.0276 -2.1898  0.5506
   60MOL   H23928677   1.899   6.185   5.123  0.5006  0.2767 -1.5064
   60MOL   H24028678   1.896   6.331   5.356  0.6834  2.7375 -0.5594
   60MOL   H24128679   1.786   6.426   5.245 -0.8394 -0.3323 -0.4667
   60MOL   O24228680   1.607   6.275   5.337 -0.1018 -0.0491 -0.2114
   60MOL   C24328681   1.504   6.206   5.413 -0.3484 -0.1535  0.6890
   60MOL   C24428682   1.366   6.246   5.354 -0.1784 -0.4906 -0.3972
   60MOL   C24528683   1.245   6.202   5.438 -0.6023 -0.9170  0.3021
   60MOL   C24628684   1.108   6.241   5.385  1.0181 -0.1148  0.8487
   60MOL   O24728685   1.099   6.386   5.390  0.1270 -0.1094 -0.0894
   60MOL   C24828686   0.984   6.443   5.365 -0.0087  0.1212 -0.0767
   60MOL   O24928687   0.874   6.385   5.367  0.5872  0.3778  0.3390
   60MOL   C25028688   0.988   6.593   5.338 -0.9615 -0.1994  0.1048
   60MOL   C25128689   0.864   6.644   5.266  0.8208 -0.6951  0.1210
   60MOL   C25228690   0.868   6.792   5.214 -0.5032  0.0426  0.3588
   60MOL   O25328691   0.824   6.818   5.102 -0.7322 -0.0402  0.3591
   60MOL   H25428692   1.516   6.098   5.408  0.7341  0.0161 -1.3237
   60MOL   H25528693   1.513   6.232   5.518 -1.8383 -1.1340  1.0706
   60MOL   H25628694   1.350   6.211   5.253  1.5367  2.1231 -1.6301
   60MOL   H25728695   1.371   6.355   5.344  1.6666 -0.5417 -0.2174
   60MOL   H25828696   1.249   6.242   5.540 -0.5903 -2.3743  0.8764
   60MOL   H25928697   1.264   6.096   5.452 -0.5292 -0.5312  3.7649
   60MOL   H26028698   1.118   6.208   5.282  0.4567 -1.0706  1.1026
   60MOL   H26128699   1.036   6.187   5.446 -1.4304  1.5780 -0.4721
   60MOL   H26228700   1.074   6.609   5.273 -1.4293  0.9542 -0.2256
   60MOL   H26328701   1.003   6.656   5.426 -3.7952  1.3962 -0.5082
   60MOL   H26428702   0.850   6.581   5.178  0.0625 -0.4007  0.0214
   60MOL   H26528703   0.782   6.624   5.336 -1.0538  1.6206 -1.3252
   60MOL   O26628704   0.920   6.880   5.308  0.1830  0.4275 -0.2321
   60MOL   C26728705   0.921   7.021   5.284 -0.3600 -0.6323 -0.1627
   60MOL   C26828706   1.046   7.065   5.204  0.3232 -0.5490  0.2529
   60MOL   C26928707   1.183   7.009   5.258 -0.1045 -0.3135  0.1044
   60MOL   C27028708   1.292   7.012   5.155  0.4032  0.0530 -0.2691
   60MOL   O27128709   1.309   7.132   5.090 -0.3396 -0.1604 -0.3665
   60MOL   C27228710   1.388   7.226   5.144 -0.5038 -0.1812 -0.5710
   60MOL   O27328711   1.430   7.217   5.262  0.5181  0.4334 -0.3217
   60MOL   C27428712   1.430   7.349   5.051 -0.6402  0.5184 -0.1747
   60MOL   C27528713   1.317   7.439   5.011 -0.0060  0.2920  0.8354
   60MOL   C27628714   1.278   7.443   4.861  0.6246 -0.0622  0.3399
   60MOL   O27728715   1.269   7.343   4.787 -0.0661 -0.7864  0.1515
   60MOL   H27828716   0.825   7.055   5.247  0.4759  1.4574 -0.4990
   60MOL   H27928717   0.935   7.066   5.383  1.4197  1.9409 -1.5245
   60MOL   H28028718   1.050   7.173   5.193  2.3666 -0.7541 -1.4572
   60MOL   H28128719   1.035   7.008   5.112 -0.9354  0.9066 -0.5078
   60MOL   H28228720   1.156   6.911   5.296 -0.7070 -0.0970  0.2563
   60MOL   H28328721   1.217   7.056   5.350  1.9675 -0.5456 -0.5253
   60MOL   H28428722   1.389   6.982   5.195 -0.1932  0.4848  1.5324
   60MOL   H28528723   1.270   6.939   5.077  0.9905 -0.3891 -0.0199
   60MOL   H28628724   1.472   7.304   4.961 -2.2181 -1.2786 -0.0323
   60MOL   H28728725   1.510   7.398   5.108 -0.6493 -2.0141  2.1309
   60MOL   H28828726   1.226   7.399   5.056 -0.7240 -1.4978 -2.1061
   60MOL   H28928727   1.329   7.539   5.052 -0.9165  0.1242  1.5306
   60MOL   O29028728   1.236   7.564   4.824  0.0625  0.8439 -0.1047
   60MOL   C29128729   1.192   7.599   4.696  0.0557  0.1083 -0.1915
   60MOL   C29228730   1.279   7.713   4.648 -0.0271 -0.0999 -0.0358
   60MOL   C29328731   1.249   7.745   4.506  0.1122  0.7037 -0.1761
   60MOL   C29428732   1.328   7.866   4.455  0.3251 -0.1942 -0.7880
   60MOL   O29528733   1.294   0.003   4.318 -0.3753 -0.8002 -0.1963
   60MOL   C29628734   1.375   0.076   4.231  0.5451  0.4362 -0.0003
   60MOL   O29728735   1.472   0.148   4.266 -0.6765 -0.4133 -0.3551
   60MOL   C29828736   1.332   0.068   4.085  0.4514  0.0821 -0.4144
   60MOL   C29928737   1.248   0.187   4.041 -0.4267 -0.7346 -0.1718
   60MOL   C30028738   1.155   0.156   3.920  0.5880 -0.1101 -0.3958
   60MOL   O30128739   1.029   0.150   3.935 -0.3269 -0.5505 -0.4622
   60MOL   H30228740   1.200   7.519   4.623 -1.6374 -0.2371 -0.0299
   60MOL   H30328741   1.084   7.613   4.701 -0.0047 -0.2021 -0.6128
   60MOL   H30428742   1.382   7.684   4.667 -0.0616 -0.5703 -0.5703
   60MOL   H30528743   1.259   7.810   4.694 -1.3512 -0.0116 -0.7735
   60MOL   H30628744   1.147   7.782   4.506 -0.3551 -0.5502  0.7483
   60MOL   H30728745   1.265   7.664   4.434 -0.6138 -0.2309  0.7129
   60MOL   H30828746   1.298   0.080   4.511  1.3884 -0.7460  0.6809
   60MOL   H30928747   1.435   7.858   4.470 -0.0299 -2.7101  0.5816
   60MOL   H31028748   1.281   7.849   4.063 -1.0193  0.7098  0.2665
   60MOL   H31128749   1.420   0.059   4.022  0.2392 -2.4337 -0.4173
   60MOL   H31228750   1.193   0.225   4.127  0.7418 -1.2474  0.8186
   60MOL   H31328751   1.319   0.262   4.007 -1.2974  0.6466  1.0020
   60MOL   O31428752   1.229   0.140   3.808  0.2147 -0.1707 -0.0985
   60MOL   C31528753   1.156   0.107   3.694  0.3268 -0.1552  0.3254
   60MOL   C31628754   1.225   0.006   3.615 -0.3300 -0.3795  1.3520
   60MOL   C31728755   1.209   7.739   3.664 -0.4980  0.0258  0.7370
   60MOL   C31828756   1.319   7.653   3.613 -0.6887  0.4659 -0.2697
   60MOL   O31928757   1.297   7.611   3.480 -0.5980 -0.6469  0.4771
   60MOL   C32028758   1.346   7.489   3.445  0.7442  0.3409  0.3400
   60MOL   O32128759   1.432   7.426   3.509 -0.1868  0.2649  0.3911
   60MOL   C32228760   1.290   7.443   3.307 -0.2291  0.5545  0.0878
   60MOL   C32328761   1.385   7.361   3.218  0.2398 -0.3238 -0.6833
   60MOL   C32428762   1.447   7.440   3.099 -0.3457 -0.2595  0.6444
   60MOL   O32528763   1.517   7.541   3.114 -0.4104  0.3364  0.1563
   60MOL   H32628764   1.058   0.060   3.703  0.9534 -2.1475 -2.2631
   60MOL   H32728765   1.137   0.200   3.641  0.8418 -1.0046 -1.4004
   60MOL   H32828766   1.330   0.034   3.616 -0.2915 -0.4853  0.3317
   60MOL   H32928767   1.207   0.020   3.509  0.0395  1.1118  1.4747
   60MOL   H33028768   1.107   7.704   3.647 -0.1102 -0.4213 -0.6909
   60MOL   H33128769   1.227   7.734   3.771  0.3554  0.2401  0.6021
   60MOL   H33228770   1.419   7.696   3.623 -1.2198  1.9925 -1.3977
   60MOL   H33328771   1.320   7.562   3.673 -0.9051  1.6475  1.5749
   60MOL   H33428772   1.245   7.515   3.240 -1.2838 -0.4984 -0.3503
   60MOL   H33528773   1.212   7.375   3.341  1.5399 -0.0722  3.0926
   60MOL   H33628774   1.471   7.334   3.279  1.0664  0.8245 -1.3312
   60MOL   H33728775   1.340   7.265   3.192 -1.2964 -0.6765  3.0435
   60MOL   O33828776   1.406   7.399   2.983  0.4721  0.7883 -0.3993
   60MOL   C33928777   1.468   7.443   2.861  0.9838  0.3897 -0.4300
   60MOL   C34028778   1.454   7.347   2.745 -0.5873  0.2138  0.0245
   60MOL   C34128779   1.518   7.209   2.774  0.0182 -0.8925 -0.8482
   60MOL   C34228780   1.491   7.099   2.672  0.5747 -0.3415  0.1763
   60MOL   O34328781   1.345   7.079   2.676 -0.3010  0.0736 -0.4739
   60MOL   C34428782   1.294   6.979   2.745 -0.1631 -0.4121 -0.3183
   60MOL   O34528783   1.368   6.916   2.821  0.4446 -0.5357 -0.1326
   60MOL   C34628784   1.142   6.956   2.748 -0.1972 -0.9025 -0.4784
   60MOL   C34728785   1.070   7.086   2.780  0.4358  0.0819  0.5288
   60MOL   C34828786   1.050   7.100   2.933  0.3579 -0.5239  0.4037
   60MOL   O34928787   1.140   7.138   3.012  0.4162  0.1105  0.4475
   60MOL   H35028788   1.413   7.535   2.839  0.0802  0.0181  0.2380
   60MOL   H35128789   1.573   7.468   2.878  0.9608 -0.1195  0.4514
   60MOL   H35228790   1.498   7.400   2.661  2.1577 -0.0610  1.2133
   60MOL   H35328791   1.352   7.323   2.716 -1.1638  1.6960  0.7450
   60MOL   H35428792   1.493   7.187   2.878  0.9516  1.0824 -0.1884
   60MOL   H35528793   1.624   7.229   2.781  0.0585 -1.7224  1.0503
   60MOL   H35628794   1.512   7.143   2.574 -0.9389  1.2649  0.5475
   60MOL   H35728795   1.548   7.007   2.679  0.4658 -0.3423  1.1072
   60MOL   H35828796   1.119   6.883   2.825  0.5373  0.8961  1.4813
   60MOL   H35928797   1.112   6.927   2.647 -1.6696 -0.9236 -0.0456
   60MOL   H36028798   1.128   7.176   2.761 -0.6049  1.2744  2.8581
   60MOL   H36128799   0.971   7.097   2.736  2.2159  2.2748 -3.1064
   60MOL   O36228800   0.929   7.055   2.968 -0.5046  0.6853  0.0383
   60MOL   C36328801   0.886   7.054   3.100 -0.3468 -0.3996  1.0565
   60MOL   C36428802   0.736   7.038   3.110  0.1241 -0.4108  0.1830
   60MOL   C36528803   0.650   7.164   3.121 -0.0890 -0.0435  0.8214
   60MOL   C36628804   0.659   7.233   2.985  0.0795 -0.1302 -0.0098
   60MOL   O36728805   0.546   7.323   2.994 -0.1394 -0.1749  0.5694
   60MOL   C36828806   0.530   7.424   2.903  0.1103 -0.4444 -0.2859
   60MOL   O36928807   0.597   7.450   2.806  0.0814 -0.7869 -0.0299
   60MOL   C37028808   0.405   7.509   2.932  0.1661 -0.8126  0.2459
   60MOL   C37128809   0.287   7.461   2.853  0.2839 -0.2137  0.4334
   60MOL   C37228810   0.184   7.567   2.814 -0.1420 -0.6033 -0.7413
   60MOL   O37328811   0.219   7.680   2.776  0.3651 -0.1793  0.4131
   60MOL   H37428812   0.936   6.981   3.164 -0.9817 -2.0926 -0.3537
   60MOL   H37528813   0.918   7.146   3.149 -1.3007  1.0366 -0.9283
   60MOL   H37628814   0.713   6.977   3.198  0.9067 -1.0772 -0.0637
   60MOL   H37728815   0.699   6.987   3.022 -1.9068  0.2940  0.6040
   60MOL   H37828816   0.682   7.227   3.205 -0.2057 -0.5963  1.2771
   60MOL   H37928817   0.546   7.137   3.138 -0.2430 -0.6697 -0.9792
   60MOL   H38028818   0.754   7.286   2.981  0.4338 -0.6880  0.8157
   60MOL   H38128819   0.649   7.170   2.897  2.0775  0.0134 -0.3781
   60MOL   H38228820   0.421   7.616   2.913 -1.1395  0.2292  4.3903
   60MOL   H38328821   0.377   7.508   3.037  1.5119 -1.5247  0.6105
   60MOL   H38428822   0.323   7.408   2.765  1.6278 -1.2967  1.6060
   60MOL   H38528823   0.249   7.377   2.911 -0.7852  0.0493  0.1232
   60MOL   O38628824   0.060   7.532   2.840  0.0461  0.7410  0.3568
   60MOL   C38728825   7.823   7.624   2.822  1.2471 -0.8647 -0.1710
   60MOL   C38828826   7.690   7.550   2.841 -0.2818 -0.0837 -0.3159
   60MOL   C38928827   7.661   7.515   2.985 -0.4582  0.2178 -0.3068
   60MOL   C39028828   7.567   7.402   3.000  0.0610 -0.3953 -0.4755
   60MOL   O39128829   7.528   7.393   3.134  0.1052 -0.0103 -0.1202
   60MOL   C39228830   7.425   7.322   3.173 -0.1359 -0.0477  0.1984
   60MOL   O39328831   7.378   7.233   3.100 -0.0099  0.5469 -0.4495
   60MOL   C39428832   7.373   7.355   3.313  0.6015 -0.0671 -0.3453
   60MOL   C39528833   7.294   7.485   3.312  0.7797 -0.2254  0.5932
   60MOL   C39628834   7.194   7.504   3.429 -0.0393  0.0081  0.6182
   60MOL   O39728835   7.183   7.431   3.525  0.4425  0.3890 -0.1938
   60MOL   H39828836   7.830   7.717   2.877 -0.4063  0.1598 -1.6438
   60MOL   H39928837   7.819   7.658   2.719  0.6443 -2.8572 -0.8382
   60MOL   H40028838   7.687   7.456   2.787 -1.9749 -1.1573  1.5613
   60MOL   H40128839   7.599   7.602   2.812 -0.2053  0.7802  0.9438
   60MOL   H40228840   7.611   7.591   3.045  0.4023  0.4154  0.1691
   60MOL   H40328841   7.755   7.490   3.035  1.0642  0.4440 -2.9658
   60MOL   H40428842   7.483   7.424   2.934  0.1220  0.0466 -0.4054
   60MOL   H40528843   7.621   7.312   2.970 -0.5260 -0.5783 -1.0054
   60MOL   H40628844   7.465   7.360   3.371  1.5611 -2.1714 -1.5963
   60MOL   H40728845   7.310   7.272   3.346  0.4734 -0.6643 -2.0364
   60MOL   H40828846   7.374   7.559   3.324  2.1215 -1.2051 -1.9122
   60MOL   H40928847   7.266   7.504   3.209  1.6198 -0.9178  0.2293
   60MOL   O41028848   7.130   7.622   3.413  0.4576 -0.3594  0.3272
   60MOL   C41128849   7.056   7.672   3.523 -0.7837  0.6876 -1.1262
   60MOL   C41228850   7.041   7.820   3.516  0.2686  0.1595 -0.1198
   60MOL   C41328851   6.969   0.005   3.643  0.3435 -0.2706 -0.2749
   60MOL   C41428852   6.903   0.146   3.617  1.2230  0.1989 -0.4312
   60MOL   O41528853   6.780   0.125   3.551  0.5376 -0.0567  0.5652
   60MOL   C41628854   6.761   0.196   3.441  0.5905  0.4320  0.8693
   60MOL   O41728855   6.821   0.293   3.405 -0.1199  0.5944  0.0687
   60MOL   C41828856   6.650   0.133   3.351  0.0910 -0.2282  0.1093
   60MOL   C41928857   6.615   0.218   3.226  0.3711  0.1342 -0.0355
   60MOL   C42028858   6.632   0.110   3.114  0.2707 -0.1955  0.5588
   60MOL   O42128859   6.542   0.038   3.076  0.0649  0.6454 -0.0058
   60MOL   H42228860   6.955   7.630   3.523 -0.8778  0.9082 -0.7195
   60MOL   H42328861   7.112   7.639   3.611 -0.4150 -0.5420 -1.8077
   60MOL   H42428862   6.980   7.839   3.429  1.6366  0.8248 -0.9482
   60MOL   H42528863   7.134   0.002   3.512 -0.7096  1.7468 -0.4951
   60MOL   H42628864   7.046   0.013   3.719  0.1944 -1.8808  0.0536
   60MOL   H42728865   6.893   7.817   3.689 -0.0194  0.5043  0.2027
   60MOL   H42828866   6.906   0.207   3.707  2.6504 -1.1308  0.4335
   60MOL   H42928867   6.968   0.211   3.559  0.3994 -1.2060 -3.0087
   60MOL   H43028868   6.559   0.129   3.412 -1.0092  0.6451 -1.4330
   60MOL   H43128869   6.665   0.028   3.329  1.2949  0.1793 -1.0606
   60MOL   H43228870   6.523   0.275   3.238  1.5191  1.8664  0.8371
   60MOL   H43328871   6.682   0.302   3.206 -0.6865  1.3782  1.5041
   60MOL   O43428872   6.747   0.122   3.054 -0.3269 -0.8112 -0.2057
   60MOL   C43528873   6.782   0.049   2.944 -0.5195  0.5803  0.1507
   60MOL   C43628874   6.865   7.806   3.001  0.8133  0.4641 -0.3929
   60MOL   C43728875   7.006   7.841   3.041 -0.1165 -0.5757 -0.1524
   60MOL   C43828876   7.082   7.723   3.113  0.1107 -0.9974  0.3111
   60MOL   O43928877   7.074   7.605   3.035  0.3430  0.6642  0.6345
   60MOL   C44028878   7.173   7.584   2.946  0.0315 -0.0396 -0.5311
   60MOL   O44128879   7.274   7.652   2.931  0.5606 -0.3669  0.3121
   60MOL   C44228880   7.148   7.464   2.861 -0.0132 -0.3672  0.4267
   60MOL   C44328881   7.080   7.344   2.926 -0.1452 -0.0010  0.0939
   60MOL   C44428882   6.945   7.303   2.873  0.2890  0.1028  0.5164
   60MOL   O44528883   6.902   7.365   2.773  0.5254  0.4413 -0.3944
   60MOL   H44628884   6.693   0.003   2.899 -2.5039  2.3205  2.1508
   60MOL   H44728885   6.834   0.111   2.872 -0.3398  0.2155 -0.0339
   60MOL   H44828886   6.859   7.724   2.929 -0.7393  0.4096 -0.2130
   60MOL   H44928887   6.814   7.757   3.084 -0.8820 -2.0342 -2.8157
   60MOL   H45028888   7.002   0.055   3.103 -0.1207  0.1570 -1.1770
   60MOL   H45128889   7.065   7.873   2.954  1.9558  0.3356  1.5503
   60MOL   H45228890   7.185   7.746   3.139 -0.6172  0.7543  1.7579
   60MOL   H45328891   7.033   7.704   3.208  0.8810  0.7509  1.0804
   60MOL   H45428892   7.253   7.443   2.839 -0.0094  0.1550 -0.0800
   60MOL   H45528893   7.101   7.502   2.770  1.7282  0.4085 -0.1788
   60MOL   H45628894   7.139   7.254   2.911 -1.1902 -0.4932 -1.1090
   60MOL   H45728895   7.079   7.364   3.033  0.6172  1.0554 -0.0927
   60MOL   O45828896   6.888   7.196   2.928  0.1464  0.2191  0.0689
   60MOL   C45928897   6.770   7.143   2.867 -0.0695  0.7774 -0.1620
   60MOL   C46028898   6.708   7.047   2.976  0.9678  0.1093 -0.1178
   60MOL   C46128899   6.574   6.993   2.930  0.4367  0.2637 -0.1222
   60MOL   C46228900   6.509   6.910   3.043 -0.3346  0.4100  0.2112
   60MOL   O46328901   6.414   6.976   3.121 -0.0483  0.5574  0.1019
   60MOL   C46428902   6.440   7.064   3.214  1.0781 -0.6022  0.0113
   60MOL   O46528903   6.552   7.082   3.266 -0.5145 -0.2002  0.3206
   60MOL   C46628904   6.320   7.150   3.254 -0.3841 -0.4610  0.2239
   60MOL   C46728905   6.354   7.297   3.256 -0.4331  0.1042  0.3086
   60MOL   C46828906   6.232   7.386   3.263 -0.3596  0.2026 -0.0515
   60MOL   O46928907   6.120   7.335   3.281 -0.3629  0.2021 -0.0029
   60MOL   H47028908   6.701   7.221   2.836  1.1301  2.5724  1.5115
   60MOL   H47128909   6.803   7.086   2.781 -0.1355 -0.2732  0.4963
   60MOL   H47228910   6.693   7.104   3.067 -2.2821  0.4470 -0.8164
   60MOL   H47328911   6.774   6.965   3.004  1.4152  0.1536 -1.0065
   60MOL   H47428912   6.596   6.925   2.847  1.0909 -2.9254  2.5853
   60MOL   H47528913   6.507   7.069   2.891  0.6849 -0.2557 -1.6267
   60MOL   H47628914   6.446   6.837   2.992  0.3521 -1.7156  2.3240
   60MOL   H47728915   6.589   6.856   3.094 -1.3766 -0.4159  0.9914
   60MOL   H47828916   6.294   7.115   3.354  0.4282 -1.0056  0.2488
   60MOL   H47928917   6.248   7.123   3.177  0.1390 -2.3270  0.3582
   60MOL   H48028918   6.428   7.331   3.328 -0.7625  2.9520 -0.6195
   60MOL   H48128919   6.411   7.327   3.168 -0.2771 -0.6651  0.1420
   60MOL   H48228920   6.258   7.490   3.239  0.4723  0.3401  1.3981
   61MOL     O128921   2.543   3.823   5.362 -0.5445  0.2865  0.1409
   61MOL     C228922   2.540   3.738   5.472 -0.0747  0.6557  0.8276
   61MOL     C328923   2.488   3.593   5.446 -0.5472 -0.2152  0.4449
   61MOL     C428924   2.334   3.585   5.447 -0.4424  0.5344  0.1925
   61MOL     C528925   2.277   3.442   5.457 -0.4798 -0.4395  0.1437
   61MOL     O628926   2.280   3.386   5.587 -0.1086 -0.0449 -0.4423
   61MOL     C728927   2.172   3.383   5.670  0.0405  0.2037 -0.7579
   61MOL     O828928   2.056   3.420   5.645  0.5099  0.0075 -0.4457
   61MOL     C928929   2.221   3.317   5.802  0.6076  0.7582  0.5294
   61MOL    C1028930   2.159   3.398   5.922  0.3041  0.2672  0.6143
   61MOL    C1128931   2.112   3.307   6.032  0.0052 -0.1305  0.6106
   61MOL    O1228932   1.998   3.263   6.036 -0.4821 -0.0373 -0.3292
   61MOL    H1328933   2.647   3.739   5.492  0.2338 -0.0020 -0.7233
   61MOL    H1428934   2.488   3.784   5.556 -0.7944 -2.3736  2.1508
   61MOL    H1528935   2.520   3.535   5.532 -0.5008 -0.9162 -0.0378
   61MOL    H1628936   2.533   3.572   5.348 -1.7949 -0.2342 -0.1317
   61MOL    H1728937   2.289   3.618   5.353  0.5146  0.8965 -0.1424
   61MOL    H1828938   2.310   3.648   5.532 -0.6704  0.7184 -0.0064
   61MOL    H1928939   2.171   3.449   5.433 -0.4181  0.4467  0.1238
   61MOL    H2028940   2.312   3.372   5.381 -0.2444 -0.8417  0.6191
   61MOL    H2128941   2.329   3.323   5.808  0.4511  1.8184  2.6911
   61MOL    H2228942   2.185   3.214   5.795 -0.3120  1.1540 -1.0919
   61MOL    H2328943   2.237   3.467   5.954 -0.5419  1.9917 -0.9344
   61MOL    H2428944   2.074   3.463   5.901  1.1691  1.0827 -0.4473
   61MOL    H2528945   2.478   3.891   5.369 -0.1778  0.5981  0.5483
   61MOL    O2628946   2.212   3.282   6.117  0.1128  0.6267  0.6565
   61MOL    C2728947   2.192   3.183   6.218  0.0691 -0.3000 -0.1441
   61MOL    C2828948   2.211   3.041   6.165  0.5677 -0.2261 -0.1023
   61MOL    C2928949   2.356   3.007   6.119  0.5753 -0.2522 -0.5407
   61MOL    C3028950   2.354   2.875   6.046 -0.1904  0.0758  0.3716
   61MOL    O3128951   2.488   2.854   6.002 -0.3363  0.2692 -0.3109
   61MOL    C3228952   2.502   2.758   5.905  0.1959  0.5407 -0.2404
   61MOL    O3328953   2.419   2.711   5.835 -0.5527 -0.3468  0.1601
   61MOL    C3428954   2.652   2.723   5.884  0.6246  0.0975 -0.2831
   61MOL    C3528955   2.725   2.812   5.782  0.6665 -0.5313 -0.4341
   61MOL    C3628956   2.735   2.726   5.655  0.0656 -0.0289  0.8758
   61MOL    O3728957   2.679   2.758   5.547 -0.2883  0.0524  0.5938
   61MOL    H3828958   2.276   3.206   6.283 -0.3901 -0.7938  0.6358
   61MOL    H3928959   2.097   3.204   6.267  0.8173  3.7553 -0.1862
   61MOL    H4028960   2.149   3.027   6.077 -0.8710  0.3212  0.8164
   61MOL    H4128961   2.190   2.970   6.245  2.1278 -0.8612 -0.2282
   61MOL    H4228962   2.423   3.004   6.205  1.3950 -1.4129 -1.2190
   61MOL    H4328963   2.390   3.083   6.048  3.3891 -0.5606  0.4243
   61MOL    H4428964   2.318   2.798   6.114  0.5891 -1.1226 -0.5637
   61MOL    H4528965   2.290   2.894   5.959 -0.4210  3.8962  1.2811
   61MOL    H4628966   2.669   2.616   5.870 -1.8103 -0.2995 -0.5530
   61MOL    H4728967   2.688   2.748   5.984  1.8850  2.3416 -1.2654
   61MOL    H4828968   2.667   2.897   5.747  0.3461 -1.4819 -2.2594
   61MOL    H4928969   2.824   2.845   5.815 -0.4831  0.7771  1.9026
   61MOL    O5028970   2.809   2.611   5.672 -0.1660 -0.1334 -0.0207
   61MOL    C5128971   2.821   2.510   5.580  0.7290 -0.2328  0.2523
   61MOL    C5228972   2.973   2.479   5.565  0.1615 -0.1051 -0.4883
   61MOL    C5328973   3.002   2.355   5.486 -0.1431 -0.3138  0.4157
   61MOL    C5428974   3.149   2.324   5.509 -0.9194 -0.1723  0.3448
   61MOL    O5528975   3.185   2.196   5.472  0.1770 -0.1552 -0.1085
   61MOL    C5628976   3.309   2.138   5.499  0.0939 -0.0438  0.0495
   61MOL    O5728977   3.400   2.191   5.560 -0.2680  0.2786  0.0118
   61MOL    C5828978   3.326   2.006   5.424 -0.0013  1.1945  1.1673
   61MOL    C5928979   3.472   1.966   5.410  0.3033 -0.3381 -0.2820
   61MOL    C6028980   3.475   1.829   5.341 -0.0457 -0.4426 -0.5986
   61MOL    O6128981   3.540   1.812   5.241  0.2937 -0.3517  0.4019
   61MOL    H6228982   2.769   2.424   5.622 -0.9186  0.7317  0.1907
   61MOL    H6328983   2.782   2.550   5.487  1.8399  0.0841 -0.0897
   61MOL    H6428984   3.017   2.461   5.664  1.9834 -1.0941 -1.4545
   61MOL    H6528985   3.024   2.568   5.530  1.3879 -0.3058  0.7443
   61MOL    H6628986   2.975   2.375   5.382 -0.4246  0.4217  0.6224
   61MOL    H6728987   2.937   2.273   5.515 -1.0997 -0.0626 -0.9736
   61MOL    H6828988   3.221   2.398   5.473 -1.3380  0.4741  0.8154
   61MOL    H6928989   3.156   2.322   5.618 -3.1132  0.6476  0.5213
   61MOL    H7028990   3.277   2.013   5.327  0.9671 -0.9734  0.4821
   61MOL    H7128991   3.276   1.932   5.486  0.4056 -0.9063 -0.9418
   61MOL    H7228992   3.530   2.038   5.352  4.3139 -3.0124  0.1941
   61MOL    H7328993   3.528   1.954   5.503 -1.5443 -1.0054  0.7796
   61MOL    O7428994   3.409   1.735   5.405  0.8497  0.2034  0.2730
   61MOL    C7528995   3.425   1.597   5.367  0.2761  0.4998  0.2873
   61MOL    C7628996   3.302   1.526   5.423 -0.0179  0.3126  0.8941
   61MOL    C7728997   3.295   1.383   5.367 -0.8414 -0.0377 -0.2044
   61MOL    C7828998   3.164   1.319   5.417  0.1054 -0.2488  0.7372
   61MOL    O7928999   3.164   1.179   5.399  0.4117  0.1721 -0.0387
   61MOL    C8029000   3.060   1.115   5.457  0.5067  0.0395 -0.1096
   61MOL    O8129001   2.960   1.172   5.502 -0.1907 -0.1123  0.5008
   61MOL    C8229002   3.071   0.961   5.457  0.0539  0.6438 -0.5066
   61MOL    C8329003   2.955   0.898   5.544 -0.7149 -0.3622  0.2938
   61MOL    C8429004   2.850   0.827   5.455 -0.0419 -0.1081 -0.2968
   61MOL    O8529005   2.842   0.844   5.335  0.3241  1.2408 -0.5998
   61MOL    H8629006   3.435   1.588   5.259  1.8413 -5.1508  0.7638
   61MOL    H8729007   3.514   1.549   5.409 -0.0814  0.8138  1.4074
   61MOL    H8829008   3.215   1.591   5.413  0.8366  1.4803  0.8979
   61MOL    H8929009   3.328   1.514   5.528  0.2339 -0.1414  0.7834
   61MOL    H9029010   3.384   1.327   5.396 -0.1048 -0.0146 -2.2998
   61MOL    H9129011   3.300   1.384   5.258 -0.0351  2.1454 -0.1905
   61MOL    H9229012   3.165   1.341   5.524 -0.5674  1.8999  0.3342
   61MOL    H9329013   3.077   1.369   5.375  0.3783 -1.0285 -0.8003
   61MOL    H9429014   3.173   0.932   5.484  0.1334  1.3784 -0.0100
   61MOL    H9529015   3.061   0.925   5.355  0.5176  0.3868 -0.4642
   61MOL    H9629016   3.000   0.817   5.600 -0.8483  0.0732  1.0392
   61MOL    H9729017   2.887   0.965   5.597 -0.1053  0.8693 -0.4582
   61MOL    O9829018   2.775   0.741   5.536  0.4162 -0.2977  0.0062
   61MOL    C9929019   2.680   0.657   5.468 -0.6014 -0.1664 -0.1884
   61MOL   C10029020   2.737   0.519   5.455 -0.1084  0.2833  0.5974
   61MOL   C10129021   2.835   0.501   5.341 -0.3000 -0.3444  0.0102
   61MOL   C10229022   2.902   0.365   5.332 -0.3271  0.4217  0.8667
   61MOL   O10329023   3.037   0.378   5.279 -0.1102  0.1643 -0.0078
   61MOL   C10429024   3.107   0.272   5.232  0.5584  0.2050  0.2779
   61MOL   O10529025   3.049   0.166   5.209  0.1615 -0.6408 -0.6454
   61MOL   C10629026   3.257   0.294   5.228 -0.1324 -0.4990  0.0796
   61MOL   C10729027   3.334   0.199   5.132  0.4716 -0.3122  0.4238
   61MOL   C10829028   3.439   0.272   5.052  0.6076  0.8332  0.7194
   61MOL   O10929029   3.409   0.310   4.938  0.1923 -0.1971 -0.3587
   61MOL   H11029030   2.597   0.658   5.538 -2.1116  2.6499 -1.9531
   61MOL   H11129031   2.643   0.702   5.376 -0.0398  1.7721  0.5198
   61MOL   H11229032   2.652   0.451   5.447 -1.5153  2.2379 -1.6802
   61MOL   H11329033   2.772   0.496   5.556  0.2315  0.7051  0.5756
   61MOL   H11429034   2.919   0.569   5.353 -0.8973  0.8075 -1.9610
   61MOL   H11529035   2.793   0.527   5.243 -0.1815 -2.0468 -0.5045
   61MOL   H11629036   2.902   0.310   5.426  0.7547  2.3477  2.0249
   61MOL   H11729037   2.847   0.304   5.261  0.1490 -0.2113  1.0437
   61MOL   H11829038   3.297   0.283   5.329 -1.0921 -1.3775  0.3770
   61MOL   H11929039   3.261   0.394   5.184 -1.1589 -1.1841 -1.5993
   61MOL   H12029040   3.392   0.124   5.185  2.1599 -0.4704 -1.5953
   61MOL   H12129041   3.270   0.144   5.063 -0.9107 -0.4686  1.8113
   61MOL   O12229042   3.547   0.300   5.123  0.3576  0.2722 -0.4322
   61MOL   C12329043   3.649   0.385   5.068  0.2237 -0.5825  0.0561
   61MOL   C12429044   3.781   0.369   5.143 -0.2026 -0.4053 -0.4527
   61MOL   C12529045   3.779   0.431   5.286  0.7434  0.6679  0.9967
   61MOL   C12629046   3.874   0.367   5.383 -1.2196 -0.1589 -0.0838
   61MOL   O12729047   3.861   0.424   5.512 -0.2253 -0.0190  0.9310
   61MOL   C12829048   3.935   0.376   5.621 -0.4112 -0.0041 -0.6090
   61MOL   O12929049   3.998   0.273   5.620 -0.4342  0.1075 -0.2683
   61MOL   C13029050   3.918   0.458   5.742 -0.7443  0.4801  0.3375
   61MOL   C13129051   4.025   0.432   5.850  0.0849  0.4114 -0.4291
   61MOL   C13229052   3.971   0.330   5.953 -0.5630 -0.6061  0.3713
   61MOL   O13329053   3.891   0.242   5.917 -0.4590 -0.4059  0.5728
   61MOL   H13429054   3.661   0.363   4.962  1.1815 -1.4568  0.3418
   61MOL   H13529055   3.622   0.491   5.077  1.2196 -0.3766  0.6188
   61MOL   H13629056   3.867   0.399   5.083  1.8074 -0.3726  2.3792
   61MOL   H13729057   3.790   0.261   5.155  0.2850 -0.4804 -1.4300
   61MOL   H13829058   3.682   0.402   5.325 -0.5410  1.2832 -1.6550
   61MOL   H13929059   3.789   0.539   5.285 -1.8539  0.9178 -1.2392
   61MOL   H14029060   3.865   0.259   5.398  0.5948 -0.2829  0.2339
   61MOL   H14129061   3.981   0.381   5.366 -0.5924 -1.7248  2.2740
   61MOL   H14229062   3.823   0.429   5.787 -1.8512  1.8781 -1.0037
   61MOL   H14329063   3.912   0.565   5.723  0.1052  0.6390  0.9630
   61MOL   H14429064   4.113   0.381   5.811 -1.5673 -0.1214 -3.6094
   61MOL   H14529065   4.060   0.522   5.901 -0.9424 -0.3736  1.7481
   61MOL   O14629066   3.999   0.355   6.080  0.3908  0.3052 -0.3276
   61MOL   C14729067   3.941   0.287   6.184  0.0538  0.0577  0.2023
   61MOL   C14829068   4.032   0.292   6.303 -0.4035  0.1491  0.0288
   61MOL   C14929069   4.142   0.190   6.299 -0.1743  0.2134  0.2101
   61MOL   C15029070   4.216   0.194   6.433 -0.1207 -1.0484 -0.4005
   61MOL   O15129071   4.299   0.077   6.451  0.1319 -0.1806 -0.3069
   61MOL   C15229072   4.339   0.054   6.575 -0.2267  0.3510 -0.0961
   61MOL   O15329073   4.321   0.122   6.673  0.0306 -0.4838 -0.8120
   61MOL   C15429074   4.408   7.787   6.590  0.8660 -0.1051  0.0510
   61MOL   C15529075   4.418   7.744   6.739  0.0196 -0.6918  0.3674
   61MOL   C15629076   4.300   7.656   6.788  0.7545 -0.2082 -0.2528
   61MOL   O15729077   4.225   7.600   6.708 -0.1791 -0.2630  0.1066
   61MOL   H15829078   3.839   0.321   6.200 -1.1237 -2.7576 -0.8830
   61MOL   H15929079   3.931   0.182   6.156 -4.0459  0.3576  0.1634
   61MOL   H16029080   3.972   0.263   6.389  0.0696 -0.0355  0.2994
   61MOL   H16129081   4.057   0.396   6.325  0.2338  0.1562 -0.6871
   61MOL   H16229082   4.212   0.218   6.220  0.9017  1.1470  1.4843
   61MOL   H16329083   4.107   0.092   6.268 -1.6434  0.8472 -0.2092
   61MOL   H16429084   4.276   0.285   6.430 -1.2867 -0.2179  0.8956
   61MOL   H16529085   4.139   0.209   6.509 -0.5159 -1.6425 -0.6830
   61MOL   H16629086   4.509   7.802   6.552  1.3403 -2.0049  0.4973
   61MOL   H16729087   4.351   7.715   6.530  2.9248  0.1593 -2.2817
   61MOL   H16829088   4.504   7.679   6.758 -1.5574 -2.7046  0.7927
   61MOL   H16929089   4.439   7.824   6.811 -0.6616 -0.0270 -0.1652
   61MOL   O17029090   4.292   7.633   6.921  0.2088 -0.1191  0.2532
   61MOL   C17129091   4.176   7.583   6.987  0.3745 -0.3050  0.0734
   61MOL   C17229092   4.130   7.699   7.076 -0.5255 -0.0975  0.1225
   61MOL   C17329093   4.025   7.655   7.174  0.3011 -0.5307  0.6153
   61MOL   C17429094   4.072   7.574   7.292 -0.2462 -0.0647  0.6825
   61MOL   O17529095   4.161   7.655   7.365 -0.3209  0.7540  0.1829
   61MOL   C17629096   4.198   7.630   7.483 -0.9896 -0.2847  0.0379
   61MOL   O17729097   4.153   7.538   7.543  0.4069  0.2881  0.0356
   61MOL   C17829098   4.308   7.717   7.543 -0.4999 -0.2663  0.0593
   61MOL   C17929099   4.353   7.657   7.678 -0.3137 -0.4087 -0.2741
   61MOL   C18029100   4.471   7.559   7.668 -1.4253  0.1933 -0.7531
   61MOL   O18129101   4.559   7.570   7.584  0.0989  0.7366  0.4259
   61MOL   H18229102   4.095   7.563   6.918  1.2738  1.6541 -1.6070
   61MOL   H18329103   4.192   7.495   7.049 -1.9971  0.4836  1.8837
   61MOL   H18429104   4.089   7.788   7.027  0.5263  0.4479  0.2283
   61MOL   H18529105   4.204   7.749   7.138  0.4163 -2.4240  0.9210
   61MOL   H18629106   3.945   7.603   7.123  0.0916 -0.3618  0.7727
   61MOL   H18729107   3.981   7.745   7.218  1.6310 -0.6543  2.2775
   61MOL   H18829108   3.980   7.543   7.342 -0.3588 -0.4633  0.2306
   61MOL   H18929109   4.117   7.485   7.250 -2.9591 -0.9746 -0.3883
   61MOL   H19029110   4.270   7.818   7.552  1.8921  0.6125  0.7227
   61MOL   H19129111   4.391   7.714   7.472  0.3033 -4.2081  1.0190
   61MOL   H19229112   4.366   7.748   7.737 -0.5912 -0.1648 -0.5836
   61MOL   H19329113   4.263   7.615   7.724 -0.1320 -1.9095 -1.2407
   61MOL   O19429114   4.469   7.475   7.769  0.3413 -0.0849  0.1645
   61MOL   C19529115   4.572   7.389   7.796 -0.0145  0.2519  0.1360
   61MOL   C19629116   4.603   7.390   0.073  0.4166  1.0689 -0.2657
   61MOL   C19729117   4.510   7.298   0.149 -0.0878 -0.0024  0.8368
   61MOL   C19829118   4.565   7.258   0.285 -0.8588 -0.3318 -0.8302
   61MOL   O19929119   4.584   7.376   0.361 -0.4449  0.1823  0.1461
   61MOL   C20029120   4.623   7.372   0.488 -0.9906  0.6796  0.5955
   61MOL   O20129121   4.643   7.268   0.551 -0.0995 -0.0550 -0.0424
   61MOL   C20229122   4.654   7.505   0.546  0.4977 -0.3728  0.0239
   61MOL   C20329123   4.785   7.555   0.496 -0.4292 -0.6299  0.1321
   61MOL   C20429124   4.769   7.705   0.488 -0.3360  0.3981  0.5716
   61MOL   O20529125   4.771   7.758   0.374  0.3525 -0.1653  0.3283
   61MOL   H20629126   4.531   7.295   7.760  0.2549  1.2062 -2.7270
   61MOL   H20729127   4.657   7.418   7.736 -0.1567  1.6032  0.5832
   61MOL   H20829128   4.598   7.490   0.116 -0.4683  0.6366  0.6677
   61MOL   H20929129   4.706   7.356   0.085 -0.8465 -2.4727  1.3236
   61MOL   H21029130   4.495   7.214   0.082  2.7448  0.2086 -0.1259
   61MOL   H21129131   4.414   7.349   0.160 -0.9606 -1.8508  2.1100
   61MOL   H21229132   4.501   7.184   0.333  0.8556 -0.5890  1.1011
   61MOL   H21329133   4.661   7.208   0.277 -0.7959 -0.3270 -0.1534
   61MOL   H21429134   4.659   7.500   0.655  1.3728 -1.5894 -0.0702
   61MOL   H21529135   4.577   7.576   0.517  1.9871  1.0696 -0.4568
   61MOL   H21629136   4.869   7.541   0.564 -1.2316 -0.3876  1.1891
   61MOL   H21729137   4.814   7.502   0.406 -1.6024 -1.0633  0.0089
   61MOL   O21829138   4.756   7.759   0.611 -0.5401  0.0821  0.1738
   61MOL   C21929139   4.734   0.024   0.631 -0.1820  0.5468  0.0361
   61MOL   C22029140   4.830   0.080   0.734 -0.3660 -0.5956  0.0127
   61MOL   C22129141   4.807   0.014   0.869 -0.2263 -0.1296 -0.8576
   61MOL   C22229142   4.913   0.062   0.974 -0.4593  0.3110  1.2283
   61MOL   O22329143   4.934   0.205   0.961 -0.5837  0.2721 -0.0763
   61MOL   C22429144   5.011   0.274   1.052 -0.1921 -0.4014  0.0431
   61MOL   O22529145   5.076   0.220   1.150  0.2738 -0.4828 -0.5466
   61MOL   C22629146   5.013   0.418   1.022  0.0245  0.5265  0.0115
   61MOL   C22729147   5.112   0.460   0.920 -0.1685 -0.4455  0.3049
   61MOL   C22829148   5.044   0.507   0.797 -0.6949  0.5165  0.5711
   61MOL   O22929149   5.077   0.448   0.690 -0.5903  0.1710 -0.2938
   61MOL   H23029150   4.721   0.083   0.540 -1.2074 -1.6115 -1.2594
   61MOL   H23129151   4.632   0.028   0.671  0.2033  2.2921  0.8634
   61MOL   H23229152   4.807   0.186   0.733  0.1554 -0.4844 -0.9465
   61MOL   H23329153   4.933   0.071   0.698  0.0939  0.1865  1.1158
   61MOL   H23429154   4.808   7.780   0.861  2.7925 -0.2300 -0.0625
   61MOL   H23529155   4.709   0.059   0.889 -0.1169 -0.0415 -0.5023
   61MOL   H23629156   4.887   0.042   1.078 -0.4089 -0.0736  1.1666
   61MOL   H23729157   5.010   0.015   0.960 -1.8547 -2.2445 -0.2269
   61MOL   H23829158   5.026   0.480   1.110 -0.0791  0.8210 -0.1806
   61MOL   H23929159   4.911   0.438   0.991  0.3524 -0.1995 -1.5835
   61MOL   H24029160   5.180   0.541   0.947 -0.4121 -0.5348  1.2019
   61MOL   H24129161   5.178   0.376   0.897  1.0609  0.2514  1.2046
   61MOL   O24229162   4.947   0.598   0.810  0.3607  0.4719  0.4415
   61MOL   C24329163   4.870   0.642   0.701 -0.4530 -0.3500  0.1613
   61MOL   C24429164   4.780   0.757   0.732  0.7231 -0.3131 -0.3985
   61MOL   C24529165   4.859   0.889   0.751 -0.9099 -0.4521 -0.1721
   61MOL   C24629166   4.772   1.011   0.778 -0.4382 -0.3187  0.1150
   61MOL   O24729167   4.837   1.142   0.789 -0.1600  0.3166 -0.3522
   61MOL   C24829168   4.862   1.228   0.689  0.3736  0.1894  0.2737
   61MOL   O24929169   4.812   1.212   0.575 -0.2001 -0.0592 -0.0768
   61MOL   C25029170   4.952   1.352   0.729 -0.2540  0.2094 -0.0832
   61MOL   C25129171   4.956   1.461   0.625 -0.0818 -0.4006  0.4992
   61MOL   C25229172   5.068   1.436   0.522 -0.0158 -0.3405  0.3755
   61MOL   O25329173   5.126   1.331   0.514 -0.3423  0.1931 -0.1057
   61MOL   H25429174   4.939   0.658   0.618  1.5865 -0.8832  1.7002
   61MOL   H25529175   4.809   0.553   0.685  1.4967 -1.4765 -1.2451
   61MOL   H25629176   4.707   0.745   0.813  1.2654  0.7680  0.2454
   61MOL   H25729177   4.729   0.779   0.638  0.6348 -1.6404 -0.6810
   61MOL   H25829178   4.926   0.912   0.668 -1.2735  1.2220 -0.0120
   61MOL   H25929179   4.924   0.873   0.836 -0.1984  0.0363 -0.6180
   61MOL   H26029180   4.708   1.021   0.690  1.3236 -2.5945 -1.5129
   61MOL   H26129181   4.699   1.000   0.857  0.4021 -1.0851  0.8038
   61MOL   H26229182   5.054   1.317   0.742  0.3164  2.4798  1.8429
   61MOL   H26329183   4.915   1.393   0.822  2.7689 -1.2592  1.8489
   61MOL   H26429184   4.863   1.465   0.569 -0.7638 -1.0289  1.5781
   61MOL   H26529185   4.968   1.558   0.671 -0.3114 -0.5196  0.8084
   61MOL   O26629186   5.075   1.537   0.438  0.6805 -0.4203  0.5322
   61MOL   C26729187   5.161   1.531   0.329  0.5857 -0.5623 -0.4415
   61MOL   C26829188   5.137   1.658   0.245  0.5650 -0.3356  0.0383
   61MOL   C26929189   5.199   1.654   0.109  0.4406  0.0452 -0.3579
   61MOL   C27029190   5.344   1.657   0.085  0.4526  0.1980  0.5270
   61MOL   O27129191   5.401   1.544   0.139 -0.1892  0.4174 -0.6730
   61MOL   C27229192   5.434   1.442   0.051  0.4209 -0.2026 -0.1037
   61MOL   O27329193   5.415   1.441   7.800 -0.0045 -0.1657  0.3144
   61MOL   C27429194   5.496   1.325   0.124 -0.6546  0.2871  0.2546
   61MOL   C27529195   5.521   1.201   0.022  0.6648  0.2092  0.0336
   61MOL   C27629196   5.534   1.074   0.089  0.1900  0.9855 -0.3062
   61MOL   O27729197   5.455   1.033   0.175  0.5025 -0.8224 -0.5896
   61MOL   H27829198   5.266   1.532   0.356  0.0255  0.4689  1.7777
   61MOL   H27929199   5.140   1.450   0.259  0.0391 -0.3700 -0.5074
   61MOL   H28029200   5.173   1.742   0.304  0.2783 -0.2832  0.1424
   61MOL   H28129201   5.030   1.676   0.235  0.2386 -2.7524 -1.2110
   61MOL   H28229202   5.155   1.739   0.057  0.3616 -0.1333 -0.5821
   61MOL   H28329203   5.158   1.571   0.051 -3.3617  1.9550 -0.5649
   61MOL   H28429204   5.366   1.671   7.854  0.1025 -1.0269  0.2793
   61MOL   H28529205   5.374   1.747   0.139 -2.5938  0.5937  1.6085
   61MOL   H28629206   5.428   1.308   0.207 -0.0418 -0.7838  0.5478
   61MOL   H28729207   5.588   1.360   0.170 -0.7444 -0.6687  1.1801
   61MOL   H28829208   5.427   1.187   7.844 -0.4320  0.2166  1.9536
   61MOL   H28929209   5.601   1.210   7.823  0.1601  1.2091 -0.4094
   61MOL   O29029210   5.649   1.014   0.049 -0.3655  0.4368 -0.3895
   61MOL   C29129211   5.686   0.874   0.094 -0.5348  0.3514  0.9250
   61MOL   C29229212   5.836   0.868   0.073 -0.5244 -0.0318 -0.1046
   61MOL   C29329213   5.908   0.751   0.142 -0.7943 -0.3123  0.3149
   61MOL   C29429214   6.065   0.744   0.149 -0.2807 -0.0132  0.1395
   61MOL   O29529215   6.126   0.718   0.023 -0.1276 -0.0301 -0.6006
   61MOL   C29629216   6.252   0.678   0.013 -0.6508 -0.1165  0.8807
   61MOL   O29729217   6.321   0.658   0.110  0.0499 -0.2068 -0.2655
   61MOL   C29829218   6.295   0.651   7.738 -0.1278  0.4240 -0.3768
   61MOL   C29929219   6.200   0.576   7.641 -0.2845 -0.4939  0.1383
   61MOL   C30029220   6.091   0.669   7.583 -0.4492  0.6202 -1.1159
   61MOL   O30129221   6.126   0.763   7.513 -0.0840  0.3932  0.0744
   61MOL   H30229222   5.646   0.861   0.194 -1.0057 -0.9484  0.5831
   61MOL   H30329223   5.636   0.801   0.030  1.8906 -2.2690  1.9563
   61MOL   H30429224   5.891   0.956   0.109  1.5136 -0.2376 -2.5478
   61MOL   H30529225   5.854   0.864   7.840 -1.1660 -0.4813 -0.1943
   61MOL   H30629226   5.864   0.657   0.110 -1.1378 -0.6326  1.6727
   61MOL   H30729227   5.887   0.755   0.249  0.4811  1.1604  0.5230
   61MOL   H30829228   6.103   0.833   0.197  2.6101  0.1294 -2.2947
   61MOL   H30929229   6.099   0.673   0.224 -0.2529  0.5954  0.7053
   61MOL   H31029230   6.379   0.585   7.762 -0.1219  0.6830  0.3514
   61MOL   H31129231   6.351   0.735   7.696 -1.1703  0.9544 -0.7215
   61MOL   H31229232   6.259   0.539   7.558  0.0697  1.4731 -0.4981
   61MOL   H31329233   6.154   0.497   7.700  0.0992 -0.1584  0.8973
   61MOL   O31429234   5.962   0.643   7.622  0.2840 -0.7027 -0.0582
   61MOL   C31529235   5.858   0.714   7.566  0.0912 -0.3231  0.3143
   61MOL   C31629236   5.728   0.666   7.634 -0.4736  0.8477 -0.5736
   61MOL   C31729237   5.599   0.746   7.598 -0.0799 -0.1633  0.0602
   61MOL   C31829238   5.576   0.749   7.448  0.0299 -0.2242 -0.0423
   61MOL   O31929239   5.526   0.623   7.407  0.0945  0.0271 -0.1432
   61MOL   C32029240   5.604   0.540   7.332  0.3380 -0.1717  0.1011
   61MOL   O32129241   5.715   0.573   7.285  0.3399  0.3592  0.3271
   61MOL   C32229242   5.547   0.395   7.324 -0.2843 -0.8080 -1.0782
   61MOL   C32329243   5.573   0.316   7.456 -0.0500  0.0744 -0.9522
   61MOL   C32429244   5.642   0.181   7.443 -0.5834  0.1117 -0.3017
   61MOL   O32529245   5.675   0.136   7.332 -0.8408 -0.0505  0.3254
   61MOL   H32629246   5.878   0.818   7.592 -0.1342 -0.3704  0.6778
   61MOL   H32729247   5.865   0.698   7.459 -2.5767  0.3480  0.0261
   61MOL   H32829248   5.725   0.673   7.742 -1.6461  0.5507 -0.5745
   61MOL   H32929249   5.724   0.559   7.618  1.2625  0.2655  2.5780
   61MOL   H33029250   5.603   0.841   7.652 -0.9540  0.3361 -0.7309
   61MOL   H33129251   5.507   0.704   7.640  0.3319  0.0607  1.1822
   61MOL   H33229252   5.500   0.820   7.416  1.6371  0.9412 -1.3802
   61MOL   H33329253   5.665   0.782   7.393 -0.5773 -1.4704 -1.8052
   61MOL   H33429254   5.601   0.338   7.248  0.9898  0.8572 -1.4690
   61MOL   H33529255   5.446   0.397   7.284 -1.3442 -1.1675  1.4962
   61MOL   H33629256   5.620   0.378   7.531 -2.4606  0.4067  0.3308
   61MOL   H33729257   5.480   0.291   7.507 -0.9122  1.3355 -1.8738
   61MOL   O33829258   5.652   0.109   7.557  0.0560 -0.2269  0.3220
   61MOL   C33929259   5.686   7.845   7.550  0.1446 -0.2511 -0.8754
   61MOL   C34029260   5.615   7.763   7.652 -0.8543  0.0925  0.1059
   61MOL   C34129261   5.648   7.793   7.799  0.4370 -0.2615 -0.1516
   61MOL   C34229262   5.564   7.699   0.019  0.3364  0.5792  0.6702
   61MOL   O34329263   5.596   7.561   7.874  0.0222 -0.5296 -0.1046
   61MOL   C34429264   5.705   7.513   0.056  0.4345  0.0978 -0.3123
   61MOL   O34529265   5.787   7.575   0.129  0.8231  0.2264  0.4550
   61MOL   C34629266   5.721   7.365   0.025  0.4824 -0.0372 -0.2869
   61MOL   C34729267   5.595   7.289   0.016  0.1791  0.5306  0.1030
   61MOL   C34829268   5.562   7.225   0.150  0.2971 -0.5935  0.3718
   61MOL   O34929269   5.620   7.269   0.253  0.1625  0.1656  0.7088
   61MOL   H35029270   5.658   7.801   7.455  1.4836 -1.1797 -0.8654
   61MOL   H35129271   5.794   7.844   7.566 -0.2747  2.3743  2.9995
   61MOL   H35229272   5.634   7.658   7.629 -0.2730  0.1886  0.1266
   61MOL   H35329273   5.509   7.777   7.634 -1.3478  0.1677  2.8559
   61MOL   H35429274   5.631   0.023   7.821 -2.2614 -0.7687  0.2724
   61MOL   H35529275   5.756   7.776   7.804  0.7062  0.3982 -3.1993
   61MOL   H35629276   5.573   7.720   0.126 -0.6455  2.3581  0.4341
   61MOL   H35729277   5.457   7.694   7.874  0.1900 -0.2129  1.6560
   61MOL   H35829278   5.783   7.323   0.105 -1.6381  1.0510  2.0003
   61MOL   H35929279   5.781   7.369   7.809 -0.6725 -2.3205 -1.1747
   61MOL   H36029280   5.508   7.349   7.862  2.1007  2.1644 -2.4187
   61MOL   H36129281   5.601   7.218   7.808  0.2655  0.4283  0.1973
   61MOL   O36229282   5.462   7.136   0.142 -0.3691  0.6914  0.4137
   61MOL   C36329283   5.432   7.068   0.259 -0.1651  0.7845 -0.1483
   61MOL   C36429284   5.317   6.971   0.233 -0.1993 -0.6557  0.4823
   61MOL   C36529285   5.246   6.938   0.358  0.2222 -0.5622 -0.0029
   61MOL   C36629286   5.146   6.821   0.348 -0.5493 -0.3756  0.5070
   61MOL   O36729287   5.212   6.696   0.327 -0.0491 -0.5731  0.3298
   61MOL   C36829288   5.148   6.582   0.342 -0.1492 -0.6327 -0.3412
   61MOL   O36929289   5.036   6.568   0.389  0.0339  0.3240 -0.7714
   61MOL   C37029290   5.213   6.457   0.287 -0.2374  0.6184  0.2778
   61MOL   C37129291   5.224   6.461   0.134  0.1433 -0.0997 -0.2928
   61MOL   C37229292   5.117   6.370   0.073 -0.4976 -0.2517 -0.7803
   61MOL   O37329293   5.039   6.404   7.862  0.7122  0.1860 -0.1314
   61MOL   H37429294   5.513   7.004   0.292 -1.1185 -0.4395 -0.1131
   61MOL   H37529295   5.399   7.139   0.335 -2.6443  0.9562 -1.3075
   61MOL   H37629296   5.363   6.881   0.192  2.1182  0.8339 -0.2959
   61MOL   H37729297   5.246   6.999   0.155  0.0985 -2.8367 -0.6190
   61MOL   H37829298   5.183   7.023   0.383  0.4020  0.5475 -3.1048
   61MOL   H37929299   5.320   6.917   0.435 -0.6919 -0.7884  0.8296
   61MOL   H38029300   5.089   6.822   0.440 -1.5792 -0.8036 -0.1199
   61MOL   H38129301   5.091   6.843   0.256 -0.1329  0.8969  0.5489
   61MOL   H38229302   5.163   6.365   0.319  0.0994  0.0037 -0.9596
   61MOL   H38329303   5.310   6.452   0.337 -0.8840 -1.5720  1.3979
   61MOL   H38429304   5.201   6.557   0.088 -1.2308 -1.1316 -1.8261
   61MOL   H38529305   5.326   6.437   0.104  0.3431  0.4629 -0.0586
   61MOL   O38629306   5.122   6.253   0.125  0.3340  0.3001  0.4103
   61MOL   C38729307   5.041   6.151   0.068  0.8205  0.0891  0.2198
   61MOL   C38829308   5.080   6.014   0.119 -0.2808  0.1233 -0.6094
   61MOL   C38929309   5.071   6.014   0.273  0.0643 -0.3295 -0.1498
   61MOL   C39029310   5.120   5.883   0.338 -0.3645 -0.0022  0.2523
   61MOL   O39129311   5.060   5.773   0.276  0.1894  0.2206 -0.3722
   61MOL   C39229312   5.125   5.682   0.196 -0.1205 -0.2057  0.8168
   61MOL   O39329313   5.246   5.686   0.171 -0.0323  0.7317 -0.1708
   61MOL   C39429314   5.028   5.588   0.119 -0.3589 -0.1067 -0.1137
   61MOL   C39529315   5.017   5.452   0.190  0.1699  0.3848 -0.5101
   61MOL   C39629316   4.892   5.442   0.274 -0.5389 -0.4400 -0.2944
   61MOL   O39729317   4.801   5.528   0.275 -0.0656  0.7021  0.5535
   61MOL   H39829318   4.940   6.177   0.101 -0.1506  0.0856 -2.6108
   61MOL   H39929319   5.041   6.142   7.834 -0.1695 -0.2642  0.2430
   61MOL   H40029320   5.180   5.985   0.087  0.5696  2.3433 -0.0756
   61MOL   H40129321   5.020   5.932   0.080  1.7132 -0.9279 -1.5395
   61MOL   H40229322   4.968   6.043   0.293  0.7786  2.6972 -0.6830
   61MOL   H40329323   5.133   6.091   0.319  1.8624 -2.0332  0.3535
   61MOL   H40429324   5.228   5.874   0.346 -0.5072 -0.5804  1.6605
   61MOL   H40529325   5.092   5.883   0.443 -0.8772 -1.1794  0.1217
   61MOL   H40629326   5.059   5.571   0.016 -0.4422 -0.4940 -0.0780
   61MOL   H40729327   4.935   5.644   0.116 -1.4877 -1.6888  2.9964
   61MOL   H40829328   5.005   5.371   0.118  1.1204 -0.9805  0.8442
   61MOL   H40929329   5.106   5.424   0.247 -1.2867  0.4847  1.9085
   61MOL   O41029330   4.880   5.326   0.333  0.0000 -0.5910 -0.0732
   61MOL   C41129331   4.764   5.300   0.408 -0.4877 -0.0185 -0.1045
   61MOL   C41229332   4.780   5.158   0.470  0.0644  0.0511 -0.0655
   61MOL   C41329333   4.818   5.050   0.370  0.8000  0.4781  0.1089
   61MOL   C41429334   4.805   4.905   0.416 -0.2429  0.1353  0.9984
   61MOL   O41529335   4.667   4.880   0.464  0.1304  0.5689  0.2275
   61MOL   C41629336   4.651   4.774   0.539 -0.1963 -0.1994  0.0120
   61MOL   O41729337   4.744   4.705   0.593  0.5379  0.0822 -0.4311
   61MOL   C41829338   4.507   4.747   0.572 -0.0088 -0.2064 -0.1906
   61MOL   C41929339   4.431   4.671   0.467  0.3423 -0.5104  0.6057
   61MOL   C42029340   4.423   4.520   0.480 -0.2668  0.5607  0.0364
   61MOL   O42129341   4.531   4.462   0.466 -0.2562  0.2009 -0.4579
   61MOL   H42229342   4.729   5.373   0.481  2.6913  0.0375  1.4499
   61MOL   H42329343   4.679   5.300   0.340 -0.8542 -0.1628  0.3462
   61MOL   H42429344   4.684   5.136   0.516  0.7641 -0.6698  1.0690
   61MOL   H42529345   4.859   5.163   0.545  2.8656 -4.2285 -2.5277
   61MOL   H42629346   4.922   5.072   0.345  0.8673 -0.2221 -0.2254
   61MOL   H42729347   4.751   5.058   0.285  1.0093  0.3362 -0.0671
   61MOL   H42829348   4.825   4.842   0.330 -1.6562  2.5340 -1.1922
   61MOL   H42929349   4.874   4.875   0.495  0.3298  1.3810  0.9841
   61MOL   H43029350   4.460   4.840   0.605  0.0821  0.7645 -2.7408
   61MOL   H43129351   4.528   4.704   0.671 -1.3055  0.4304  0.3733
   61MOL   H43229352   4.330   4.706   0.452  0.7938  0.5643  0.0376
   61MOL   H43329353   4.475   4.697   0.371 -0.4586 -1.1305  0.0751
   61MOL   O43429354   4.302   4.479   0.522 -0.3404  0.3510 -0.2082
   61MOL   C43529355   4.300   4.346   0.582 -0.1966  0.0299  0.5293
   61MOL   C43629356   4.163   4.289   0.563  0.1615 -0.1072  0.1428
   61MOL   C43729357   4.151   4.155   0.636 -0.3154  0.0735  0.1288
   61MOL   C43829358   4.020   4.082   0.608 -0.1221 -0.2892  0.2456
   61MOL   O43929359   4.010   4.040   0.474  0.4502  0.0962  0.3607
   61MOL   C44029360   4.049   3.923   0.436 -0.4759 -0.2868 -1.0861
   61MOL   O44129361   4.097   3.832   0.508  0.9180  0.3129  0.0413
   61MOL   C44229362   4.037   3.901   0.290  0.0366 -0.5613  0.4447
   61MOL   C44329363   4.135   3.796   0.246  0.4635  1.2719  0.6871
   61MOL   C44429364   4.151   3.810   0.099  0.1634 -0.0119  0.5541
   61MOL   O44529365   4.263   3.825   0.054 -0.1623  0.1086  0.1110
   61MOL   H44629366   4.373   4.282   0.533  1.4476  3.4502 -1.6844
   61MOL   H44729367   4.330   4.368   0.685 -1.6858 -0.4536  1.0713
   61MOL   H44829368   4.151   4.267   0.457 -0.0300  1.2579 -0.1257
   61MOL   H44929369   4.094   4.366   0.597 -0.0083 -0.4553  0.6004
   61MOL   H45029370   4.167   4.182   0.741  2.3444  2.5994 -0.8285
   61MOL   H45129371   4.230   4.081   0.621  0.2644  0.7720 -0.2979
   61MOL   H45229372   4.003   4.001   0.679  1.7947 -0.7343  0.2267
   61MOL   H45329373   3.940   4.151   0.633 -0.3045 -0.2387 -0.4672
   61MOL   H45429374   4.056   3.996   0.240  2.1112 -1.8899 -1.3579
   61MOL   H45529375   3.934   3.872   0.269 -0.1516  1.3274 -1.4575
   61MOL   H45629376   4.227   3.822   0.299 -0.6967 -0.8527  3.8616
   61MOL   H45729377   4.107   3.694   0.271 -0.8757  1.5495  0.3678
   61MOL   O45829378   4.034   3.810   0.026 -0.3444  0.0349 -0.2600
   61MOL   C45929379   4.038   3.823   7.760  0.3937 -0.4002  0.3030
   61MOL   C46029380   3.909   3.889   7.718  0.2810  0.4764 -0.4230
   61MOL   C46129381   3.788   3.797   7.709  0.1109 -0.2215  0.5764
   61MOL   C46229382   3.807   3.669   7.622  1.0708  0.4236 -0.2961
   61MOL   O46329383   3.678   3.607   7.599 -0.5251 -0.1191 -0.1224
   61MOL   C46429384   3.680   3.473   7.582 -0.0490 -0.2831  0.6522
   61MOL   O46529385   3.777   3.396   7.585 -0.1600  0.0580  0.7784
   61MOL   C46629386   3.551   3.418   7.528 -0.1988  0.1144 -0.1076
   61MOL   C46729387   3.481   3.339   7.648  0.1385 -0.2285 -0.4583
   61MOL   C46829388   3.327   3.314   7.611  0.0855  0.5345 -0.6138
   61MOL   O46929389   3.265   3.384   7.536  0.3241 -0.4942  0.7039
   61MOL   H47029390   4.129   3.875   7.730  0.3086 -0.5098 -0.1421
   61MOL   H47129391   4.054   3.724   7.718  0.0631 -1.0701  1.7202
   61MOL   H47229392   3.917   3.934   7.619 -0.3233 -1.0506 -1.1900
   61MOL   H47329393   3.889   3.971   7.786 -1.5839  0.3836 -0.8332
   61MOL   H47429394   3.706   3.847   7.657  1.7051 -1.3996 -3.2530
   61MOL   H47529395   3.758   3.779   7.812  0.2676  1.3295  0.8955
   61MOL   H47629396   3.839   3.694   7.520 -0.8540  1.8762 -0.5810
   61MOL   H47729397   3.882   3.598   7.656  1.0787  0.9675  0.8289
   61MOL   H47829398   3.550   3.346   7.446  2.7261  1.4199 -1.3783
   61MOL   H47929399   3.490   3.502   7.494 -1.7531 -1.9897 -2.7525
   61MOL   H48029400   3.526   3.239   7.655  2.9066  1.1630  3.2910
   61MOL   H48129401   3.508   3.385   7.743  1.7016 -0.4760 -0.7679
   61MOL   H48229402   3.280   3.226   7.656 -0.6043  1.0657 -0.2791
   62MOL     O129403   0.142   7.479   0.807 -0.1663 -0.0117  0.2556
   62MOL     C229404   0.043   7.417   0.877  0.4680 -0.2003 -0.2846
   62MOL     C329405   7.784   7.472   0.843  0.4377  0.8201  0.5242
   62MOL     C429406   7.665   7.375   0.874 -0.0079 -0.2117 -0.0136
   62MOL     C529407   7.540   7.418   0.807  0.0156  0.6498  0.5407
   62MOL     O629408   7.491   7.547   0.844  0.6647 -0.0778 -0.0933
   62MOL     C729409   7.403   7.550   0.943  0.7744  0.2405  0.2867
   62MOL     O829410   7.370   7.459   1.012 -0.1033 -0.2650  0.1399
   62MOL     C929411   7.335   7.688   0.961 -0.2369 -0.0336  0.3503
   62MOL    C1029412   7.190   7.687   0.912  0.3916 -0.3797  0.2141
   62MOL    C1129413   7.106   7.798   0.976 -0.7354  0.5790 -0.3037
   62MOL    O1229414   7.025   7.864   0.906 -0.4421  0.4728  0.5461
   62MOL    H1329415   0.046   7.313   0.844  0.8530 -0.2804  0.0054
   62MOL    H1429416   0.054   7.413   0.985 -0.6639 -3.2204 -0.2144
   62MOL    H1529417   7.775   7.495   0.736  0.1452  0.0837  0.3903
   62MOL    H1629418   7.771   7.565   0.899  0.5125  1.3894 -0.3861
   62MOL    H1729419   7.651   7.368   0.982  0.1630  0.9003  0.0838
   62MOL    H1829420   7.701   7.277   0.843  0.7410  0.3397 -0.9280
   62MOL    H1929421   7.562   7.416   0.701 -0.5494 -1.5416  0.4454
   62MOL    H2029422   7.466   7.345   0.842  0.2125  1.1801  2.1335
   62MOL    H2129423   7.392   7.767   0.912  0.5462 -1.3738 -0.9435
   62MOL    H2229424   7.331   7.714   1.067  0.9466 -3.2008  1.2320
   62MOL    H2329425   7.183   7.708   0.805  2.7528 -0.3337  0.0527
   62MOL    H2429426   7.138   7.594   0.932  1.4968 -1.0257  0.0772
   62MOL    H2529427   0.168   7.560   0.850 -0.0073 -1.0477  2.1693
   62MOL    O2629428   7.135   7.832   1.102  0.9330 -0.0150 -0.7740
   62MOL    C2729429   7.080   0.077   1.150 -0.1288 -0.3228 -1.6155
   62MOL    C2829430   7.126   0.097   1.300  0.4684 -0.4657 -0.1145
   62MOL    C2929431   7.267   0.047   1.328  0.0824  0.2639 -0.1354
   62MOL    C3029432   7.311   0.087   1.473  0.6841 -0.3842 -0.1133
   62MOL    O3129433   7.236   0.010   1.566  0.5648 -0.3743 -0.2655
   62MOL    C3229434   7.267   0.028   1.691 -0.1243  0.2177 -0.3449
   62MOL    O3329435   7.345   0.113   1.740  1.0079  0.4136 -0.1459
   62MOL    C3429436   7.202   7.797   1.778  0.1221 -0.2901 -0.1173
   62MOL    C3529437   7.062   7.838   1.805  0.9128 -0.2600 -0.0865
   62MOL    C3629438   7.002   7.773   1.937  0.5530  0.2289  0.3288
   62MOL    O3729439   6.899   7.704   1.932 -0.2769  0.3102  0.8808
   62MOL    H3829440   7.117   0.148   1.076 -2.9378  0.6294 -2.1954
   62MOL    H3929441   6.972   0.094   1.157 -0.1014 -1.1384  1.5525
   62MOL    H4029442   7.059   0.038   1.362  1.8331 -1.9248 -0.0285
   62MOL    H4129443   7.107   0.202   1.322 -0.7981 -0.4200 -1.3482
   62MOL    H4229444   7.337   0.086   1.255 -0.2321 -0.3437 -0.7744
   62MOL    H4329445   7.267   7.812   1.327  0.2430  0.1860  3.0489
   62MOL    H4429446   7.418   0.069   1.483  0.9988  2.0561  1.4571
   62MOL    H4529447   7.290   0.192   1.495 -1.8481 -0.7749 -0.4687
   62MOL    H4629448   7.242   7.772   1.877 -3.9402 -4.7723  0.5321
   62MOL    H4729449   7.209   7.707   1.718  0.4104 -2.3766  2.9196
   62MOL    H4829450   7.048   0.071   1.812 -0.3784 -0.2924 -1.8689
   62MOL    H4929451   6.989   7.810   1.730  3.0315 -0.1861 -2.2233
   62MOL    O5029452   7.091   7.786   2.043 -0.2266 -0.1806 -0.1503
   62MOL    C5129453   7.061   7.723   2.171 -0.2049  0.2835  0.5529
   62MOL    C5229454   7.126   7.815   2.277 -0.5745  0.1730  0.1493
   62MOL    C5329455   7.099   7.766   2.415  0.8820 -0.5239 -0.1218
   62MOL    C5429456   7.188   7.833   2.516 -0.1535 -0.0738  0.0001
   62MOL    O5529457   7.161   0.092   2.538 -0.0101 -0.4390  0.3924
   62MOL    C5629458   7.051   0.126   2.610 -0.1941  0.1621 -0.0174
   62MOL    O5729459   6.983   0.048   2.681 -0.1879 -0.1670  0.7247
   62MOL    C5829460   7.006   0.272   2.595 -0.4238 -0.3256 -0.4840
   62MOL    C5929461   7.102   0.342   2.690 -0.3806  0.4808 -0.1138
   62MOL    C6029462   7.112   0.492   2.671  0.2270  0.7551  0.5213
   62MOL    O6129463   7.029   0.573   2.715 -0.5018 -0.0892 -0.3731
   62MOL    H6229464   6.958   7.697   2.195 -1.6908  2.2821 -3.2684
   62MOL    H6329465   7.109   7.625   2.171 -2.0298 -0.6345  2.5830
   62MOL    H6429466   7.091   0.042   2.257  1.0193  1.2404  2.5677
   62MOL    H6529467   7.228   7.816   2.240 -0.4485 -0.4256  0.4678
   62MOL    H6629468   7.109   7.658   2.410  0.5017 -0.5176 -1.1999
   62MOL    H6729469   6.994   7.776   2.441  0.2366  0.3175 -2.8661
   62MOL    H6829470   7.169   7.779   2.608  3.0836 -0.0246  0.7601
   62MOL    H6929471   7.293   7.811   2.494  0.4038  1.4325  1.0876
   62MOL    H7029472   6.900   0.278   2.620  0.2041 -1.0254  2.5648
   62MOL    H7129473   7.018   0.299   2.490 -0.8967  3.8584  0.4561
   62MOL    H7229474   7.068   0.334   2.793 -1.8129 -2.2424 -0.7512
   62MOL    H7329475   7.206   0.307   2.688  0.2245  1.8973  3.2479
   62MOL    O7429476   7.204   0.517   2.577 -0.3053  0.1214  0.2528
   62MOL    C7529477   7.230   0.649   2.532 -0.1254 -0.6768  0.9993
   62MOL    C7629478   7.319   0.733   2.624 -0.3946 -0.4268  0.5460
   62MOL    C7729479   7.247   0.797   2.746 -0.5381  0.6431  0.4374
   62MOL    C7829480   7.121   0.882   2.717  0.4035 -0.1753 -0.3787
   62MOL    O7929481   7.058   0.933   2.832  0.3277  0.4454 -0.2841
   62MOL    C8029482   6.983   1.045   2.839 -0.0681 -0.3813  0.1088
   62MOL    O8129483   6.934   1.113   2.743  0.2673  0.6970  0.3458
   62MOL    C8229484   6.971   1.095   2.983 -0.1041  0.4277 -0.0520
   62MOL    C8329485   6.868   1.023   3.061 -0.1462  0.0962 -0.4096
   62MOL    C8429486   6.735   1.096   3.053 -0.2469  0.5880  0.0296
   62MOL    O8529487   6.721   1.207   3.111 -0.1230  0.1500 -0.0400
   62MOL    H8629488   7.277   0.622   2.438  0.8249 -0.2319  1.3422
   62MOL    H8729489   7.141   0.702   2.497  0.7972  1.4645  1.7914
   62MOL    H8829490   7.353   0.813   2.558 -0.6109 -1.7042 -1.1383
   62MOL    H8929491   7.406   0.678   2.660  0.1852 -0.5730 -1.0294
   62MOL    H9029492   7.317   0.855   2.806 -0.3468  0.2510  0.5984
   62MOL    H9129493   7.219   0.719   2.817 -1.4055  0.7086  0.1630
   62MOL    H9229494   7.146   0.962   2.647  2.1422  0.8822  1.4304
   62MOL    H9329495   7.045   0.822   2.667 -0.4167  1.0991 -0.6957
   62MOL    H9429496   6.961   1.204   2.978  3.1790  0.8778  1.7594
   62MOL    H9529497   7.069   1.062   3.016 -0.3488 -1.2490 -0.9289
   62MOL    H9629498   6.852   0.929   3.007 -1.0097  0.7166 -1.2390
   62MOL    H9729499   6.909   0.993   3.158  1.8761 -0.7926 -1.4996
   62MOL    O9829500   6.655   1.036   2.978  0.6475 -0.2994 -0.3095
   62MOL    C9929501   6.532   1.094   2.944 -0.3024  0.4369 -0.0653
   62MOL   C10029502   6.422   1.050   3.046 -0.3745  0.6555 -0.2338
   62MOL   C10129503   6.395   0.902   3.054  0.2071  0.1373  0.2169
   62MOL   C10229504   6.276   0.876   3.137 -0.9009  0.5611 -0.2157
   62MOL   O10329505   6.159   0.894   3.056  0.2767 -0.5321 -0.3552
   62MOL   C10429506   6.085   1.007   3.087  0.0929 -0.5547 -0.4179
   62MOL   O10529507   6.113   1.111   3.148  0.2545  0.3421  0.1359
   62MOL   C10629508   5.958   1.001   3.007 -0.0822 -0.1159  0.3495
   62MOL   C10729509   5.880   1.136   3.001  0.0580  0.0934 -0.0624
   62MOL   C10829510   5.915   1.221   2.883 -0.7879  0.0887  0.2247
   62MOL   O10929511   5.828   1.272   2.813 -0.7840 -0.3820  0.2973
   62MOL   H11029512   6.549   1.201   2.929 -0.1330  0.5824  1.1393
   62MOL   H11129513   6.499   1.069   2.843 -2.5813  2.0398  0.2285
   62MOL   H11229514   6.333   1.107   3.022 -0.2876  0.7223 -0.3968
   62MOL   H11329515   6.445   1.082   3.148  1.9523  1.8219 -1.0986
   62MOL   H11429516   6.482   0.841   3.079  1.3057  1.3010 -0.6930
   62MOL   H11529517   6.372   0.872   2.952  3.3675 -0.8497 -0.2693
   62MOL   H11629518   6.283   0.775   3.178  0.4705 -0.2581 -2.3618
   62MOL   H11729519   6.268   0.948   3.218  0.1845  0.6734 -0.1973
   62MOL   H11829520   5.890   0.930   3.054  0.1586 -0.6376 -0.0758
   62MOL   H11929521   5.959   0.957   2.907  0.3147 -0.2030  0.3941
   62MOL   H12029522   5.777   1.103   2.985  0.0461  0.6526 -1.1801
   62MOL   H12129523   5.889   1.195   3.093 -0.0250 -0.0100  0.0125
   62MOL   O12229524   6.049   1.235   2.850  0.2035  0.4045  0.1641
   62MOL   C12329525   6.085   1.323   2.746  0.1524  0.4251  0.2446
   62MOL   C12429526   6.239   1.313   2.723 -0.4681  0.1586  0.2863
   62MOL   C12529527   6.297   1.388   2.608  0.8309  0.4874  0.3328
   62MOL   C12629528   6.451   1.384   2.596  0.1527  0.7695 -0.4294
   62MOL   O12729529   6.491   1.248   2.588  0.3427 -0.1316 -0.0771
   62MOL   C12829530   6.521   1.194   2.466 -0.3442 -0.1058 -0.6177
   62MOL   O12929531   6.521   1.249   2.358  0.7790 -0.6784 -0.5844
   62MOL   C13029532   6.557   1.044   2.488  0.0723  0.0024 -0.3830
   62MOL   C13129533   6.670   1.001   2.583  0.4183  0.4930 -0.0352
   62MOL   C13229534   6.636   0.881   2.665 -0.5343  0.5954  0.4063
   62MOL   O13329535   6.522   0.838   2.690  0.0995  0.3100  0.6051
   62MOL   H13429536   6.039   1.303   2.649 -0.5501  0.3060  0.6047
   62MOL   H13529537   6.063   1.424   2.779 -0.2770  1.1985 -2.2446
   62MOL   H13629538   6.270   1.209   2.710  1.1858  0.5718  0.8234
   62MOL   H13729539   6.288   1.356   2.811 -0.0917  0.4010 -0.0403
   62MOL   H13829540   6.257   1.489   2.606 -0.8782 -0.1884 -0.6477
   62MOL   H13929541   6.247   1.353   2.518 -0.7254  1.2803  0.8759
   62MOL   H14029542   6.477   1.442   2.507  1.4539  1.6869  0.5319
   62MOL   H14129543   6.488   1.425   2.690  1.5315  0.0730 -0.6680
   62MOL   H14229544   6.572   1.002   2.388  0.0585 -0.4135 -0.2114
   62MOL   H14329545   6.461   1.009   2.525  0.0690 -1.2321 -1.5064
   62MOL   H14429546   6.768   0.978   2.541  0.4131  0.7732 -0.1953
   62MOL   H14529547   6.715   1.077   2.646 -0.9489  1.6179 -0.4097
   62MOL   O14629548   6.749   0.824   2.714  0.1724 -0.0635  0.3321
   62MOL   C14729549   6.733   0.716   2.804 -1.2140 -0.8895 -0.2052
   62MOL   C14829550   6.700   0.588   2.744  0.2737 -0.1252 -0.2837
   62MOL   C14929551   6.704   0.467   2.840 -0.0611 -0.0398 -0.7086
   62MOL   C15029552   6.608   0.466   2.956  0.5169 -0.4223  0.3688
   62MOL   O15129553   6.652   0.537   3.069 -0.6777  0.0974 -1.1891
   62MOL   C15229554   6.568   0.573   3.165 -0.3090 -0.4856  0.3033
   62MOL   O15329555   6.443   0.578   3.158  0.7102 -0.4809  0.1660
   62MOL   C15429556   6.641   0.619   3.293 -0.2931  0.6461  0.0361
   62MOL   C15529557   6.688   0.762   3.271  0.1210  0.5545  0.6547
   62MOL   C15629558   6.597   0.865   3.348 -1.1135 -0.3586 -0.8388
   62MOL   O15729559   6.489   0.837   3.411 -0.4769  0.9019  0.1136
   62MOL   H15829560   6.829   0.698   2.852 -1.3906 -0.1114  0.4382
   62MOL   H15929561   6.676   0.738   2.894 -1.2612  1.3521 -0.7568
   62MOL   H16029562   6.777   0.555   2.674 -1.1645 -2.4542 -0.8235
   62MOL   H16129563   6.609   0.596   2.685 -0.1399  0.1271  0.3786
   62MOL   H16229564   6.805   0.431   2.858  1.0520  1.8305 -2.9371
   62MOL   H16329565   6.666   0.387   2.777  0.2429 -0.2986 -0.5647
   62MOL   H16429566   6.513   0.506   2.921  2.2121  1.4038 -2.3108
   62MOL   H16529567   6.592   0.363   2.987 -1.6980  0.4841  2.4999
   62MOL   H16629568   6.727   0.557   3.318 -0.1155  1.3830  1.2496
   62MOL   H16729569   6.576   0.611   3.380  1.2454  1.2128  1.2414
   62MOL   H16829570   6.787   0.768   3.314  0.9876  0.4428 -1.2893
   62MOL   H16929571   6.699   0.790   3.166 -0.3646 -2.4468 -0.2672
   62MOL   O17029572   6.651   0.987   3.339 -0.5665  0.5658 -0.0097
   62MOL   C17129573   6.603   1.085   3.425 -0.1618 -0.6160 -0.7527
   62MOL   C17229574   6.655   1.060   3.569 -0.0595  0.2917 -0.7595
   62MOL   C17329575   6.618   1.173   3.671 -1.0891 -0.0624  0.1099
   62MOL   C17429576   6.699   1.295   3.641 -0.6919 -0.0480  0.2764
   62MOL   O17529577   6.651   1.404   3.711 -0.3953  0.5225  0.3542
   62MOL   C17629578   6.722   1.472   3.805 -0.3913 -0.3685  0.9366
   62MOL   O17729579   6.843   1.463   3.838 -0.3012 -0.0850  0.3949
   62MOL   C17829580   6.630   1.567   3.884 -0.4766  1.1622  0.2475
   62MOL   C17929581   6.519   1.488   3.956 -0.3899  0.2729  0.0262
   62MOL   C18029582   6.381   1.528   3.896 -0.0778 -0.1524 -0.1626
   62MOL   O18129583   6.289   1.553   3.975  0.3452  0.8395  0.0127
   62MOL   H18229584   6.651   1.180   3.401 -0.7297 -0.0074  0.5130
   62MOL   H18329585   6.495   1.096   3.418 -0.2369 -0.0576  1.0723
   62MOL   H18429586   6.761   1.035   3.565  0.6346  2.9151 -0.3320
   62MOL   H18529587   6.603   0.970   3.602 -1.3075  0.6863 -1.6209
   62MOL   H18629588   6.642   1.149   3.775 -0.8130 -1.3269 -0.2426
   62MOL   H18729589   6.513   1.203   3.667 -1.0299  0.1142 -0.0879
   62MOL   H18829590   6.806   1.283   3.655 -0.7257 -0.7210 -0.0102
   62MOL   H18929591   6.692   1.330   3.538  1.4016  0.8504  0.4194
   62MOL   H19029592   6.581   1.647   3.829 -1.4843  1.0262  0.9318
   62MOL   H19129593   6.680   1.618   3.966 -2.2493  0.5677  1.7394
   62MOL   H19229594   6.516   1.380   3.944 -0.0998  0.2874 -0.1946
   62MOL   H19329595   6.528   1.506   4.063 -2.2479 -1.8480  0.5740
   62MOL   O19429596   6.380   1.550   3.766  0.1207  0.4138  0.0984
   62MOL   C19529597   6.256   1.558   3.690  0.6069  0.4117 -1.3254
   62MOL   C19629598   6.211   1.428   3.620  0.3743  0.1354 -0.2383
   62MOL   C19729599   6.322   1.379   3.521  0.8586 -0.1552 -0.9608
   62MOL   C19829600   6.283   1.258   3.430  0.3283 -0.0176  0.0330
   62MOL   O19929601   6.267   1.131   3.494 -0.1137  0.1149 -0.5173
   62MOL   C20029602   6.141   1.084   3.522 -0.2166  0.2345 -0.1471
   62MOL   O20129603   6.043   1.150   3.490 -0.0413  0.0283 -0.1635
   62MOL   C20229604   6.139   0.941   3.577  0.5491  0.4014 -0.0274
   62MOL   C20329605   6.261   0.908   3.662  0.3405 -0.4368 -0.5304
   62MOL   C20429606   6.239   0.954   3.809 -0.2976  0.1051  0.6798
   62MOL   O20529607   6.193   0.879   3.897 -0.6163  0.0943  0.5315
   62MOL   H20629608   6.170   1.602   3.740 -0.0655 -0.4823 -1.6949
   62MOL   H20729609   6.271   1.632   3.610 -0.1134  1.5858 -0.3958
   62MOL   H20829610   6.120   1.438   3.560  0.5344 -2.8113 -1.0817
   62MOL   H20929611   6.179   1.346   3.685 -1.6857  1.3794  0.3699
   62MOL   H21029612   6.406   1.362   3.588 -0.9252 -0.2808  1.3129
   62MOL   H21129613   6.365   1.464   3.469 -0.2090  2.2076  1.9219
   62MOL   H21229614   6.199   1.295   3.370  2.0560  1.7938 -1.3142
   62MOL   H21329615   6.358   1.249   3.351 -0.5343  0.9485 -0.9098
   62MOL   H21429616   6.121   0.873   3.494 -1.8399  0.5975  0.3091
   62MOL   H21529617   6.050   0.934   3.640  1.4095  1.5951  1.3541
   62MOL   H21629618   6.269   0.799   3.661 -0.1151 -0.4730 -1.4499
   62MOL   H21729619   6.353   0.946   3.618  0.3655  0.5394  0.3666
   62MOL   O21829620   6.286   1.082   3.823 -0.8732  0.2501 -0.0627
   62MOL   C21929621   6.285   1.146   3.948  0.0097 -0.5148  0.3373
   62MOL   C22029622   6.411   1.129   4.025 -0.5015  0.0303  0.1399
   62MOL   C22129623   6.404   1.198   4.156 -0.4846 -0.0790  0.1312
   62MOL   C22229624   6.531   1.174   4.243  0.0248  0.7482 -0.1117
   62MOL   O22329625   6.642   1.231   4.186  0.6266 -0.0229  0.0427
   62MOL   C22429626   6.750   1.250   4.258  1.2472  0.0011 -0.0610
   62MOL   O22529627   6.755   1.246   4.384  0.0430  0.4988 -0.3927
   62MOL   C22629628   6.867   1.274   4.159  0.3542  0.0373  0.2775
   62MOL   C22729629   7.006   1.259   4.218  0.3220 -0.2127 -0.0727
   62MOL   C22829630   7.040   1.109   4.231 -0.6546 -0.6005  0.1013
   62MOL   O22929631   7.136   1.070   4.169  0.2489  0.5061  0.1680
   62MOL   H23029632   6.265   1.251   3.930 -0.7966 -0.6081  0.6452
   62MOL   H23129633   6.202   1.098   4.001  0.5375 -0.3171  1.3569
   62MOL   H23229634   6.500   1.165   3.973 -0.5817  2.9375  1.8860
   62MOL   H23329635   6.419   1.022   4.042 -2.2806  0.0362  1.1159
   62MOL   H23429636   6.318   1.161   4.211 -0.0949 -0.2334  0.6418
   62MOL   H23529637   6.385   1.306   4.157  1.3195  0.2498  0.5943
   62MOL   H23629638   6.520   1.233   4.334  0.1624 -0.0897  0.4532
   62MOL   H23729639   6.545   1.066   4.253  0.0653  0.5537 -2.1303
   62MOL   H23829640   6.866   1.374   4.115  0.6759 -0.8269 -1.7167
   62MOL   H23929641   6.851   1.204   4.077 -1.0368  0.5109  0.1286
   62MOL   H24029642   7.073   1.304   4.144 -1.7667  1.8222 -0.8016
   62MOL   H24129643   7.016   1.312   4.313  0.1836  0.5786 -0.4947
   62MOL   O24229644   6.969   1.037   4.314  0.0115  0.0990 -0.2206
   62MOL   C24329645   7.012   0.910   4.348 -0.9179 -0.5054 -0.4802
   62MOL   C24429646   6.903   0.842   4.438 -0.2591  0.5143  0.0972
   62MOL   C24529647   6.913   0.686   4.418  0.1957 -0.5453 -0.1252
   62MOL   C24629648   6.807   0.614   4.497 -0.3828  0.5422 -0.3621
   62MOL   O24729649   6.831   0.472   4.495 -0.0977 -0.4350 -0.9382
   62MOL   C24829650   6.796   0.397   4.390  0.3155  0.3009 -0.3493
   62MOL   O24929651   6.741   0.444   4.290 -0.3943 -0.4237 -0.0562
   62MOL   C25029652   6.819   0.242   4.402  0.3097 -0.3766  0.3051
   62MOL   C25129653   6.956   0.219   4.459 -0.6236 -0.6156 -0.5249
   62MOL   C25229654   6.993   0.077   4.507  0.5162 -0.4049  0.2177
   62MOL   O25329655   7.005   7.856   4.429  0.1593 -0.1218  0.0119
   62MOL   H25429656   7.041   0.856   4.258  1.6393  0.9903 -0.5927
   62MOL   H25529657   7.103   0.913   4.408 -0.8714  0.8403 -0.6072
   62MOL   H25629658   6.803   0.883   4.425 -0.4079 -0.3534 -1.6564
   62MOL   H25729659   6.928   0.859   4.543 -0.5685 -2.8210  0.7791
   62MOL   H25829660   7.010   0.666   4.464  1.2468  3.3042 -0.5239
   62MOL   H25929661   6.913   0.660   4.312  0.9176 -0.8450 -0.0531
   62MOL   H26029662   6.799   0.647   4.600  0.7139 -0.4299  0.0403
   62MOL   H26129663   6.706   0.633   4.459 -0.3557 -0.3152 -0.8717
   62MOL   H26229664   6.814   0.205   4.299 -0.4387  1.2301 -0.2671
   62MOL   H26329665   6.736   0.194   4.454  0.4815 -0.4342  0.5234
   62MOL   H26429666   7.032   0.261   4.393 -0.6089  0.0241 -0.1013
   62MOL   H26529667   6.974   0.282   4.545  0.3608 -0.9321 -0.4937
   62MOL   O26629668   7.024   0.072   4.638  0.1389 -0.1080 -0.4251
   62MOL   C26729669   7.079   7.832   4.692  0.8188 -0.1587  0.4464
   62MOL   C26829670   7.205   7.863   4.769 -0.8775  0.4381  0.2899
   62MOL   C26929671   7.307   0.075   4.695  0.0463  0.5056  0.3314
   62MOL   C27029672   7.435   0.093   4.776 -0.2238  0.2723 -0.6485
   62MOL   O27129673   7.514   0.208   4.734 -0.6913  0.5698  0.0424
   62MOL   C27229674   7.596   0.200   4.633 -0.0208 -0.2821  0.1182
   62MOL   O27329675   7.622   0.098   4.567 -0.7201  0.3562 -0.3122
   62MOL   C27429676   7.676   0.332   4.634 -0.0866 -0.1427 -1.1110
   62MOL   C27529677   7.773   0.351   4.749 -0.7307 -0.0080 -0.4916
   62MOL   C27629678   7.723   0.471   4.827  0.0861  0.0896 -0.0042
   62MOL   O27729679   7.784   0.577   4.822  0.5807  0.6322 -0.1156
   62MOL   H27829680   7.010   7.795   4.768  1.4869 -2.3956  0.0077
   62MOL   H27929681   7.089   7.748   4.624  2.0077 -0.0255  0.4542
   62MOL   H28029682   7.238   7.759   4.771 -1.4073  0.1972 -2.0798
   62MOL   H28129683   7.171   0.019   4.868 -1.6038 -0.2082  0.2357
   62MOL   H28229684   7.263   0.174   4.680  1.1379  0.7416 -1.4698
   62MOL   H28329685   7.319   0.038   4.594  1.4621  1.7350  0.0284
   62MOL   H28429686   7.418   0.122   4.880 -3.5907  0.3332 -1.1646
   62MOL   H28529687   7.492   0.000   4.780  0.9367  1.0326  1.2184
   62MOL   H28629688   7.596   0.406   4.626 -0.9137 -0.7834  0.8626
   62MOL   H28729689   7.739   0.341   4.545  2.1798 -1.0711  0.3647
   62MOL   H28829690   7.781   0.259   4.806  0.0157 -0.2956 -1.0399
   62MOL   H28929691   7.867   0.376   4.699 -0.8882  0.5946 -0.4869
   62MOL   O29029692   7.613   0.453   4.893 -0.1029  0.5453  0.3017
   62MOL   C29129693   7.574   0.548   4.989 -0.0527 -0.0101 -0.2002
   62MOL   C29229694   7.425   0.507   5.029  0.5642  0.8610  0.3975
   62MOL   C29329695   7.364   0.606   5.133  0.5126  0.8267 -0.3175
   62MOL   C29429696   7.229   0.556   5.179 -0.5194 -0.4879 -0.3468
   62MOL   O29529697   7.172   0.659   5.253  0.2067  0.7222 -0.7180
   62MOL   C29629698   7.041   0.660   5.269 -0.1831 -0.1424 -0.2200
   62MOL   O29729699   6.962   0.580   5.222 -0.2218 -0.3549  0.5973
   62MOL   C29829700   6.987   0.779   5.344  0.6582  0.1447 -0.1364
   62MOL   C29929701   7.079   0.906   5.381  0.3023  0.3184 -0.9729
   62MOL   C30029702   7.143   0.960   5.255 -0.0331  0.2785  0.4030
   62MOL   O30129703   7.268   0.965   5.248 -0.6540  0.3102  0.1570
   62MOL   H30229704   7.646   0.558   5.070 -1.8169 -4.4833  2.0770
   62MOL   H30329705   7.571   0.649   4.949 -3.8332  0.9175  2.2240
   62MOL   H30429706   7.416   0.403   5.061 -2.6917  0.6860 -0.9195
   62MOL   H30529707   7.368   0.514   4.937 -0.9796 -0.7221  1.2176
   62MOL   H30629708   7.357   0.711   5.104 -0.2260  0.8734  0.0009
   62MOL   H30729709   7.430   0.614   5.220 -0.1310  0.5431  0.2027
   62MOL   H30829710   7.169   0.534   5.090  1.4166 -0.0550 -1.8022
   62MOL   H30929711   7.232   0.463   5.236  0.0921 -0.4209 -0.2724
   62MOL   H31029712   6.939   0.728   5.428 -2.4648  0.9483 -1.3727
   62MOL   H31129713   6.919   0.826   5.273 -1.1062 -0.8174  0.8638
   62MOL   H31229714   7.011   0.985   5.413  0.7212  0.6507 -0.9018
   62MOL   H31329715   7.145   0.883   5.465  0.4633  1.9409 -0.6272
   62MOL   O31429716   7.057   0.989   5.156  0.2518  0.0289  0.3223
   62MOL   C31529717   7.108   1.024   5.036  0.4208  0.4456 -0.4567
   62MOL   C31629718   7.125   0.907   4.937 -0.2024  0.6847  0.1782
   62MOL   C31729719   6.992   0.844   4.905 -0.1667  0.6946  0.2684
   62MOL   C31829720   6.993   0.694   4.854 -0.3933  0.1429  0.3547
   62MOL   O31929721   7.105   0.673   4.773  0.6256  0.4622  0.2503
   62MOL   C32029722   7.148   0.547   4.759 -0.2535  0.2455  0.7533
   62MOL   O32129723   7.105   0.449   4.812 -0.6552  0.8038 -0.1166
   62MOL   C32229724   7.269   0.538   4.665 -0.0124  0.7599  0.4448
   62MOL   C32329725   7.348   0.671   4.663  0.4315 -0.1645  0.7082
   62MOL   C32429726   7.341   0.750   4.533  0.2946 -0.2213  0.3619
   62MOL   O32529727   7.335   0.870   4.540 -0.6735  0.3822 -0.0698
   62MOL   H32629728   7.040   1.091   4.984 -0.8347  0.1300  0.7391
   62MOL   H32729729   7.201   1.073   5.061  0.7178 -0.9669  1.3062
   62MOL   H32829730   7.188   0.827   4.974  1.4401  1.9345  0.1360
   62MOL   H32929731   7.185   0.944   4.855  0.4772 -1.6998 -0.4244
   62MOL   H33029732   6.934   0.913   4.843 -0.4591 -0.2866 -0.5542
   62MOL   H33129733   6.927   0.848   4.992  0.6432 -0.7732  0.9552
   62MOL   H33229734   6.967   0.619   4.929 -2.4060  3.0864  2.7292
   62MOL   H33329735   6.922   0.673   4.774 -0.6709  1.6581  0.1760
   62MOL   H33429736   7.239   0.512   4.563 -3.9371  0.1283  1.6796
   62MOL   H33529737   7.333   0.457   4.699  1.4461  1.4604 -0.5684
   62MOL   H33629738   7.340   0.740   4.747  1.3230  1.4962 -0.5492
   62MOL   H33729739   7.453   0.645   4.677  1.1324  1.7253 -0.8231
   62MOL   O33829740   7.346   0.670   4.417  0.1423 -0.2394  0.2319
   62MOL   C33929741   7.358   0.737   4.289 -0.1228 -0.0647  0.6090
   62MOL   C34029742   7.323   0.641   4.173  0.4343 -0.2869  0.1500
   62MOL   C34129743   7.175   0.597   4.181 -0.5820  0.4828  0.1917
   62MOL   C34229744   7.144   0.488   4.076 -0.0465  0.0963  0.0579
   62MOL   O34329745   7.008   0.487   4.050 -0.0197 -0.1249  0.1308
   62MOL   C34429746   6.947   0.385   3.974  0.5895 -0.0700 -0.9937
   62MOL   O34529747   7.006   0.297   3.906 -0.1260  0.0504 -0.0177
   62MOL   C34629748   6.797   0.383   3.979 -0.6946 -0.2883 -0.8499
   62MOL   C34729749   6.735   0.379   3.830 -0.4120 -0.5144  0.3818
   62MOL   C34829750   6.598   0.454   3.823  0.7250 -0.1882  0.3810
   62MOL   O34929751   6.539   0.488   3.923 -0.1428  0.4872  0.5046
   62MOL   H35029752   7.292   0.823   4.293  1.5782  1.2779  0.5887
   62MOL   H35129753   7.447   0.799   4.278  0.3899 -0.9710 -0.4485
   62MOL   H35229754   7.399   0.562   4.176 -2.5269 -3.2285  1.1827
   62MOL   H35329755   7.341   0.703   4.085 -1.0684  0.5881  0.4562
   62MOL   H35429756   7.117   0.689   4.173  0.8350  1.7961  3.8101
   62MOL   H35529757   7.146   0.556   4.278 -1.6246  0.5761 -0.0718
   62MOL   H35629758   7.203   0.510   3.986 -0.9571 -1.0249 -0.8233
   62MOL   H35729759   7.173   0.390   4.113 -0.0244  0.3534  0.7269
   62MOL   H35829760   6.767   0.477   4.025  0.6421  0.3067 -1.1668
   62MOL   H35929761   6.771   0.305   4.049  0.5467  2.1565  2.4721
   62MOL   H36029762   6.804   0.420   3.756 -1.3096  1.5175  0.6529
   62MOL   H36129763   6.720   0.272   3.815  0.0379 -0.1643 -2.9515
   62MOL   O36229764   6.554   0.462   3.690 -0.5346  0.4442 -0.3482
   62MOL   C36329765   6.438   0.540   3.660 -0.1138 -0.3576  0.7232
   62MOL   C36429766   6.327   0.447   3.609 -0.6884 -0.1503 -0.5426
   62MOL   C36529767   6.331   0.444   3.453  0.6931  0.1836 -0.9817
   62MOL   C36629768   6.228   0.342   3.396 -0.2146  0.2203 -0.4470
   62MOL   O36729769   6.257   0.331   3.260 -0.3009 -0.0382  0.7624
   62MOL   C36829770   6.199   0.227   3.186 -0.1654  0.2560 -0.5543
   62MOL   O36929771   6.120   0.138   3.225  0.2871  0.0021 -0.2902
   62MOL   C37029772   6.239   0.236   3.044  0.0943  0.2814 -0.1403
   62MOL   C37129773   6.152   0.342   2.976  0.1389 -0.3062  0.0044
   62MOL   C37229774   6.229   0.444   2.879 -0.3661  0.1011  0.1787
   62MOL   O37329775   6.325   0.408   2.807  0.3728  0.1211  0.3803
   62MOL   H37429776   6.407   0.595   3.749  0.8130  0.2827  0.6557
   62MOL   H37529777   6.467   0.617   3.589 -0.8767 -0.5204  0.2249
   62MOL   H37629778   6.233   0.494   3.637 -0.9690 -1.5684  0.9435
   62MOL   H37729779   6.327   0.348   3.654 -0.1075 -0.5178 -1.3449
   62MOL   H37829780   6.433   0.421   3.423  1.4091  0.8134  0.8855
   62MOL   H37929781   6.306   0.544   3.416  1.2873  0.4416 -0.7011
   62MOL   H38029782   6.241   0.252   3.455 -1.1833  1.3524  1.5210
   62MOL   H38129783   6.131   0.389   3.413 -0.3817  0.3134 -1.5762
   62MOL   H38229784   6.222   0.143   2.988  1.6415 -0.2581  0.2617
   62MOL   H38329785   6.344   0.262   3.042  0.4890 -1.2597 -0.3422
   62MOL   H38429786   6.088   0.286   2.908 -1.0402 -0.9957  1.6452
   62MOL   H38529787   6.090   0.399   3.046  0.1352  0.4757 -0.6321
   62MOL   O38629788   6.184   0.572   2.874 -0.4525  0.1048 -0.1807
   62MOL   C38729789   6.244   0.670   2.793 -0.4711 -0.1424  0.5310
   62MOL   C38829790   6.139   0.763   2.726 -0.8323  0.1050 -0.7912
   62MOL   C38929791   6.195   0.862   2.637 -0.2377  0.1242 -0.0610
   62MOL   C39029792   6.083   0.957   2.576  0.1950  0.0525 -0.1801
   62MOL   O39129793   6.144   1.042   2.492 -0.3793  0.1364  0.5378
   62MOL   C39229794   6.172   1.009   2.360  0.3864  0.3136 -0.5170
   62MOL   O39329795   6.139   0.906   2.306  0.4199 -0.1711 -0.0554
   62MOL   C39429796   6.226   1.128   2.287 -0.2836  0.2740  0.8534
   62MOL   C39529797   6.118   1.216   2.216 -0.2250  0.2433  0.4327
   62MOL   C39629798   6.006   1.253   2.312  0.5917  0.2850  0.5717
   62MOL   O39729799   6.027   1.308   2.419  0.1201 -0.1827 -0.2997
   62MOL   H39829800   6.315   0.715   2.863 -1.8117  0.4087  1.5614
   62MOL   H39929801   6.305   0.618   2.719  0.7623  0.3695  1.1780
   62MOL   H40029802   6.079   0.815   2.800 -2.4262 -0.8492 -1.3855
   62MOL   H40129803   6.071   0.710   2.660  1.0216 -1.6585 -1.3609
   62MOL   H40229804   6.246   0.812   2.554 -0.9880 -2.0569  0.7775
   62MOL   H40329805   6.277   0.915   2.685  0.1787 -0.5040 -0.0713
   62MOL   H40429806   6.012   0.895   2.521 -0.7833 -0.3206  1.4536
   62MOL   H40529807   6.023   1.007   2.652  1.5481  1.5402 -0.0802
   62MOL   H40629808   6.309   1.114   2.219 -0.6780  1.6619  0.0486
   62MOL   H40729809   6.269   1.187   2.368 -1.3216  1.9127  0.2646
   62MOL   H40829810   6.172   1.308   2.195  0.5184  0.1079  1.6859
   62MOL   H40929811   6.078   1.174   2.124 -1.0300 -0.1010  0.9322
   62MOL   O41029812   5.880   1.221   2.273  0.5328 -0.3220 -0.0190
   62MOL   C41129813   5.769   1.242   2.356  0.3995 -0.3466  0.4994
   62MOL   C41229814   5.749   1.110   2.427 -0.0891 -0.1336 -0.4331
   62MOL   C41329815   5.638   1.113   2.527 -0.0811  0.3110 -0.1578
   62MOL   C41429816   5.657   1.036   2.657  0.4595  0.8563  0.2413
   62MOL   O41529817   5.645   0.897   2.636 -0.9229  0.5166  0.1956
   62MOL   C41629818   5.696   0.813   2.728 -0.0853 -0.3385 -0.3275
   62MOL   O41729819   5.761   0.849   2.824  0.1822 -0.3124  0.3803
   62MOL   C41829820   5.676   0.665   2.684 -0.4459  0.2970  0.4443
   62MOL   C41929821   5.796   0.576   2.702  0.7367 -0.2849 -0.3216
   62MOL   C42029822   5.759   0.425   2.738  0.4004 -0.6465  0.4117
   62MOL   O42129823   5.648   0.378   2.730  0.2529  0.0166  0.1453
   62MOL   H42229824   5.778   1.325   2.425  1.2518  0.5379 -0.6498
   62MOL   H42329825   5.683   1.261   2.292  0.0817  1.5250  1.4430
   62MOL   H42429826   5.834   1.083   2.489 -2.0256 -2.5607  1.2593
   62MOL   H42529827   5.733   1.030   2.355  0.1115  1.5884 -2.4438
   62MOL   H42629828   5.536   1.103   2.489 -0.9960  0.5708  2.1870
   62MOL   H42729829   5.639   1.215   2.564  2.0641 -0.4900  2.1042
   62MOL   H42829830   5.754   1.058   2.701  0.8099 -2.7268  1.3928
   62MOL   H42929831   5.579   1.064   2.728  0.4436  2.2699 -0.3288
   62MOL   H43029832   5.645   0.649   2.581  2.3963 -0.4768 -0.3371
   62MOL   H43129833   5.590   0.630   2.741 -1.9058 -1.1453 -2.5439
   62MOL   H43229834   5.857   0.571   2.612  0.1726 -1.2926 -0.6603
   62MOL   H43329835   5.865   0.623   2.772  2.2199 -3.3862  0.4085
   62MOL   O43429836   5.872   0.359   2.761 -0.2101 -0.0648  0.3542
   62MOL   C43529837   5.868   0.216   2.773 -0.1221  0.9844 -0.1059
   62MOL   C43629838   5.879   0.136   2.643  0.6238  0.7587 -0.5428
   62MOL   C43729839   6.002   0.184   2.567  0.4646 -0.2144  0.1628
   62MOL   C43829840   6.009   0.114   2.439  0.3502  1.1044  0.1976
   62MOL   O43929841   6.116   0.150   2.353  0.2204 -0.2725  0.1356
   62MOL   C44029842   6.132   0.073   2.240 -0.1687  0.5878  0.3206
   62MOL   O44129843   6.064   7.848   2.208  0.4002 -0.0988  0.1040
   62MOL   C44229844   6.243   0.121   2.147  0.0763  0.1765  0.1892
   62MOL   C44329845   6.289   0.009   2.056 -0.9136 -0.1716 -0.5437
   62MOL   C44429846   6.436   0.029   2.009  0.0532 -0.1542  0.1817
   62MOL   O44529847   6.525   0.075   2.084  0.3036 -0.2516  0.2853
   62MOL   H44629848   5.945   0.169   2.834 -1.4410 -1.0194  0.0607
   62MOL   H44729849   5.781   0.189   2.832 -0.1483 -0.3268 -0.7404
   62MOL   H44829850   5.795   0.152   2.576  0.6235  3.1028 -0.0191
   62MOL   H44929851   5.872   0.028   2.658  0.2710  0.6760 -1.2640
   62MOL   H45029852   6.079   0.172   2.643  0.9049 -0.0773 -0.2573
   62MOL   H45129853   6.014   0.291   2.548 -0.0464  0.1067  1.6050
   62MOL   H45229854   6.001   0.005   2.449  0.9629  0.8089 -2.1789
   62MOL   H45329855   5.925   0.143   2.377  0.8022 -0.0386 -0.9835
   62MOL   H45429856   6.318   0.158   2.217  0.5946 -2.6320  1.1876
   62MOL   H45529857   6.217   0.206   2.085 -3.9641 -0.9715  0.1482
   62MOL   H45629858   6.291   7.790   2.111  0.9981  0.0800 -0.1669
   62MOL   H45729859   6.226   0.003   1.967 -3.9604 -2.8942  1.6488
   62MOL   O45829860   6.455   7.861   1.880 -0.3636  0.0241  0.4492
   62MOL   C45929861   6.587   7.819   1.836  0.3471  0.6413  0.5662
   62MOL   C46029862   6.555   7.696   1.737  0.1060 -0.2529 -0.1565
   62MOL   C46129863   6.676   7.660   1.669  0.1351 -0.0690  0.2158
   62MOL   C46229864   6.674   7.540   1.573 -0.1150 -0.1493 -0.4697
   62MOL   O46329865   6.803   7.512   1.537  0.3377  0.0999  1.2804
   62MOL   C46429866   6.832   7.503   1.407  0.6468 -0.1176  0.0922
   62MOL   O46529867   6.758   7.506   1.306 -0.0761  0.2540  0.7713
   62MOL   C46629868   6.984   7.504   1.395  0.3187  0.3809  0.0241
   62MOL   C46729869   7.039   7.516   1.251 -0.0512 -0.1535 -0.2072
   62MOL   C46829870   7.188   7.537   1.271 -0.0666  0.6314 -0.3185
   62MOL   O46929871   7.245   7.521   1.378  0.5430 -0.0720 -0.0177
   62MOL   H47029872   6.637   0.023   1.780  3.4937 -0.5032  1.6654
   62MOL   H47129873   6.646   7.799   1.926  1.3282 -0.3690 -0.2901
   62MOL   H47229874   6.480   7.732   1.666  1.0877  0.3878 -0.8877
   62MOL   H47329875   6.520   7.611   1.796  1.3299 -1.4057 -1.0699
   62MOL   H47429876   6.746   7.640   1.750  0.2936 -2.9714 -0.5624
   62MOL   H47529877   6.714   7.744   1.611  0.6317  0.4584  1.2884
   62MOL   H47629878   6.640   7.447   1.619  1.5897  0.2366  1.6271
   62MOL   H47729879   6.614   7.566   1.486  0.6708  1.9258 -0.4073
   62MOL   H47829880   7.020   7.416   1.449 -3.5664 -0.7575  0.9532
   62MOL   H47929881   7.027   7.584   1.455 -0.1493  1.7950 -1.4863
   62MOL   H48029882   7.019   7.423   1.198  0.8529 -0.4019 -0.1202
   62MOL   H48129883   6.998   7.603   1.200  0.1551  0.8655  1.3453
   62MOL   H48229884   7.241   7.584   1.188 -0.0301 -0.6940 -1.0703
   63MOL     O129885   6.251   6.312   1.186  0.3412  0.6376 -0.2769
   63MOL     C229886   6.131   6.315   1.263  0.0190 -0.1190  0.0601
   63MOL     C329887   5.989   6.296   1.192  0.3367  0.8168 -0.1096
   63MOL     C429888   5.888   6.250   1.292  0.0816 -0.4620 -0.1095
   63MOL     C529889   5.750   6.225   1.229 -0.8014 -0.5364 -0.1117
   63MOL     O629890   5.755   6.109   1.138  0.2976 -0.0379 -0.5153
   63MOL     C729891   5.693   6.105   1.026 -0.3283 -0.4383  0.2759
   63MOL     O829892   5.627   6.198   0.979  0.6028 -0.5543 -0.5163
   63MOL     C929893   5.724   5.979   0.952 -0.4002 -0.3958  0.3086
   63MOL    C1029894   5.686   5.855   1.031 -0.0785  0.2280  0.5954
   63MOL    C1129895   5.576   5.792   0.958 -0.1143 -0.7779 -0.1247
   63MOL    O1229896   5.587   5.679   0.906 -0.0469 -0.2811 -0.1501
   63MOL    H1329897   6.148   6.245   1.345 -0.7620 -0.8821 -0.4205
   63MOL    H1429898   6.134   6.408   1.320  0.6705  0.2091 -0.5058
   63MOL    H1529899   6.006   6.221   1.115  2.9300  0.0888  1.1272
   63MOL    H1629900   5.956   6.384   1.137 -1.3145 -0.7035 -1.6498
   63MOL    H1729901   5.877   6.335   1.359 -0.6749  0.6716 -1.6407
   63MOL    H1829902   5.925   6.164   1.348 -1.9374 -1.7582 -0.7123
   63MOL    H1929903   5.665   6.221   1.297  0.0652 -1.9909  0.9274
   63MOL    H2029904   5.730   6.319   1.177 -0.6529 -0.8654 -0.7799
   63MOL    H2129905   5.830   5.981   0.927 -0.0630 -2.3394  1.4669
   63MOL    H2229906   5.674   5.989   0.855  0.0370  2.1210  0.3079
   63MOL    H2329907   5.771   5.792   1.055  0.8428  2.0334  2.1538
   63MOL    H2429908   5.652   5.880   1.131  3.9320 -2.2317  2.6722
   63MOL    H2529909   6.248   6.395   1.140  0.1200  0.2225 -1.0086
   63MOL    O2629910   5.460   5.864   0.962  0.1613  0.0204 -0.0189
   63MOL    C2729911   5.347   5.813   0.894 -0.1886  0.8137  0.0335
   63MOL    C2829912   5.353   5.833   0.741 -0.1300  0.3637 -0.5407
   63MOL    C2929913   5.309   5.971   0.709 -0.5197 -0.7895 -0.2656
   63MOL    C3029914   5.414   6.079   0.756 -0.0763 -0.0978 -0.1377
   63MOL    O3129915   5.386   6.198   0.685 -0.8325  0.4677  0.0809
   63MOL    C3229916   5.303   6.286   0.745  0.1582 -0.2676 -0.3647
   63MOL    O3329917   5.262   6.272   0.857  0.0999  0.4677 -0.4301
   63MOL    C3429918   5.268   6.401   0.656  0.3507  0.8038 -0.4911
   63MOL    C3529919   5.165   6.495   0.717  0.2472 -0.1351  0.2195
   63MOL    C3629920   5.206   6.645   0.719 -0.2124  0.1973 -0.0090
   63MOL    O3729921   5.293   6.692   0.650  0.4385 -0.1588  0.8889
   63MOL    H3829922   5.331   5.709   0.922  0.3726  0.0343 -2.4291
   63MOL    H3929923   5.261   5.863   0.940 -0.0233  2.0174 -0.9278
   63MOL    H4029924   5.282   5.771   0.688 -0.2093 -2.2125  2.4368
   63MOL    H4129925   5.457   5.818   0.711 -0.3724 -0.6012 -0.8887
   63MOL    H4229926   5.207   5.996   0.741 -0.3386 -0.2587 -0.1024
   63MOL    H4329927   5.305   5.986   0.601 -0.1989  0.3423 -0.1267
   63MOL    H4429928   5.410   6.097   0.863  1.1178  4.2752 -0.7305
   63MOL    H4529929   5.514   6.050   0.724  0.4137  1.1625  0.1856
   63MOL    H4629930   5.227   6.362   0.563  1.0609 -0.8954 -0.1157
   63MOL    H4729931   5.358   6.459   0.639  0.8677  0.6339  1.5089
   63MOL    H4829932   5.072   6.495   0.660 -0.0349  2.9557  0.5888
   63MOL    H4929933   5.135   6.464   0.817  0.2242  0.7055  0.4772
   63MOL    O5029934   5.127   6.709   0.804 -0.9006 -0.9679 -0.1364
   63MOL    C5129935   5.159   6.848   0.835  0.0434  0.1710 -0.4058
   63MOL    C5229936   5.103   6.893   0.972 -0.8249  0.3047  0.3613
   63MOL    C5329937   4.956   6.915   0.958  0.3392 -0.2046 -0.3384
   63MOL    C5429938   4.881   6.962   1.086 -0.2643 -0.4856 -0.3910
   63MOL    O5529939   4.742   6.947   1.053  0.4892 -0.0363  0.2152
   63MOL    C5629940   4.650   7.030   1.093 -0.5344  0.1018  0.3586
   63MOL    O5729941   4.671   7.123   1.171  0.1626 -0.0429  0.1196
   63MOL    C5829942   4.514   6.994   1.038 -0.3592  0.3742  0.4937
   63MOL    C5929943   4.400   7.087   1.081 -0.7305 -0.1351  0.6347
   63MOL    C6029944   4.364   7.191   0.973  0.2316 -0.0124 -0.1581
   63MOL    O6129945   4.411   7.302   0.970 -0.5334 -0.3448  0.4253
   63MOL    H6229946   5.267   6.858   0.841  0.0470  0.0921 -0.3519
   63MOL    H6329947   5.122   6.909   0.753  0.6391 -0.4944 -1.1868
   63MOL    H6429948   5.155   6.984   1.001  1.0752 -0.7762  0.4257
   63MOL    H6529949   5.121   6.819   1.050  4.7907  0.0038 -1.0288
   63MOL    H6629950   4.904   6.828   0.917  0.1830 -0.9591  1.4231
   63MOL    H6729951   4.938   6.986   0.877 -0.5255 -0.4350 -0.3516
   63MOL    H6829952   4.889   6.900   1.175 -1.1537 -1.0517 -0.7015
   63MOL    H6929953   4.911   7.061   1.120 -1.8490 -0.7933  2.0256
   63MOL    H7029954   4.502   6.897   1.087  0.7938  0.0267  0.1030
   63MOL    H7129955   4.518   6.976   0.931 -1.0716 -1.3674  0.7464
   63MOL    H7229956   4.315   7.022   1.103 -0.7497 -0.7727 -1.1696
   63MOL    H7329957   4.422   7.143   1.171  0.1838  1.2999 -0.4573
   63MOL    O7429958   4.270   7.142   0.888  0.2656  0.2069 -0.2286
   63MOL    C7529959   4.220   7.214   0.778  0.0132 -0.4043  0.2044
   63MOL    C7629960   4.318   7.214   0.660 -0.3158  0.0791 -0.2658
   63MOL    C7729961   4.270   7.281   0.528  0.3840  0.7235 -0.5165
   63MOL    C7829962   4.275   7.441   0.512  0.4839 -0.1799 -0.5077
   63MOL    O7929963   4.274   7.485   0.375 -0.1747 -0.7944  0.2011
   63MOL    C8029964   4.297   7.609   0.339  0.4518  0.8842 -0.4682
   63MOL    O8129965   4.337   7.693   0.415  0.1671 -0.1291 -0.1045
   63MOL    C8229966   4.265   7.632   0.194  0.1710  0.1529  0.4964
   63MOL    C8329967   4.116   7.608   0.167 -0.1938  0.6057  0.6964
   63MOL    C8429968   4.049   7.742   0.146 -0.3495  0.6111  0.5419
   63MOL    O8529969   3.987   7.794   0.239 -0.6399  0.3131 -0.1143
   63MOL    H8629970   4.118   7.184   0.757 -0.0474 -0.5428  0.6798
   63MOL    H8729971   4.217   7.320   0.804 -2.8797 -0.1483 -1.0002
   63MOL    H8829972   4.327   7.107   0.642  2.1417  0.0290  1.0698
   63MOL    H8929973   4.414   7.257   0.688 -0.6085  0.6659 -0.1509
   63MOL    H9029974   4.167   7.253   0.505  0.4591  1.7635 -2.1457
   63MOL    H9129975   4.339   7.239   0.455  0.4541  0.5579 -0.3559
   63MOL    H9229976   4.190   7.485   0.564  1.7749  0.5516  0.9835
   63MOL    H9329977   4.367   7.478   0.557 -0.5744  2.5905 -0.5626
   63MOL    H9429978   4.316   7.549   0.145  0.0762  1.4507 -1.8620
   63MOL    H9529979   4.310   7.729   0.172  1.7112 -0.5592  0.4184
   63MOL    H9629980   4.097   7.542   0.082 -1.0486  0.0272  1.3339
   63MOL    H9729981   4.063   7.576   0.257  0.3562  2.8620  1.8695
   63MOL    O9829982   4.046   7.774   0.015 -0.5565  0.9463  0.1008
   63MOL    C9929983   3.984   0.020   7.845 -0.0572  0.2643 -0.4310
   63MOL   C10029984   4.104   0.116   7.839  0.5736  0.6597  0.3304
   63MOL   C10129985   4.071   0.254   7.775 -0.2557  0.3196  0.2502
   63MOL   C10229986   4.003   0.255   7.639 -0.6416  0.2416  0.3078
   63MOL   O10329987   4.092   0.210   7.545 -0.0459  0.2013 -0.6244
   63MOL   C10429988   4.069   0.203   7.412 -0.4051 -0.0407 -0.4145
   63MOL   O10529989   3.968   0.256   7.356  0.2123  0.2333 -0.4737
   63MOL   C10629990   4.173   0.123   7.329  0.1796  0.1841 -0.1669
   63MOL   C10729991   4.302   0.205   7.309 -0.0954  0.1204 -0.5196
   63MOL   C10829992   4.414   0.112   7.271  0.0053  0.1036  0.6482
   63MOL   O10929993   4.405   0.003   7.218  0.0911 -0.2071  0.6211
   63MOL   H11029994   3.926   0.006   7.753 -2.1192  1.1790  0.7054
   63MOL   H11129995   3.917   0.055   0.049 -1.4711  1.4391 -2.1216
   63MOL   H11229996   4.178   0.063   7.779  0.7069  1.8879 -0.6004
   63MOL   H11329997   4.146   0.135   0.063  1.4269  0.1903  0.0586
   63MOL   H11429998   4.155   0.324   7.776  0.8299 -0.8895 -2.3240
   63MOL   H11529999   4.000   0.303   7.840 -2.5298 -1.7980 -0.5744
   63MOL   H11630000   3.916   0.189   7.640 -0.2932 -0.2200  2.5530
   63MOL   H11730001   3.973   0.358   7.619  0.1727  0.7211  1.5015
   63MOL   H11830002   4.126   0.099   7.233 -1.7796  1.9861  0.3227
   63MOL   H11930003   4.188   0.024   7.371 -0.1011  0.4206  0.4792
   63MOL   H12030004   4.264   0.281   7.241 -0.1950  0.3254 -0.2399
   63MOL   H12130005   4.332   0.255   7.402 -0.1559  1.0044 -0.9670
   63MOL   O12230006   4.535   0.161   7.302  0.2522 -0.2312  0.0423
   63MOL   C12330007   4.656   0.109   7.252 -0.1784 -1.1350 -0.2790
   63MOL   C12430008   4.695   7.866   7.352  0.4303  0.3397 -0.2875
   63MOL   C12530009   4.745   0.048   7.479 -0.3258 -0.0890  0.2115
   63MOL   C12630010   4.759   7.814   7.586  0.7438  0.5298 -0.0788
   63MOL   O12730011   4.843   7.856   7.692 -0.0095  0.6070 -0.6025
   63MOL   C12830012   4.837   7.796   7.813 -0.2908  0.4739 -0.3863
   63MOL   O12930013   4.771   7.696   7.842  0.6347  0.3194 -0.0085
   63MOL   C13030014   4.940   7.848   0.044 -0.1489  0.6088 -0.5176
   63MOL   C13130015   5.087   7.852   7.869  0.3284  0.0917  0.2351
   63MOL   C13230016   5.176   7.748   0.066 -0.0027  0.8107 -0.1183
   63MOL   O13330017   5.267   7.784   0.141  0.4845  0.0886 -0.0558
   63MOL   H13430018   4.644   0.060   7.155  0.6980 -0.2110 -0.8655
   63MOL   H13530019   4.747   0.169   7.257  0.4594 -2.0939 -0.1201
   63MOL   H13630020   4.781   7.809   7.318  0.1436 -0.1519 -0.1868
   63MOL   H13730021   4.607   7.803   7.365  2.3664 -2.5168 -0.6679
   63MOL   H13830022   4.666   0.117   7.511  1.3776  2.4054 -0.8333
   63MOL   H13930023   4.833   0.109   7.457 -1.2219  1.2751  0.3102
   63MOL   H14030024   4.660   7.796   7.628  1.1296 -0.5409  0.3962
   63MOL   H14130025   4.788   7.714   7.553  1.8338  1.2242 -1.2417
   63MOL   H14230026   4.931   7.781   0.130  1.6230  2.2275  0.9903
   63MOL   H14330027   4.915   0.077   0.065 -0.5068  0.1301  1.6358
   63MOL   H14430028   5.080   7.844   7.761 -3.9077 -1.4858  0.5237
   63MOL   H14530029   5.127   0.078   0.008 -0.5294  0.6390 -1.2096
   63MOL   O14630030   5.137   7.617   0.049 -0.1868  0.4686  0.7362
   63MOL   C14730031   5.236   7.523   0.090 -0.5696 -0.3220 -1.1914
   63MOL   C14830032   5.177   7.378   0.076  0.4993  0.0718 -0.1415
   63MOL   C14930033   5.051   7.352   0.151 -1.0074  0.0587  0.2932
   63MOL   C15030034   5.004   7.203   0.154  0.0332  0.6511 -0.2275
   63MOL   O15130035   4.932   7.173   0.033  0.2330  0.0613  0.5882
   63MOL   C15230036   4.943   7.057   7.847 -0.0070  0.5984 -0.4119
   63MOL   O15330037   5.015   6.963   0.009  0.0834 -0.0712 -0.8617
   63MOL   C15430038   4.860   7.062   7.721  0.3612 -0.7176 -0.2542
   63MOL   C15530039   4.946   7.123   7.608 -0.5500 -0.4643  0.4988
   63MOL   C15630040   4.888   7.260   7.566 -0.0344 -0.0962  0.1908
   63MOL   O15730041   4.766   7.278   7.552  0.4376 -0.2042 -0.0479
   63MOL   H15830042   5.317   7.545   0.021 -0.9412  2.9118 -0.6875
   63MOL   H15930043   5.269   7.547   0.190 -0.7774  0.5191 -1.3223
   63MOL   H16030044   5.263   7.318   0.104  1.6421  1.3151 -0.9600
   63MOL   H16130045   5.157   7.371   7.844  0.5281  0.3016 -0.1617
   63MOL   H16230046   4.977   7.414   0.101 -1.7207 -1.4407 -0.5401
   63MOL   H16330047   5.073   7.375   0.256  2.3912 -0.4553 -0.2468
   63MOL   H16430048   5.082   7.131   0.179 -0.2794 -0.1564 -1.4684
   63MOL   H16530049   4.938   7.188   0.239  0.4793 -0.4373 -0.0649
   63MOL   H16630050   4.767   7.118   7.736  1.0759  0.4122  0.0174
   63MOL   H16730051   4.832   6.960   7.697  1.3923 -1.1937  0.5665
   63MOL   H16830052   5.050   7.131   7.637 -0.0621  0.7609 -1.5147
   63MOL   H16930053   4.932   7.060   7.521  0.2539 -1.5586  1.1428
   63MOL   O17030054   4.977   7.352   7.527 -0.0959  0.2397  0.1347
   63MOL   C17130055   4.937   7.487   7.496  0.0909  0.0517 -0.6224
   63MOL   C17230056   5.056   7.579   7.547  0.3012 -0.5591  0.5848
   63MOL   C17330057   5.178   7.557   7.450  0.7871  0.6187 -0.1708
   63MOL   C17430058   5.302   7.641   7.490 -0.1848  0.2057  0.8738
   63MOL   O17530059   5.423   7.614   7.417  0.2454 -0.2743 -0.7818
   63MOL   C17630060   5.505   7.524   7.465 -0.7662  0.4241 -0.6659
   63MOL   O17730061   5.499   7.481   7.582  0.2844  0.0661  0.4021
   63MOL   C17830062   5.617   7.491   7.363  0.2886 -1.1116  0.1964
   63MOL   C17930063   5.739   7.428   7.423 -0.5558 -0.2736 -0.0696
   63MOL   C18030064   5.847   7.538   7.443  0.0385 -0.1702  0.6568
   63MOL   O18130065   5.864   7.591   7.550  0.3504 -0.0283 -0.2723
   63MOL   H18230066   4.942   7.501   7.388  2.6919 -1.2079 -0.7066
   63MOL   H18330067   4.839   7.509   7.536  0.3997  0.0283  0.1657
   63MOL   H18430068   5.069   7.565   7.654  1.2591 -0.7128  0.4510
   63MOL   H18530069   5.023   7.683   7.539 -1.8046 -1.1858  0.6596
   63MOL   H18630070   5.160   7.578   7.344  1.0107  0.9978 -0.1331
   63MOL   H18730071   5.209   7.452   7.453  0.3920  0.4821 -0.8023
   63MOL   H18830072   5.280   7.747   7.487  0.6495  0.3750  0.7091
   63MOL   H18930073   5.313   7.629   7.598  0.7104 -1.6781  0.5948
   63MOL   H19030074   5.648   7.579   7.306 -1.9076  1.2078  2.4718
   63MOL   H19130075   5.553   7.422   7.308 -0.4053 -0.8394  0.6538
   63MOL   H19230076   5.701   7.390   7.517 -3.4310  0.5072 -0.8584
   63MOL   H19330077   5.777   7.341   7.369  0.8209  0.4589 -0.2958
   63MOL   O19430078   5.902   7.582   7.333  0.3316 -0.4275  0.2970
   63MOL   C19530079   5.987   7.702   7.340  0.6743  0.4212  0.5277
   63MOL   C19630080   6.048   7.740   7.206 -0.2474 -0.2098 -0.2025
   63MOL   C19730081   5.950   7.778   7.096 -0.5852 -0.0133 -0.6889
   63MOL   C19830082   6.007   7.822   6.968 -0.2984  0.1250  0.0766
   63MOL   O19930083   6.056   0.082   6.970  0.1792 -0.2419 -0.3807
   63MOL   C20030084   6.135   0.128   6.865  0.0763 -0.4202  0.0094
   63MOL   O20130085   6.153   0.068   6.759 -0.0618 -0.1778  0.3535
   63MOL   C20230086   6.213   0.255   6.894 -0.0130 -0.0084 -0.3449
   63MOL   C20330087   6.282   0.251   7.030  0.4285  0.0754 -0.2234
   63MOL   C20430088   6.430   0.284   7.019 -0.1005 -0.0788 -0.0940
   63MOL   O20530089   6.524   0.214   7.061 -0.0911 -0.5255 -1.0059
   63MOL   H20630090   5.922   7.773   7.391 -0.9563 -0.0610 -0.8361
   63MOL   H20730091   6.073   7.699   7.407  0.3064 -0.4893  0.9756
   63MOL   H20830092   6.117   7.668   7.161 -1.8946 -1.1875 -1.2259
   63MOL   H20930093   6.115   7.822   7.229  1.4278 -0.6427 -3.2211
   63MOL   H21030094   5.904   7.864   7.144  0.5452  0.3218 -0.1700
   63MOL   H21130095   5.872   7.703   7.085 -1.0476  0.6938 -2.2852
   63MOL   H21230096   6.090   7.756   6.945  0.0008  0.9089 -1.1319
   63MOL   H21330097   5.937   7.820   6.885  1.1512 -0.1167 -1.1621
   63MOL   H21430098   6.142   0.338   6.895 -2.0159 -1.6861  1.1767
   63MOL   H21530099   6.286   0.262   6.813 -3.1204  0.6073 -3.1957
   63MOL   H21630100   6.226   0.321   7.092 -0.5595 -0.3556 -0.6126
   63MOL   H21730101   6.281   0.152   7.076  0.0114 -0.5794 -1.6032
   63MOL   O21830102   6.440   0.416   6.965  0.0600  0.0243  0.2190
   63MOL   C21930103   6.567   0.460   6.935  0.4736 -0.4336  0.1411
   63MOL   C22030104   6.583   0.609   6.912 -0.5178  0.0460  0.2396
   63MOL   C22130105   6.543   0.698   7.031 -0.3591 -0.2925 -0.0694
   63MOL   C22230106   6.400   0.739   7.045  0.0505  0.1399  0.0537
   63MOL   O22330107   6.377   0.835   7.149 -0.3245 -0.3204 -0.5498
   63MOL   C22430108   6.369   0.799   7.280  0.0239 -0.2188 -0.3900
   63MOL   O22530109   6.365   0.683   7.324  0.0015  0.1386  0.0592
   63MOL   C22630110   6.378   0.917   7.373  0.1670  0.1629  1.2192
   63MOL   C22730111   6.279   1.025   7.338  0.1107  0.4240 -0.8212
   63MOL   C22830112   6.330   1.168   7.365 -1.2800 -0.0028 -0.2625
   63MOL   O22930113   6.442   1.214   7.330  0.0557  0.1435 -0.0018
   63MOL   H23030114   6.628   0.429   7.021  3.2726  0.7103 -1.3840
   63MOL   H23130115   6.607   0.407   6.849 -0.3726  0.3040 -0.7079
   63MOL   H23230116   6.552   0.639   6.812 -0.6696  0.6357  0.4670
   63MOL   H23330117   6.690   0.624   6.904 -0.5146  0.7293  1.5263
   63MOL   H23430118   6.600   0.790   7.015 -1.1145  0.0942 -0.5661
   63MOL   H23530119   6.585   0.645   7.116 -0.9628 -0.6442  0.0085
   63MOL   H23630120   6.376   0.784   6.949  2.0059  3.2776  0.9717
   63MOL   H23730121   6.337   0.651   7.060  0.0195  0.0210 -0.7564
   63MOL   H23830122   6.480   0.957   7.378  0.8636 -1.2033 -0.8656
   63MOL   H23930123   6.374   0.882   7.476  0.2690 -1.4400  0.7092
   63MOL   H24030124   6.250   1.019   7.233  0.7184  1.4851 -1.0636
   63MOL   H24130125   6.193   1.017   7.404  1.0933  3.9616  1.0617
   63MOL   O24230126   6.240   1.246   7.435  0.2075 -0.0502 -0.0969
   63MOL   C24330127   6.261   1.386   7.444  0.0968  0.5713  0.1632
   63MOL   C24430128   6.154   1.425   7.555 -0.5032  1.1905  0.3200
   63MOL   C24530129   6.169   1.571   7.596 -0.4493 -0.0529 -0.1375
   63MOL   C24630130   6.136   1.668   7.481 -0.8153 -0.6094  0.2335
   63MOL   O24730131   6.122   1.804   7.541  0.3309  0.5133  0.7708
   63MOL   C24830132   6.162   1.912   7.471  0.9617 -0.3267 -0.3739
   63MOL   O24930133   6.195   1.909   7.353  0.3993  0.0928 -0.3803
   63MOL   C25030134   6.149   2.041   7.557 -0.3089  0.3976  0.1986
   63MOL   C25130135   6.245   2.042   7.677 -0.5854 -0.4968  0.3484
   63MOL   C25230136   6.159   2.054   7.801  0.1705  0.2200  0.1508
   63MOL   O25330137   6.101   1.955   7.851  0.4429  0.0260 -0.0554
   63MOL   H25430138   6.360   1.407   7.486 -0.0760  1.0394  0.3376
   63MOL   H25530139   6.242   1.442   7.352  0.5009  0.0576 -0.2378
   63MOL   H25630140   6.160   1.361   7.644 -1.1663  1.4618  0.5663
   63MOL   H25730141   6.054   1.409   7.516  0.2257  1.0875 -1.5239
   63MOL   H25830142   6.268   1.603   7.627 -0.8938  1.1879  0.0447
   63MOL   H25930143   6.103   1.598   7.679 -0.0111  1.4113 -0.2500
   63MOL   H26030144   6.220   1.676   7.411 -1.2688  2.4959 -0.0605
   63MOL   H26130145   6.045   1.656   7.422 -0.3944  3.0340 -1.3286
   63MOL   H26230146   6.054   2.064   7.604 -0.4267  1.3069 -0.4759
   63MOL   H26330147   6.174   2.125   7.492 -0.5120 -1.7599 -2.7649
   63MOL   H26430148   6.296   1.946   7.682 -1.8624 -1.1787  0.3614
   63MOL   H26530149   6.310   2.129   7.675 -0.1618 -0.8125  0.3602
   63MOL   O26630150   6.145   2.185   7.839 -0.9484 -0.3711 -0.0710
   63MOL   C26730151   6.063   2.220   0.074  0.1256  1.1191 -0.7076
   63MOL   C26830152   6.071   2.369   0.120  0.4655 -0.2754  0.2997
   63MOL   C26930153   5.970   2.396   0.225  0.3108 -0.1497  0.4865
   63MOL   C27030154   5.955   2.543   0.259 -0.3650  0.6337 -0.0129
   63MOL   O27130155   6.079   2.599   0.312 -0.6751 -0.7098 -0.3359
   63MOL   C27230156   6.106   2.728   0.308  0.2193  0.5833  0.2000
   63MOL   O27330157   6.034   2.816   0.257  0.1244  0.1935 -0.4660
   63MOL   C27430158   6.236   2.763   0.372 -0.0792  0.3941  0.1449
   63MOL   C27530159   6.241   2.738   0.529 -0.0714 -0.5038 -0.3589
   63MOL   C27630160   6.223   2.873   0.597  1.1006  0.1456 -1.3028
   63MOL   O27730161   6.294   2.968   0.564  0.0457  0.1461 -0.0194
   63MOL   H27830162   5.958   2.207   0.047 -0.0323 -0.9208  0.7831
   63MOL   H27930163   6.071   2.149   0.156 -2.2264  0.8216 -0.6991
   63MOL   H28030164   6.042   2.427   0.032  0.3821 -0.3729  0.2624
   63MOL   H28130165   6.173   2.388   0.152  0.5412  0.5619 -0.4074
   63MOL   H28230166   5.974   2.335   0.315 -0.7047 -2.3203 -0.9037
   63MOL   H28330167   5.871   2.370   0.186 -1.1972 -0.0273  3.9910
   63MOL   H28430168   5.934   2.595   0.166  1.0446  2.9740  0.9228
   63MOL   H28530169   5.869   2.540   0.325  0.8293 -1.2357  1.5227
   63MOL   H28630170   6.272   2.862   0.343 -0.4823  0.3451 -0.5128
   63MOL   H28730171   6.303   2.688   0.330 -0.1302 -0.0915  0.9063
   63MOL   H28830172   6.163   2.669   0.563 -1.6868  0.5416 -1.8491
   63MOL   H28930173   6.334   2.688   0.556 -0.3378  0.2825  2.0929
   63MOL   O29030174   6.146   2.871   0.703  0.3377 -0.4130  0.0434
   63MOL   C29130175   6.115   2.989   0.778 -0.3825  0.8295  0.7606
   63MOL   C29230176   6.029   2.947   0.895  0.2831 -0.0657 -0.1220
   63MOL   C29330177   6.096   2.838   0.980 -0.1031 -1.4101  0.1650
   63MOL   C29430178   6.024   2.786   1.103 -0.3884 -0.3252  0.1767
   63MOL   O29530179   6.122   2.715   1.182  0.5590 -0.1200  0.9127
   63MOL   C29630180   6.118   2.737   1.316  0.3810 -0.4211 -0.5882
   63MOL   O29730181   6.027   2.791   1.380  0.3076 -0.2739  0.1623
   63MOL   C29830182   6.237   2.686   1.387 -0.2545 -0.0713 -0.0601
   63MOL   C29930183   6.362   2.780   1.374  0.0875 -0.5128 -0.5770
   63MOL   C30030184   6.480   2.743   1.465 -0.0776  0.1333 -0.2258
   63MOL   O30130185   6.471   2.647   1.541 -0.4087 -0.6658  0.0879
   63MOL   H30230186   6.212   3.030   0.806  0.4654 -1.0141  0.5525
   63MOL   H30330187   6.063   3.057   0.711 -2.5714 -0.4952  1.0760
   63MOL   H30430188   5.933   2.909   0.861  1.1366 -0.7996 -1.7785
   63MOL   H30530189   6.009   3.036   0.954 -1.4690 -1.6273  1.6948
   63MOL   H30630190   6.188   2.887   1.012  0.3621  0.6478 -3.9411
   63MOL   H30730191   6.130   2.753   0.921 -1.1815 -0.5413 -1.7663
   63MOL   H30830192   5.986   2.869   1.164  1.5439  0.5662  0.2166
   63MOL   H30930193   5.936   2.728   1.076 -1.4964  1.4118 -0.0160
   63MOL   H31030194   6.259   2.582   1.361 -0.5262 -0.3238  0.7010
   63MOL   H31130195   6.208   2.691   1.492 -0.0852  0.6632 -0.0476
   63MOL   H31230196   6.404   2.795   1.274 -1.9445 -0.6818 -1.4922
   63MOL   H31330197   6.327   2.879   1.401  2.3623  0.1414  0.0578
   63MOL   O31430198   6.585   2.823   1.455 -0.3138 -0.0611  0.3379
   63MOL   C31530199   6.704   2.785   1.512 -0.2821 -0.8516 -0.0977
   63MOL   C31630200   6.727   2.838   1.657 -0.5613  0.2685 -0.4102
   63MOL   C31730201   6.858   2.791   1.717 -0.6567  0.3490  0.0877
   63MOL   C31830202   6.900   2.844   1.865  0.4007 -0.0187 -0.2221
   63MOL   O31930203   7.023   2.784   1.888  0.0068  0.0469  0.0839
   63MOL   C32030204   7.032   2.692   1.985 -0.4301  0.5035 -0.0360
   63MOL   O32130205   6.938   2.651   2.053 -0.1333 -0.4489 -0.2468
   63MOL   C32230206   7.176   2.653   2.002 -0.2435  0.2353  0.8075
   63MOL   C32330207   7.227   2.565   1.890 -0.4257  0.1933  0.0349
   63MOL   C32430208   7.300   2.653   1.790 -0.5093  0.3166  0.1999
   63MOL   O32530209   7.397   2.710   1.826 -0.6124 -0.1446 -0.1214
   63MOL   H32630210   6.707   2.676   1.523 -0.5962 -1.0789 -2.0928
   63MOL   H32730211   6.783   2.833   1.454  0.1045  2.5199  3.0751
   63MOL   H32830212   6.641   2.798   1.711  1.0601  0.3186  2.2828
   63MOL   H32930213   6.704   2.944   1.666  0.4543  0.5131 -0.6828
   63MOL   H33030214   6.932   2.831   1.649 -0.0545  0.7267  0.9502
   63MOL   H33130215   6.862   2.682   1.715  1.4024  0.4224 -0.6315
   63MOL   H33230216   6.913   2.952   1.871 -0.7318  0.1307 -0.3637
   63MOL   H33330217   6.826   2.819   1.941  1.2095  0.3355  0.6909
   63MOL   H33430218   7.183   2.584   2.086  0.3031 -0.9807 -0.2104
   63MOL   H33530219   7.234   2.744   2.019  1.8005 -0.7523 -0.6446
   63MOL   H33630220   7.299   2.495   1.932 -1.0079  0.4227  1.4482
   63MOL   H33730221   7.143   2.510   1.848 -1.3631  0.5538  1.4009
   63MOL   O33830222   7.260   2.632   1.662  0.1597  0.3188 -0.0881
   63MOL   C33930223   7.321   2.699   1.557  0.0611  0.2251  0.1914
   63MOL   C34030224   7.273   2.847   1.556 -0.1224 -0.1329 -0.2166
   63MOL   C34130225   7.331   2.917   1.430 -0.2651  0.0854 -0.0416
   63MOL   C34230226   7.481   2.941   1.428 -0.4569  0.5414 -0.2957
   63MOL   O34330227   7.512   3.035   1.326  0.0751  0.1114 -0.8935
   63MOL   C34430228   7.641   3.064   1.306 -0.4737 -0.6771  0.3949
   63MOL   O34530229   7.730   3.008   1.363  0.1405  0.3539 -0.1555
   63MOL   C34630230   7.668   3.167   1.197 -0.1057  0.3445 -0.1642
   63MOL   C34730231   7.577   3.290   1.218  0.1235  0.3136 -0.2832
   63MOL   C34830232   7.472   3.319   1.111  0.3403 -0.1348 -0.4905
   63MOL   O34930233   7.457   3.249   1.010 -0.3253 -0.3390 -0.6369
   63MOL   H35030234   7.429   2.698   1.572 -0.0541 -0.1366  1.0614
   63MOL   H35130235   7.293   2.639   1.470  1.4248  1.6263 -1.2262
   63MOL   H35230236   7.310   2.904   1.642 -0.7014  2.9803 -1.9918
   63MOL   H35330237   7.165   2.841   1.569 -0.3877  0.2151 -2.1288
   63MOL   H35430238   7.274   3.010   1.425 -0.3422  0.0135 -0.5351
   63MOL   H35530239   7.309   2.850   1.347 -2.0142  0.9268 -0.2881
   63MOL   H35630240   7.515   2.980   1.524  1.1800 -1.8415  0.1094
   63MOL   H35730241   7.541   2.852   1.416 -1.5284 -0.1526 -0.5505
   63MOL   H35830242   7.648   3.114   1.104  1.1331 -0.9951  0.3056
   63MOL   H35930243   7.774   3.194   1.198  0.2563 -1.0752  1.1250
   63MOL   H36030244   7.543   3.307   1.320  0.3870  0.2900 -0.1896
   63MOL   H36130245   7.652   3.369   1.205 -0.4975  1.0275  0.4013
   63MOL   O36230246   7.412   3.437   1.142 -0.3524 -0.4711 -0.5329
   63MOL   C36330247   7.346   3.504   1.034  0.1498 -0.1668  0.4200
   63MOL   C36430248   7.271   3.627   1.081 -0.2562 -0.5471 -0.5067
   63MOL   C36530249   7.199   3.714   0.975 -0.0941  0.7009 -0.5848
   63MOL   C36630250   7.096   3.631   0.898 -0.3811  0.2169 -0.0180
   63MOL   O36730251   6.997   3.722   0.839 -0.3733  0.2190 -0.9787
   63MOL   C36830252   6.907   3.676   0.759  0.0227 -0.0449 -0.4487
   63MOL   O36930253   6.903   3.565   0.712  0.0198 -0.4824 -0.0037
   63MOL   C37030254   6.795   3.771   0.716  0.3842 -0.0812 -0.0426
   63MOL   C37130255   6.789   3.779   0.561 -0.1168  0.4472  0.2195
   63MOL   C37230256   6.663   3.717   0.495 -0.1204 -0.0110  0.0510
   63MOL   O37330257   6.559   3.689   0.562 -0.5895 -0.4378  0.5087
   63MOL   H37430258   7.416   3.530   0.955  1.7121  1.4717  2.2716
   63MOL   H37530259   7.280   3.429   0.992  0.8624  0.0466 -1.1278
   63MOL   H37630260   7.340   3.693   1.133 -1.8078  1.5557 -1.0807
   63MOL   H37730261   7.202   3.605   1.162  1.7201 -0.4240  1.2507
   63MOL   H37830262   7.270   3.759   0.905  1.7554  0.2328  0.9325
   63MOL   H37930263   7.142   3.798   1.014  1.7302  1.5773  0.2531
   63MOL   H38030264   7.134   3.561   0.824 -2.2572 -1.1974  0.3421
   63MOL   H38130265   7.042   3.566   0.967 -1.3483  0.7907 -0.2247
   63MOL   H38230266   6.815   3.868   0.761  2.2048 -0.7991  0.7412
   63MOL   H38330267   6.702   3.721   0.742  0.7687 -0.6430  0.2593
   63MOL   H38430268   6.795   3.883   0.529  2.1455 -0.3236 -1.8975
   63MOL   H38530269   6.869   3.723   0.514 -0.4254  2.1011 -2.3689
   63MOL   O38630270   6.682   3.699   0.360 -0.0667  0.5709  0.4957
   63MOL   C38730271   6.585   3.645   0.272  0.5150 -0.0164  0.0015
   63MOL   C38830272   6.589   3.493   0.280  0.2474 -0.2212  0.0314
   63MOL   C38930273   6.721   3.442   0.221  0.6998  0.0946 -0.2258
   63MOL   C39030274   6.841   3.444   0.320  0.5111 -0.2199  0.5402
   63MOL   O39130275   6.958   3.431   0.234  0.4344  0.3070 -0.2031
   63MOL   C39230276   7.079   3.478   0.273  0.3140  0.3283  0.0458
   63MOL   O39330277   7.094   3.526   0.387  0.2465  0.1802  0.0022
   63MOL   C39430278   7.189   3.491   0.164  0.3514  0.1943  0.0492
   63MOL   C39530279   7.326   3.513   0.215 -0.6691  0.1866  0.0334
   63MOL   C39630280   7.411   3.390   0.234 -0.1994 -0.0736  0.4940
   63MOL   O39730281   7.374   3.277   0.204 -0.1217 -0.5522 -0.2799
   63MOL   H39830282   6.485   3.678   0.302  0.0339  0.8053 -2.3703
   63MOL   H39930283   6.589   3.671   0.167 -1.1668  1.2959  0.2368
   63MOL   H40030284   6.509   3.451   0.219 -0.2545 -2.7485  2.3816
   63MOL   H40130285   6.581   3.452   0.380 -0.2525 -0.9244 -0.2937
   63MOL   H40230286   6.740   3.483   0.122 -1.4695  0.0100 -0.6910
   63MOL   H40330287   6.712   3.338   0.188  1.9508 -0.0467 -0.1410
   63MOL   H40430288   6.854   3.531   0.385  0.7220 -1.5231  2.3005
   63MOL   H40530289   6.830   3.358   0.387 -0.3723  0.7353  1.6407
   63MOL   H40630290   7.150   3.583   0.120 -1.5283 -0.6359 -0.0762
   63MOL   H40730291   7.178   3.415   0.087  1.7610  0.2507 -0.2132
   63MOL   H40830292   7.376   3.571   0.137 -0.9008 -0.5906 -0.6926
   63MOL   H40930293   7.338   3.578   0.301  1.9690  1.5195 -1.2778
   63MOL   O41030294   7.528   3.427   0.291 -0.0664 -0.1605 -0.0801
   63MOL   C41130295   7.635   3.325   0.303 -0.1283  0.2916 -0.0340
   63MOL   C41230296   7.781   3.388   0.313 -0.3846 -0.1471  0.2893
   63MOL   C41330297   7.798   3.476   0.440  0.6454 -0.0118  0.5803
   63MOL   C41430298   0.055   3.564   0.443  0.0522 -0.2285 -0.2646
   63MOL   O41530299   0.037   3.681   0.349 -0.0327  0.1202 -0.0557
   63MOL   C41630300   0.118   3.789   0.355 -0.4592  0.6930 -0.4250
   63MOL   O41730301   0.219   3.796   0.431  0.0744  0.2537  0.1712
   63MOL   C41830302   0.082   3.901   0.258  0.0908 -0.1017  0.5517
   63MOL   C41930303   7.842   3.981   0.325  0.7664 -0.7103  0.0261
   63MOL   C42030304   7.713   3.957   0.249  0.3597 -0.2062 -0.2985
   63MOL   O42130305   7.656   4.053   0.198 -0.1512  0.1968  0.3380
   63MOL   H42230306   7.625   3.278   0.401  0.8458 -0.0419 -0.0936
   63MOL   H42330307   7.616   3.241   0.235 -0.3617 -1.0883  1.7105
   63MOL   H42430308   7.791   3.452   0.225 -0.0400 -0.4367  0.1176
   63MOL   H42530309   7.859   3.313   0.300 -0.2619  0.2924 -1.6947
   63MOL   H42630310   7.793   3.412   0.528 -0.6090 -1.1918 -0.3103
   63MOL   H42730311   7.711   3.538   0.461  0.4075 -0.1453  0.0041
   63MOL   H42830312   0.073   3.600   0.544 -0.7248  1.1345 -0.5930
   63MOL   H42930313   0.146   3.510   0.415  1.3744  0.2248  3.0279
   63MOL   H43030314   0.048   3.856   0.164  1.9767 -0.9174  0.2422
   63MOL   H43130315   0.175   3.954   0.239 -0.1278  0.0699 -0.0657
   63MOL   H43230316   7.818   3.954   0.428 -0.9529  0.9464  0.0861
   63MOL   H43330317   0.002   4.085   0.333  1.9585 -1.2655  2.4210
   63MOL   O43430318   7.674   3.828   0.255 -0.3018 -1.1201 -0.3904
   63MOL   C43530319   7.551   3.787   0.196  0.7200  0.2679 -0.7491
   63MOL   C43630320   7.558   3.745   0.053  0.2586 -0.0965  0.5777
   63MOL   C43730321   7.654   3.628   0.030 -0.1158 -0.2983  0.1360
   63MOL   C43830322   7.687   3.620   7.754 -0.2375 -0.0755 -0.0361
   63MOL   O43930323   7.570   3.573   7.682 -0.0306 -0.1658 -0.3283
   63MOL   C44030324   7.590   3.513   7.558 -0.4763 -0.4641  0.7064
   63MOL   O44130325   7.696   3.468   7.513  0.1045 -0.2013 -0.0022
   63MOL   C44230326   7.462   3.498   7.481  0.3416  0.2999  0.1670
   63MOL   C44330327   7.464   3.435   7.343  0.2569 -0.2752 -0.4031
   63MOL   C44430328   7.335   3.356   7.308 -0.0254  0.1264  0.0543
   63MOL   O44530329   7.254   3.317   7.395  0.7583 -0.3290  0.4380
   63MOL   H44630330   7.514   3.710   0.264  1.0314  0.8271  0.0617
   63MOL   H44730331   7.484   3.872   0.209 -0.4483 -0.8402  0.8202
   63MOL   H44830332   7.560   3.829   7.858  3.1383 -0.8260 -0.3103
   63MOL   H44930333   7.460   3.707   0.028 -0.1369  0.7352  0.8349
   63MOL   H45030334   7.617   3.535   0.073 -1.6318  1.2430  2.2902
   63MOL   H45130335   7.738   3.655   0.093  0.3567 -0.0033 -0.6165
   63MOL   H45230336   7.718   3.717   7.715  0.3324  0.4714  1.7435
   63MOL   H45330337   7.774   3.555   7.741 -0.2597 -0.1097 -0.0139
   63MOL   H45430338   7.427   3.601   7.480  0.0456  0.1990  0.0596
   63MOL   H45530339   7.391   3.453   7.551 -1.2518  1.4071 -0.7100
   63MOL   H45630340   7.464   3.504   7.259  1.4659 -2.5975 -2.3626
   63MOL   H45730341   7.557   3.380   7.331  0.5360 -0.0397  0.6407
   63MOL   O45830342   7.319   3.334   7.182 -0.0633 -0.0710  0.2251
   63MOL   C45930343   7.203   3.276   7.137 -0.1683  0.4463  0.4785
   63MOL   C46030344   7.141   3.350   7.016  0.3997 -0.2503  0.7744
   63MOL   C46130345   7.233   3.332   6.893  0.4328  0.1590 -0.0108
   63MOL   C46230346   7.207   3.419   6.768 -0.2455 -0.2771  0.4305
   63MOL   O46330347   7.295   3.374   6.665 -0.0023  0.7207  0.0693
   63MOL   C46430348   7.283   3.421   6.543 -1.2988 -0.2263 -0.3569
   63MOL   O46530349   7.198   3.499   6.503  0.8065 -0.2803  0.3496
   63MOL   C46630350   7.383   3.368   6.442  0.0910  0.3942  0.3221
   63MOL   C46730351   7.345   3.228   6.393  0.0243  0.0319  0.2921
   63MOL   C46830352   7.460   3.155   6.329  0.5639 -0.3050 -0.5243
   63MOL   O46930353   7.574   3.207   6.317 -0.6596  0.0459 -0.0424
   63MOL   H47030354   7.232   3.178   7.099 -2.4730  0.3464 -1.1406
   63MOL   H47130355   7.123   3.264   7.209  1.1355 -0.8311  1.7665
   63MOL   H47230356   7.128   3.456   7.039 -0.0206  0.2281 -1.5755
   63MOL   H47330357   7.045   3.307   6.987  1.1253 -1.9837  0.8555
   63MOL   H47430358   7.212   3.231   6.856  0.9381 -0.7587  2.1485
   63MOL   H47530359   7.340   3.337   6.911  0.5117  3.0617 -1.1315
   63MOL   H47630360   7.100   3.424   6.748  0.1790  0.0413 -1.9046
   63MOL   H47730361   7.242   3.520   6.792  0.3679 -0.2949 -0.3716
   63MOL   H47830362   7.480   3.364   6.491 -0.5183  2.3232  1.7308
   63MOL   H47930363   7.391   3.436   6.357 -0.9102  1.3457  0.9861
   63MOL   H48030364   7.307   3.170   6.478  0.2448  1.6565  1.5256
   63MOL   H48130365   7.265   3.245   6.322  0.8251  0.4318 -0.5137
   63MOL   H48230366   7.438   3.055   6.294 -0.2524  0.2084 -1.5114
   64MOL     O130367   0.779   2.261   2.387  0.4963  0.1477  0.6472
   64MOL     C230368   0.688   2.302   2.486  0.6027 -0.2064  0.0201
   64MOL     C330369   0.559   2.306   2.418 -0.1984  0.4260 -0.4028
   64MOL     C430370   0.450   2.352   2.505  0.1675 -0.5351 -0.0900
   64MOL     C530371   0.313   2.369   2.425 -0.6705 -0.1635 -0.4405
   64MOL     O630372   0.206   2.405   2.512 -0.1440 -0.1010  0.0912
   64MOL     C730373   0.091   2.441   2.463 -0.6774  1.2620 -0.1666
   64MOL     O830374   0.053   2.419   2.349 -0.2914  0.3276  0.1400
   64MOL     C930375   0.003   2.525   2.570 -0.1951  0.1748  0.5933
   64MOL    C1030376   0.092   2.603   2.661 -0.1265  0.0919  0.4834
   64MOL    C1130377   0.016   2.701   2.754  0.6848 -0.4767 -0.4204
   64MOL    O1230378   7.770   2.718   2.744 -0.2286 -0.1029  0.0462
   64MOL    H1330379   0.693   2.231   2.568 -0.4234  1.1146  1.2604
   64MOL    H1430380   0.721   2.399   2.523 -1.5769 -0.6211  3.2356
   64MOL    H1530381   0.543   2.206   2.379  1.1309 -0.3056  0.9230
   64MOL    H1630382   0.552   2.374   2.333  0.8429 -0.4350 -1.1844
   64MOL    H1730383   0.478   2.447   2.551 -0.6159 -0.7664  0.8851
   64MOL    H1830384   0.436   2.282   2.588 -2.2591 -0.8653 -0.7229
   64MOL    H1930385   0.315   2.435   2.338  1.3064  0.7200  0.2467
   64MOL    H2030386   0.296   2.272   2.378 -0.6472 -1.9233  3.0568
   64MOL    H2130387   7.825   2.445   2.623 -1.6390  0.9978  0.4461
   64MOL    H2230388   7.805   2.592   2.524  1.3842  1.5708  0.0885
   64MOL    H2330389   0.149   2.532   2.720  1.1466 -0.9435 -1.9053
   64MOL    H2430390   0.156   2.672   2.605 -0.8647 -0.0160 -0.5174
   64MOL    H2530391   0.772   2.167   2.383 -0.2562  0.1644  1.4445
   64MOL    O2630392   0.093   2.760   2.854  0.0957  0.5474 -0.2906
   64MOL    C2730393   0.040   2.866   2.940 -0.3092 -0.1163  0.4093
   64MOL    C2830394   0.045   3.005   2.870  0.1779  0.0086 -0.0506
   64MOL    C2930395   0.181   3.073   2.855 -0.3131 -0.2657  0.0159
   64MOL    C3030396   0.251   3.127   2.984 -0.6862  0.1620  0.4043
   64MOL    O3130397   0.179   3.236   3.044 -0.3649 -0.1234  0.1125
   64MOL    C3230398   0.230   3.308   3.144 -0.2147  0.2933  0.3384
   64MOL    O3330399   0.346   3.307   3.177  0.1537  0.0632 -0.0338
   64MOL    C3430400   0.124   3.377   3.227 -0.5655 -0.2848  0.1926
   64MOL    C3530401   0.038   3.462   3.123  0.8705  0.2229  0.6724
   64MOL    C3630402   0.069   3.605   3.142  0.0880  0.4908 -1.0390
   64MOL    O3730403   0.122   3.648   3.247 -0.2560  0.2086  0.0908
   64MOL    H3830404   7.813   2.847   2.974  0.4265 -2.3690  1.3956
   64MOL    H3930405   0.110   2.872   3.023 -1.3435  1.0624  1.2219
   64MOL    H4030406   7.854   3.077   2.919  0.4640  0.2098  0.0367
   64MOL    H4130407   0.014   2.993   2.766  2.2329 -1.7257 -0.5024
   64MOL    H4230408   0.167   3.153   2.782 -0.4212  0.5263  0.8989
   64MOL    H4330409   0.239   2.990   2.815  1.3253  0.3472  1.1228
   64MOL    H4430410   0.261   3.044   3.054  2.0463  0.4438  0.4164
   64MOL    H4530411   0.350   3.162   2.956 -0.7921  0.8929  0.9498
   64MOL    H4630412   0.157   3.428   3.317 -1.1587 -2.1181  1.4813
   64MOL    H4730413   0.063   3.293   3.261  0.3375 -0.5548  1.1591
   64MOL    H4830414   0.048   3.441   3.017 -1.1022  0.5778  0.4004
   64MOL    H4930415   7.804   3.457   3.136  0.8689 -3.8863 -0.4221
   64MOL    O5030416   0.012   3.680   3.054  0.0619 -0.1309 -0.2530
   64MOL    C5130417   0.005   3.820   3.073  0.7106 -0.6772 -0.5459
   64MOL    C5230418   7.755   3.884   3.003  0.4119  0.3771 -1.2224
   64MOL    C5330419   7.641   3.829   3.088  0.2207 -0.0426 -0.3461
   64MOL    C5430420   7.506   3.885   3.047  0.0666 -0.4061 -0.7499
   64MOL    O5530421   7.499   4.031   3.064 -0.7226  0.3522 -0.3202
   64MOL    C5630422   7.469   4.088   3.178 -0.3665 -0.2877  0.2782
   64MOL    O5730423   7.434   4.043   3.289  0.2244 -0.3932 -0.6031
   64MOL    C5830424   7.502   4.236   3.167  0.4114 -0.9611  0.0520
   64MOL    C5930425   7.385   4.326   3.232  0.1309 -0.3784 -0.2675
   64MOL    C6030426   7.440   4.385   3.366  0.1116  0.4335  0.4325
   64MOL    O6130427   7.531   4.468   3.366  0.0927  0.1404  0.3555
   64MOL    H6230428   0.009   3.834   3.181  2.1478  0.8848 -0.7788
   64MOL    H6330429   0.085   3.871   3.019 -0.0280 -1.2198 -2.1745
   64MOL    H6430430   7.756   3.857   2.897  1.7176 -1.1507 -0.8394
   64MOL    H6530431   7.758   3.992   3.019 -1.7084  0.0239  2.0108
   64MOL    H6630432   7.664   3.846   3.193 -1.3125  1.3539 -0.2167
   64MOL    H6730433   7.641   3.721   3.079 -1.8363  0.1842 -3.7827
   64MOL    H6830434   7.484   3.871   2.941  0.0506 -1.1767 -0.6520
   64MOL    H6930435   7.426   3.844   3.109 -1.1297  2.8532 -0.0367
   64MOL    H7030436   7.519   4.254   3.061  0.7818  0.4871  0.3437
   64MOL    H7130437   7.597   4.257   3.217 -0.6398  2.0539  0.9413
   64MOL    H7230438   7.356   4.402   3.160 -0.8112 -0.5257 -0.0493
   64MOL    H7330439   7.300   4.262   3.258 -0.0853  0.7273  1.8780
   64MOL    O7430440   7.393   4.321   3.473 -0.0605 -0.6863  0.4881
   64MOL    C7530441   7.450   4.353   3.600 -0.6180  0.1303  0.3089
   64MOL    C7630442   7.352   4.307   3.705  0.4544  0.4745  0.1105
   64MOL    C7730443   7.233   4.408   3.726 -0.2327 -0.6291  1.3596
   64MOL    C7830444   7.143   4.376   3.848 -0.6937  0.5069  0.6054
   64MOL    O7930445   7.220   4.409   3.959 -0.5334 -0.1664 -0.5813
   64MOL    C8030446   7.159   4.457   4.068 -0.6017 -0.3940  0.0713
   64MOL    O8130447   7.039   4.464   4.092 -0.0701 -0.1901 -0.5946
   64MOL    C8230448   7.265   4.510   4.165 -0.3127  0.1480 -0.1229
   64MOL    C8330449   7.335   4.629   4.102  0.1165  0.0435 -0.2903
   64MOL    C8430450   7.292   4.762   4.161  0.0804  1.0683 -0.4436
   64MOL    O8530451   7.372   4.829   4.222 -0.7107 -0.2521 -0.3073
   64MOL    H8630452   7.543   4.297   3.610 -1.4919 -1.2547  0.8236
   64MOL    H8730453   7.479   4.458   3.603  0.8197 -0.2464  0.0603
   64MOL    H8830454   7.410   4.277   3.792  0.6199  0.4448 -0.0128
   64MOL    H8930455   7.313   4.216   3.660  2.9367 -0.3208 -0.4982
   64MOL    H9030456   7.174   4.407   3.635  0.9327 -0.8128  0.5926
   64MOL    H9130457   7.265   4.512   3.735 -0.7354 -0.3487  0.0257
   64MOL    H9230458   7.045   4.424   3.846 -1.8282 -1.7141  0.9181
   64MOL    H9330459   7.120   4.269   3.843 -4.1938  1.3003 -4.0638
   64MOL    H9430460   7.345   4.448   4.204  0.0036  0.6951  0.1155
   64MOL    H9530461   7.217   4.547   4.256  0.0175  0.6445 -0.1432
   64MOL    H9630462   7.443   4.615   4.102  0.2402  0.9188 -1.3509
   64MOL    H9730463   7.309   4.634   3.996  0.9772 -0.4534 -0.5251
   64MOL    O9830464   7.164   4.788   4.135  0.0987  0.0211  0.2445
   64MOL    C9930465   7.084   4.887   4.209  0.2412  0.2877 -0.3167
   64MOL   C10030466   6.943   4.828   4.229 -0.0658 -0.6028 -0.1909
   64MOL   C10130467   6.869   4.830   4.094  0.3502  0.4224  0.5116
   64MOL   C10230468   6.812   4.974   4.054 -0.0311 -0.1244 -0.0849
   64MOL   O10330469   6.809   4.977   3.909 -0.0452 -0.7628 -0.0480
   64MOL   C10430470   6.908   5.025   3.839 -0.2945  0.6195  0.1494
   64MOL   O10530471   7.021   5.058   3.877  0.2267  0.0175  0.3933
   64MOL   C10630472   6.874   5.041   3.695  0.0938  0.4682  0.4852
   64MOL   C10730473   6.988   4.992   3.598 -0.3076 -0.5169 -0.1504
   64MOL   C10830474   6.921   4.949   3.469  0.8778  0.0451 -0.7034
   64MOL   O10930475   6.811   4.990   3.434  0.2062  0.0790  0.8564
   64MOL   H11030476   7.145   4.916   4.295  1.3600  1.2747 -1.4160
   64MOL   H11130477   7.078   4.978   4.149 -1.5213  0.8690  0.6980
   64MOL   H11230478   6.882   4.882   4.300  0.4276 -0.1715 -0.0910
   64MOL   H11330479   6.951   4.726   4.266 -0.8778 -0.7164 -0.3114
   64MOL   H11430480   6.785   4.761   4.096  0.6100  0.1112  1.0217
   64MOL   H11530481   6.936   4.789   4.019  0.4393  1.3835  0.0607
   64MOL   H11630482   6.711   4.976   4.093 -0.0364  0.2917 -0.1115
   64MOL   H11730483   6.870   5.057   4.097  1.6331 -0.3963 -1.7400
   64MOL   H11830484   6.860   5.147   3.676  1.2744  0.6054  0.3152
   64MOL   H11930485   6.781   4.989   3.672 -0.1138  0.8722  0.4118
   64MOL   H12030486   7.050   5.081   3.586 -0.0776 -0.6971 -0.3136
   64MOL   H12130487   7.042   4.913   3.650  1.5301  1.7149  1.4361
   64MOL   O12230488   7.000   4.869   3.395 -0.4715  0.1856 -0.0189
   64MOL   C12330489   6.963   4.848   3.265 -0.3067 -0.5620 -0.5632
   64MOL   C12430490   7.060   4.746   3.207  0.1853 -0.1893  0.2334
   64MOL   C12530491   7.069   4.703   3.057  0.2953 -0.2514 -0.0389
   64MOL   C12630492   6.959   4.599   3.020 -0.5721 -0.0356 -0.4320
   64MOL   O12730493   6.836   4.661   3.045 -0.2579 -0.1995  0.1681
   64MOL   C12830494   6.733   4.661   2.951  0.0755  0.2136 -0.2321
   64MOL   O12930495   6.745   4.627   2.833  0.2296 -0.2107  0.6551
   64MOL   C13030496   6.598   4.705   3.018 -0.2583 -0.3618  0.7280
   64MOL   C13130497   6.555   4.832   2.957  0.9233  0.2121  0.6690
   64MOL   C13230498   6.627   4.944   3.027 -0.1034  0.5545 -0.0035
   64MOL   O13330499   6.632   4.948   3.151 -0.0317  0.5531  0.4234
   64MOL   H13430500   6.859   4.820   3.248 -0.0521 -1.9422  0.0602
   64MOL   H13530501   6.971   4.944   3.213 -3.3584  0.3662  0.6022
   64MOL   H13630502   7.045   4.658   3.270  3.2386 -0.7912  0.2095
   64MOL   H13730503   7.158   4.789   3.230  0.9432 -1.9638  0.4163
   64MOL   H13830504   7.165   4.666   3.023 -0.3466 -1.1798 -0.8699
   64MOL   H13930505   7.063   4.788   2.989  1.4072  1.0261  1.4314
   64MOL   H14030506   6.968   4.557   2.920  0.5510 -1.3210  0.1917
   64MOL   H14130507   6.980   4.521   3.094  3.0836  0.5969 -0.6962
   64MOL   H14230508   6.599   4.720   3.126  0.0647  1.9170  0.4288
   64MOL   H14330509   6.529   4.621   3.014  2.2663 -2.6280  3.0198
   64MOL   H14430510   6.572   4.825   2.849  0.4312 -0.3962  0.6236
   64MOL   H14530511   6.452   4.853   2.988  1.1108  0.2070  1.2913
   64MOL   O14630512   6.688   5.026   2.937  0.4054 -0.8649 -0.3594
   64MOL   C14730513   6.752   5.144   2.986 -0.4128 -0.1697  0.0965
   64MOL   C14830514   6.803   5.226   2.867 -0.6504 -0.3972  0.7455
   64MOL   C14930515   6.927   5.150   2.805  0.3840 -0.6563 -0.0486
   64MOL   C15030516   6.999   5.212   2.685 -0.8814  0.0529  1.0091
   64MOL   O15130517   7.116   5.137   2.654  0.5916  0.1793 -0.4235
   64MOL   C15230518   7.226   5.138   2.735  0.2542  0.2709 -0.0376
   64MOL   O15330519   7.229   5.190   2.848 -0.2029 -1.2320  0.1051
   64MOL   C15430520   7.340   5.056   2.676  0.3340 -0.7289  0.8211
   64MOL   C15530521   7.440   5.011   2.777  0.1207  0.0142 -0.1446
   64MOL   C15630522   7.401   4.883   2.863 -0.2077  0.5793 -0.2332
   64MOL   O15730523   7.322   4.797   2.827  0.5828  0.0009  0.0080
   64MOL   H15830524   6.689   5.202   3.054 -0.2851  2.0740 -1.6806
   64MOL   H15930525   6.838   5.104   3.040  0.8356  1.2166 -0.8384
   64MOL   H16030526   6.835   5.324   2.902  2.9013 -0.2483 -2.5829
   64MOL   H16130527   6.721   5.245   2.798 -2.0465  0.1119  2.5411
   64MOL   H16230528   6.894   5.049   2.779  2.1444 -1.2158 -0.2061
   64MOL   H16330529   6.996   5.144   2.889  1.5979  0.3484 -0.9548
   64MOL   H16430530   6.938   5.227   2.597  0.2960  0.2832  0.2221
   64MOL   H16530531   7.051   5.303   2.714 -0.8244  0.7460 -1.2011
   64MOL   H16630532   7.403   5.108   2.604 -2.0186 -0.7954 -1.3560
   64MOL   H16730533   7.314   4.971   2.613  0.7534  0.7933 -1.4428
   64MOL   H16830534   7.527   4.972   2.723  0.8901 -0.2906  1.2931
   64MOL   H16930535   7.482   5.083   2.846 -0.5160 -0.6064  0.8916
   64MOL   O17030536   7.462   4.887   2.976 -0.4314  0.0159  0.8836
   64MOL   C17130537   7.437   4.781   3.066 -0.7627 -0.2381  0.1576
   64MOL   C17230538   7.546   4.674   3.073 -0.0459 -0.2710  0.0217
   64MOL   C17330539   7.682   4.726   3.113 -0.7056  0.4195 -0.1453
   64MOL   C17430540   7.768   4.792   3.005 -0.4751  0.7314 -0.2824
   64MOL   O17530541   7.779   4.699   2.901 -0.4116  0.2576 -0.4576
   64MOL   C17630542   7.872   4.600   2.907  0.3966 -0.7265 -0.3751
   64MOL   O17730543   0.075   4.576   2.999  0.1062  0.1581 -1.0210
   64MOL   C17830544   7.864   4.506   2.788  0.1492 -0.5188  0.2118
   64MOL   C17930545   7.827   4.361   2.833 -0.5435  1.1232 -0.7198
   64MOL   C18030546   0.070   4.276   2.873 -0.6695 -0.4865 -0.4299
   64MOL   O18130547   0.080   4.230   2.987 -0.2722 -0.3736 -0.0352
   64MOL   H18230548   7.426   4.841   3.157  0.8795  1.1042 -0.4895
   64MOL   H18330549   7.339   4.737   3.047 -0.9428  0.5984 -0.8884
   64MOL   H18430550   7.546   4.617   2.980  1.0466  2.0202 -1.4420
   64MOL   H18530551   7.531   4.607   3.157 -0.0947 -1.2924 -0.7794
   64MOL   H18630552   7.743   4.655   3.168 -1.3580 -1.0453 -1.2796
   64MOL   H18730553   7.664   4.807   3.184 -0.5980  0.3692 -0.0608
   64MOL   H18830554   7.729   4.888   2.973  0.9317  1.3768 -0.0974
   64MOL   H18930555   7.870   4.808   3.041 -0.0146 -0.7189 -0.8922
   64MOL   H19030556   0.077   4.501   2.725 -0.7698 -0.0311 -1.1196
   64MOL   H19130557   7.787   4.540   2.719  0.1572  1.3157  1.0828
   64MOL   H19230558   7.756   4.369   2.915 -0.6699  0.9565 -0.8133
   64MOL   H19330559   7.776   4.306   2.754 -2.3680  0.9281  0.5543
   64MOL   O19430560   0.149   4.236   2.770 -0.0491 -0.1591  0.2547
   64MOL   C19530561   0.247   4.132   2.786 -0.2310  0.3144  0.6435
   64MOL   C19630562   0.235   4.020   2.674  0.2080 -0.4757 -0.6578
   64MOL   C19730563   0.108   3.939   2.695  0.7809 -0.1798 -0.8736
   64MOL   C19830564   7.856   3.996   2.630 -0.3484 -0.2699  0.6087
   64MOL   O19930565   7.870   4.004   2.491  0.3214  0.0848 -0.0452
   64MOL   C20030566   7.822   4.101   2.423 -0.3844  0.4566 -0.0527
   64MOL   O20130567   7.747   4.185   2.469 -0.0016  0.2782  0.0174
   64MOL   C20230568   7.871   4.104   2.278  0.5762  0.8268  0.0443
   64MOL   C20330569   7.863   3.974   2.204 -0.4496  0.3414  0.4449
   64MOL   C20430570   7.726   3.934   2.151  0.6986 -0.2742 -0.1026
   64MOL   O20530571   7.663   3.836   2.204  0.4336 -0.2265 -0.0600
   64MOL   H20630572   0.344   4.182   2.789  0.3353 -0.7917  0.6969
   64MOL   H20730573   0.246   4.083   2.883 -1.4252 -0.3077  0.3312
   64MOL   H20830574   0.320   3.954   2.689 -0.6785 -1.6067 -0.5837
   64MOL   H20930575   0.252   4.050   2.570  1.6044  2.6968  0.4148
   64MOL   H21030576   0.087   3.944   2.802 -0.2380  1.3274 -1.1370
   64MOL   H21130577   0.131   3.835   2.671 -1.6090 -0.8346 -0.4067
   64MOL   H21230578   7.781   3.918   2.648  0.1975 -1.3807 -1.7830
   64MOL   H21330579   7.822   4.089   2.676 -0.3272 -0.2747  0.6344
   64MOL   H21430580   0.100   4.141   2.277  0.6944  0.4926 -0.3056
   64MOL   H21530581   7.815   4.172   2.214  2.5479  1.1135 -1.4456
   64MOL   H21630582   0.047   3.982   2.112 -0.2189 -0.2029  0.5426
   64MOL   H21730583   0.033   3.892   2.259 -0.1044  1.4285  1.8196
   64MOL   O21830584   7.676   4.001   2.042  0.7159 -0.3172 -0.4467
   64MOL   C21930585   7.547   3.978   2.000 -0.0688 -0.1022 -0.3443
   64MOL   C22030586   7.569   3.892   1.868 -0.1333 -0.3030 -0.1835
   64MOL   C22130587   7.652   3.971   1.766 -0.4484  0.3309 -0.1348
   64MOL   C22230588   7.654   3.890   1.639 -0.1556  0.2634  0.8539
   64MOL   O22330589   7.726   3.958   1.540 -0.1406 -0.6284 -0.6391
   64MOL   C22430590   7.736   3.898   1.417 -0.1721  0.1995 -0.8467
   64MOL   O22530591   7.661   3.809   1.378  0.4409  0.1208 -0.3813
   64MOL   C22630592   7.851   3.954   1.339  0.2392 -0.1149 -0.8546
   64MOL   C22730593   7.834   3.954   1.185 -0.1033  0.2440  0.2952
   64MOL   C22830594   0.036   4.058   1.107 -0.3725 -0.1064  0.7161
   64MOL   O22930595   0.160   4.067   1.118 -0.2431 -0.0756 -0.2453
   64MOL   H23030596   7.483   3.922   2.068 -0.2715  0.0175 -0.4353
   64MOL   H23130597   7.498   4.073   1.979 -2.3700 -1.0757  0.4770
   64MOL   H23230598   7.477   3.860   1.820 -1.8661  2.4833  1.0994
   64MOL   H23330599   7.628   3.808   1.906  0.6149  1.4091  2.6638
   64MOL   H23430600   7.754   3.979   1.803 -0.1045 -4.9627  0.4185
   64MOL   H23530601   7.604   4.069   1.768 -0.5281  0.2722  1.2891
   64MOL   H23630602   7.708   3.798   1.658 -0.4946 -0.0033  0.5196
   64MOL   H23730603   7.556   3.873   1.595 -0.0304  2.3302 -0.3155
   64MOL   H23830604   0.064   3.893   1.361 -0.2827 -0.8963 -0.9076
   64MOL   H23930605   7.869   4.050   1.388  0.4884 -0.8816  0.5813
   64MOL   H24030606   0.003   3.864   1.141 -1.5067 -0.0031 -0.6229
   64MOL   H24130607   7.729   3.950   1.154 -0.2380 -1.9461  0.9364
   64MOL   O24230608   7.830   4.133   1.033  0.2712 -0.2471  0.0858
   64MOL   C24330609   0.007   4.234   0.944  0.2376  0.6829  0.3066
   64MOL   C24430610   7.782   4.350   0.921 -0.0437 -0.0794  0.5119
   64MOL   C24530611   7.777   4.461   1.030 -0.1758  0.1215 -0.6588
   64MOL   C24630612   7.693   4.582   0.983  1.3425  0.8966  0.4006
   64MOL   O24730613   7.644   4.647   1.100  0.5762  0.5591 -0.2343
   64MOL   C24830614   7.533   4.719   1.094  0.3480 -0.0282 -0.0146
   64MOL   O24930615   7.466   4.732   0.995 -0.0750 -0.0102 -0.0866
   64MOL   C25030616   7.487   4.783   1.227 -0.0581  0.8461 -0.3451
   64MOL   C25130617   7.580   4.892   1.281 -0.9594  0.1836 -0.1869
   64MOL   C25230618   7.638   4.838   1.409 -0.3215  0.3570 -1.3959
   64MOL   O25330619   7.572   4.849   1.511  0.7983  0.4753  0.4466
   64MOL   H25430620   0.103   4.266   0.985  0.8517  0.8159 -1.2071
   64MOL   H25530621   0.029   4.184   0.850  0.4511 -1.9629  1.7072
   64MOL   H25630622   7.692   4.291   0.904 -0.9833  1.5006 -0.0435
   64MOL   H25730623   7.800   4.408   0.830 -0.0503 -0.2474  0.4019
   64MOL   H25830624   0.001   4.497   1.058 -2.0105  4.0195  1.0762
   64MOL   H25930625   7.740   4.418   1.123 -0.6055 -0.3919 -1.0653
   64MOL   H26030626   7.753   4.641   0.914  1.5095 -2.9811 -2.9685
   64MOL   H26130627   7.608   4.553   0.922 -0.7058  2.5665  2.4045
   64MOL   H26230628   7.477   4.697   1.294  2.7769  0.7204 -0.0246
   64MOL   H26330629   7.389   4.824   1.204 -0.3361  0.6880  0.5169
   64MOL   H26430630   7.657   4.913   1.206  0.0007 -0.5519  0.5888
   64MOL   H26530631   7.517   4.979   1.299 -1.1961 -0.1813  0.8046
   64MOL   O26630632   7.760   4.786   1.401  0.8401 -0.1826 -0.3357
   64MOL   C26730633   7.830   4.763   1.515  0.3117 -0.2179  0.1899
   64MOL   C26830634   0.091   4.705   1.479  0.8406  0.0969 -0.1275
   64MOL   C26930635   0.182   4.686   1.601  0.0678  0.8920  0.1333
   64MOL   C27030636   0.332   4.662   1.570  0.4526  0.0744 -0.3212
   64MOL   O27130637   0.388   4.788   1.541 -0.0689  0.0823 -0.4103
   64MOL   C27230638   0.453   4.856   1.636 -0.0751 -0.1497 -0.4972
   64MOL   O27330639   0.477   4.829   1.754 -0.1832 -0.1574  0.4573
   64MOL   C27430640   0.532   4.963   1.560 -0.3050  0.1468 -0.8765
   64MOL   C27530641   0.611   5.062   1.649 -0.5896 -0.4666  0.0279
   64MOL   C27630642   0.765   5.036   1.662  0.4144 -0.2620 -0.3867
   64MOL   O27730643   0.833   4.998   1.565  0.1889 -0.3301  0.4866
   64MOL   H27830644   7.837   4.858   1.568  1.0465 -0.3570  0.3483
   64MOL   H27930645   7.770   4.692   1.572 -1.5487  0.3857 -0.9691
   64MOL   H28030646   0.137   4.781   1.416 -0.6908  0.3748 -0.9336
   64MOL   H28130647   0.081   4.616   1.417  1.0913 -0.0104 -0.0134
   64MOL   H28230648   0.143   4.601   1.656 -0.6701  0.0078 -1.7118
   64MOL   H28330649   0.171   4.765   1.676  1.9603  2.4243 -1.1452
   64MOL   H28430650   0.378   4.614   1.656  0.7105  2.9414  1.1931
   64MOL   H28530651   0.348   4.592   1.489 -3.0286  0.0207 -1.0312
   64MOL   H28630652   0.463   5.014   1.493 -0.3377  1.0534 -0.1525
   64MOL   H28730653   0.598   4.903   1.497  0.6819  0.9875 -0.6442
   64MOL   H28830654   0.592   5.166   1.620  3.1027  0.6388  1.3482
   64MOL   H28930655   0.576   5.051   1.751  0.5923  0.2460  0.5109
   64MOL   O29030656   0.826   5.076   1.782 -0.2079  0.2893 -0.1600
   64MOL   C29130657   0.972   5.088   1.785  0.3373 -0.0153  0.4311
   64MOL   C29230658   1.004   5.184   1.899  0.1326 -0.0747  0.6351
   64MOL   C29330659   0.975   5.111   2.027  0.2565 -0.5586  0.2790
   64MOL   C29430660   0.997   5.194   2.151 -0.3208 -0.0332 -0.7071
   64MOL   O29530661   1.129   5.178   2.201 -0.3615  0.2517 -0.9206
   64MOL   C29630662   1.214   5.276   2.214 -0.3513 -0.0181  0.5835
   64MOL   O29730663   1.194   5.400   2.214 -0.9862 -0.6508 -0.2737
   64MOL   C29830664   1.355   5.205   2.227  0.0209 -0.4873  0.2849
   64MOL   C29930665   1.449   5.239   2.115  0.2214  0.0416  0.3222
   64MOL   C30030666   1.434   5.139   2.002 -0.6072  0.5962  0.0917
   64MOL   O30130667   1.355   5.155   1.909  0.2023 -0.4816 -0.4578
   64MOL   H30230668   1.018   4.994   1.816 -1.8155 -0.6292  1.8791
   64MOL   H30330669   1.012   5.103   1.685 -0.7589 -1.6973 -0.2843
   64MOL   H30430670   0.952   5.276   1.876  1.5608  0.0539 -2.3052
   64MOL   H30530671   1.108   5.211   1.880 -0.1534  0.1425 -0.6482
   64MOL   H30630672   1.006   5.007   2.037 -1.6415 -1.4404 -2.4296
   64MOL   H30730673   0.866   5.102   2.025  0.1389  0.0360  2.7044
   64MOL   H30830674   0.965   5.298   2.138  0.7954  0.2973 -0.8048
   64MOL   H30930675   0.941   5.166   2.240  0.5253 -0.2214 -0.2326
   64MOL   H31030676   1.338   5.098   2.232 -1.2163 -0.3176 -0.1965
   64MOL   H31130677   1.392   5.244   2.322 -1.5428  2.0410 -0.0907
   64MOL   H31230678   1.438   5.341   2.078  2.5805 -0.0348 -0.6729
   64MOL   H31330679   1.552   5.246   2.148 -0.3090  3.2504  1.4468
   64MOL   O31430680   1.498   5.021   2.023 -0.3438  0.2760 -0.4969
   64MOL   C31530681   1.491   4.923   1.918 -0.2310  0.6051 -0.7260
   64MOL   C31630682   1.403   4.796   1.937 -1.2362 -0.0249  0.0450
   64MOL   C31730683   1.252   4.823   1.921  0.2637  1.1571  0.0705
   64MOL   C31830684   1.178   4.696   1.876 -0.2561  0.2311  0.6962
   64MOL   O31930685   1.047   4.741   1.837 -0.5479  0.0160  0.0335
   64MOL   C32030686   0.967   4.644   1.786  0.2654  0.6427  0.2380
   64MOL   O32130687   0.997   4.526   1.753 -0.0748 -0.3890 -0.3749
   64MOL   C32230688   0.820   4.689   1.758 -0.9055 -0.3939 -1.0515
   64MOL   C32330689   0.730   4.571   1.751 -0.3963  0.2272  0.2792
   64MOL   C32430690   0.697   4.525   1.607 -0.0516 -0.1246  0.5157
   64MOL   O32530691   0.732   4.582   1.502 -0.3338  0.3605 -0.6136
   64MOL   H32630692   1.472   4.963   1.818 -1.0700 -1.1216 -1.2780
   64MOL   H32730693   1.595   4.892   1.905 -0.6416 -0.3186 -1.9843
   64MOL   H32830694   1.429   4.744   2.029  1.2626 -0.0568 -0.6554
   64MOL   H32930695   1.434   4.736   1.851 -0.5300  0.2829  0.0882
   64MOL   H33030696   1.236   4.895   1.841  0.6505  0.6490 -0.4667
   64MOL   H33130697   1.212   4.872   2.010  0.7636 -0.0200  0.9489
   64MOL   H33230698   1.219   4.668   1.779 -1.7890  1.2862 -0.2992
   64MOL   H33330699   1.173   4.618   1.952 -0.6318  0.0496  0.4884
   64MOL   H33430700   0.810   4.750   1.668  0.3695  0.5930 -0.5475
   64MOL   H33530701   0.790   4.757   1.838 -1.1299 -1.6477 -0.0509
   64MOL   H33630702   0.757   4.493   1.822 -0.0630  0.1661  0.0881
   64MOL   H33730703   0.633   4.611   1.778 -0.3958  0.3639  0.0809
   64MOL   O33830704   0.623   4.418   1.600 -0.4248  0.3804 -0.3535
   64MOL   C33930705   0.579   4.368   1.474 -0.0723 -0.3428  0.7337
   64MOL   C34030706   0.487   4.246   1.514 -0.0741 -1.1942 -0.2000
   64MOL   C34130707   0.341   4.282   1.561  0.3446 -0.0792  0.6466
   64MOL   C34230708   0.227   4.285   1.444  0.8276 -0.0336  0.1491
   64MOL   O34330709   0.116   4.329   1.516 -0.0927  0.1635  0.2768
   64MOL   C34430710   7.868   4.347   1.458  0.0106  0.5564  0.5702
   64MOL   O34530711   7.842   4.327   1.336 -0.4752  0.2770 -0.3092
   64MOL   C34630712   7.756   4.385   1.560 -0.0056  0.3497  0.7726
   64MOL   C34730713   7.638   4.438   1.487  0.2248  0.4085 -0.1039
   64MOL   C34830714   7.526   4.468   1.587 -0.2786  0.4133  0.2738
   64MOL   O34930715   7.539   4.434   1.707  0.1013 -0.5206 -0.3776
   64MOL   H35030716   0.529   4.444   1.414  0.8030  0.6022  1.1945
   64MOL   H35130717   0.671   4.335   1.427 -0.7313 -1.0930 -0.0565
   64MOL   H35230718   0.541   4.180   1.582  0.3154  1.7955  2.5577
   64MOL   H35330719   0.477   4.181   1.427  1.4424 -1.9787  0.1960
   64MOL   H35430720   0.340   4.366   1.630 -1.8587  0.3306  0.1498
   64MOL   H35530721   0.296   4.204   1.623  1.1191  0.2070  1.5734
   64MOL   H35630722   0.254   4.349   1.361  2.3901 -1.2139 -0.2764
   64MOL   H35730723   0.208   4.190   1.396 -1.8809 -0.3057  1.6739
   64MOL   H35830724   7.798   4.456   1.631 -0.0582  1.0294  0.1342
   64MOL   H35930725   7.732   4.290   1.608  0.6753 -0.0045  0.4243
   64MOL   H36030726   7.666   4.531   1.438  1.8096  0.6437  1.2039
   64MOL   H36130727   7.589   4.368   1.420 -1.0407  0.2020  1.0170
   64MOL   O36230728   7.411   4.519   1.536  1.1115  0.0482  0.1365
   64MOL   C36330729   7.307   4.563   1.615 -0.0786  0.6215  0.4599
   64MOL   C36430730   7.243   4.685   1.554  0.1036 -0.4100 -0.5280
   64MOL   C36530731   7.161   4.651   1.431  0.6676 -0.4300 -0.0340
   64MOL   C36630732   7.036   4.578   1.474 -0.5587 -0.2463  0.0649
   64MOL   O36730733   6.964   4.525   1.360 -0.3144 -0.7483  0.3089
   64MOL   C36830734   6.940   4.390   1.345  0.0471 -0.1724 -0.5157
   64MOL   O36930735   6.979   4.298   1.419 -0.0922  0.0025 -0.1339
   64MOL   C37030736   6.856   4.354   1.222 -0.1062  0.4492  0.1960
   64MOL   C37130737   6.701   4.401   1.229 -0.9499  0.0732 -0.7426
   64MOL   C37230738   6.659   4.482   1.106 -0.0641 -0.5938  0.3951
   64MOL   O37330739   6.570   4.444   1.027  0.1388 -0.1765 -0.0073
   64MOL   H37430740   7.237   4.485   1.643  1.8007 -0.5768  1.9259
   64MOL   H37530741   7.343   4.601   1.710 -0.8196  0.5362  0.7821
   64MOL   H37630742   7.324   4.757   1.538 -0.3573  0.6686  1.7188
   64MOL   H37730743   7.188   4.741   1.630  0.0429  0.0483 -0.9037
   64MOL   H37830744   7.213   4.591   1.356 -0.4857 -0.1762 -1.0537
   64MOL   H37930745   7.129   4.740   1.376 -2.1144 -1.4071 -0.1239
   64MOL   H38030746   7.058   4.490   1.536  0.0011  0.5717  1.0544
   64MOL   H38130747   6.966   4.641   1.528 -1.0040 -0.0651 -0.7217
   64MOL   H38230748   6.864   4.247   1.208  2.5161  0.4244  1.6508
   64MOL   H38330749   6.908   4.398   1.137  1.5984  1.8743  1.9278
   64MOL   H38430750   6.628   4.325   1.257  0.0046  0.8379  4.3874
   64MOL   H38530751   6.696   4.462   1.319  1.3253 -1.8979  0.7886
   64MOL   O38630752   6.706   4.605   1.095  0.4588  0.9012  0.0111
   64MOL   C38730753   6.644   4.696   0.998  0.2960  0.2047  0.6405
   64MOL   C38830754   6.714   4.680   0.861 -0.1530  0.1405  0.2128
   64MOL   C38930755   6.663   4.770   0.745 -0.2029  0.5280 -0.1126
   64MOL   C39030756   6.745   4.735   0.612 -0.2255  0.0364  0.8177
   64MOL   O39130757   6.696   4.802   0.498  0.3171  0.3324 -0.4219
   64MOL   C39230758   6.753   4.920   0.465 -0.0257  0.2478  0.4991
   64MOL   O39330759   6.858   4.961   0.507  0.3947 -0.0457 -0.2779
   64MOL   C39430760   6.674   4.997   0.360  1.0628 -0.0908 -0.3677
   64MOL   C39530761   6.748   5.123   0.302  0.1755  0.3642 -0.5701
   64MOL   C39630762   6.781   5.110   0.154 -0.1396  0.2569 -0.3127
   64MOL   O39730763   6.715   5.173   0.075 -0.4978 -0.0062 -0.1652
   64MOL   H39830764   6.542   4.663   0.981  0.8373 -1.8634  1.2659
   64MOL   H39930765   6.652   4.800   1.029 -1.0377  0.3255  0.6002
   64MOL   H40030766   6.714   4.574   0.835  0.3936 -0.7720  3.5924
   64MOL   H40130767   6.821   4.703   0.866 -0.0381 -0.4923  0.8395
   64MOL   H40230768   6.679   4.878   0.754 -0.0106  0.5555 -0.6959
   64MOL   H40330769   6.558   4.753   0.722 -0.7280  1.6329  1.3794
   64MOL   H40430770   6.853   4.729   0.620 -0.2660 -0.8877  0.7567
   64MOL   H40530771   6.724   4.630   0.588  1.4268  0.0633 -0.7823
   64MOL   H40630772   6.574   5.023   0.395  1.3596  1.3137 -0.5345
   64MOL   H40730773   6.657   4.920   0.284  0.4134 -1.3004  0.9610
   64MOL   H40830774   6.678   5.206   0.310 -2.8803 -2.3836  2.2081
   64MOL   H40930775   6.850   5.145   0.334 -1.1543  4.7312  1.1252
   64MOL   O41030776   6.874   5.018   0.120 -0.0477 -0.1265  0.6019
   64MOL   C41130777   6.890   4.983   7.863  0.4051 -0.3928 -0.1307
   64MOL   C41230778   6.987   5.080   7.784  0.2181  0.1498 -0.1761
   64MOL   C41330779   7.136   5.048   7.810  0.0035  0.2475 -0.3009
   64MOL   C41430780   7.247   5.150   7.762  0.1274 -0.7895  0.2527
   64MOL   O41530781   7.362   5.123   7.831  0.0635 -0.0210  0.0694
   64MOL   C41630782   7.470   5.199   7.823  0.3364  0.2446  0.5920
   64MOL   O41730783   7.482   5.301   7.753  0.0975  0.6599  0.4542
   64MOL   C41830784   7.575   5.159   0.048 -0.0626 -0.0161  0.4183
   64MOL   C41930785   7.527   5.137   0.188  0.2114 -0.7613 -0.5541
   64MOL   C42030786   7.522   4.984   0.220 -0.2764  0.3421 -1.0503
   64MOL   O42130787   7.623   4.920   0.208  0.2646  0.2103  0.2754
   64MOL   H42230788   6.933   4.884   7.844  0.9864  0.3468 -2.8098
   64MOL   H42330789   6.795   4.984   7.809  1.0038  0.7665 -1.1805
   64MOL   H42430790   6.948   5.175   7.820  1.3431  0.1486  1.0797
   64MOL   H42530791   6.963   5.089   7.678 -0.5432  0.8106  0.0517
   64MOL   H42630792   7.148   4.944   7.781 -2.8789 -0.6160  1.3845
   64MOL   H42730793   7.138   5.041   0.044  1.7289  3.4321 -0.0760
   64MOL   H42830794   7.268   5.145   7.655  1.3210  0.3556  0.4147
   64MOL   H42930795   7.231   5.256   7.782  0.3735 -0.1862 -2.5960
   64MOL   H43030796   7.635   5.249   0.065 -0.3167  0.3011 -0.3358
   64MOL   H43130797   7.635   5.075   0.014  1.3072  1.3523 -0.6611
   64MOL   H43230798   7.597   5.186   0.257  0.0195 -0.4807 -0.5584
   64MOL   H43330799   7.430   5.185   0.203  1.3214  0.6216  2.7314
   64MOL   O43430800   7.399   4.927   0.231 -0.6301 -0.3676  0.6131
   64MOL   C43530801   7.398   4.794   0.259  0.5021 -0.2098 -0.3421
   64MOL   C43630802   7.269   4.719   0.214  0.0308  0.8300  0.2854
   64MOL   C43730803   7.141   4.773   0.280 -0.0791  0.3737  0.0812
   64MOL   C43830804   7.022   4.680   0.272  0.8634 -0.4485  0.2381
   64MOL   O43930805   7.053   4.568   0.350  0.4510 -0.6349  0.0167
   64MOL   C44030806   6.965   4.468   0.374 -0.1420 -0.0973 -0.3216
   64MOL   O44130807   6.871   4.450   0.297  0.5714  0.3139  0.3326
   64MOL   C44230808   6.998   4.376   0.487  0.4993 -0.3629  0.2320
   64MOL   C44330809   6.872   4.304   0.532  0.3631 -0.3609 -0.1437
   64MOL   C44430810   6.877   4.280   0.684  0.0315  0.7452  0.4647
   64MOL   O44530811   6.813   4.360   0.756 -0.1895 -0.5734  0.6456
   64MOL   H44630812   7.485   4.737   0.223  0.9982 -0.7971  1.7275
   64MOL   H44730813   7.404   4.785   0.367 -0.0591 -0.6100 -0.3432
   64MOL   H44830814   7.279   4.617   0.249 -0.5894 -0.2874 -2.6368
   64MOL   H44930815   7.258   4.714   0.106  0.0983 -1.0748  0.3556
   64MOL   H45030816   7.116   4.871   0.239  0.9241  1.3175  1.6642
   64MOL   H45130817   7.156   4.794   0.386 -1.8976  1.0606  0.2149
   64MOL   H45230818   6.938   4.734   0.317 -0.2626 -1.0288 -1.1585
   64MOL   H45330819   6.998   4.648   0.171 -0.3713 -0.2828  0.4701
   64MOL   H45430820   7.041   4.447   0.557  0.0196  0.6701 -0.5099
   64MOL   H45530821   7.071   4.314   0.437  0.0672 -0.4566 -0.2846
   64MOL   H45630822   6.789   4.371   0.512  1.0451  1.0866  1.7404
   64MOL   H45730823   6.871   4.202   0.494 -2.4983 -1.1381  1.8212
   64MOL   O45830824   6.942   4.167   0.720  0.5833  0.0254  0.7627
   64MOL   C45930825   6.969   4.150   0.855 -0.0792  0.2650  0.0233
   64MOL   C46030826   7.106   4.208   0.915  0.3767 -0.0264 -0.0277
   64MOL   C46130827   7.108   4.363   0.899 -0.1338 -0.6149  0.1379
   64MOL   C46230828   7.246   4.419   0.944  0.1342  0.5616 -0.0694
   64MOL   O46330829   7.340   4.360   0.854 -0.0008 -0.2751  0.6443
   64MOL   C46430830   7.363   4.417   0.731  0.3883  0.9876  0.2464
   64MOL   O46530831   7.302   4.516   0.678  0.3465 -0.0442 -0.0525
   64MOL   C46630832   7.482   4.347   0.670  0.0828  0.3844 -0.1363
   64MOL   C46730833   7.461   4.322   0.520 -0.6901 -0.1654 -0.3740
   64MOL   C46830834   7.559   4.218   0.467  0.5583 -0.2426  0.3184
   64MOL   O46930835   7.650   4.170   0.530  0.6375  0.0666  0.0275
   64MOL   H47030836   6.892   4.183   0.924  1.6394  1.1607  1.5669
   64MOL   H47130837   6.975   4.041   0.859 -0.0689  0.1949 -1.5283
   64MOL   H47230838   7.183   4.155   0.859 -0.4997  0.3721 -1.6355
   64MOL   H47330839   7.118   4.177   1.019  1.5818  1.4248  0.2750
   64MOL   H47430840   7.027   4.411   0.953  2.2902  2.4748  1.1488
   64MOL   H47530841   7.101   4.393   0.794 -1.2312  0.3812  0.4933
   64MOL   H47630842   7.263   4.526   0.933 -1.6789  0.9102  0.4319
   64MOL   H47730843   7.273   4.389   1.045  1.0602  0.8128 -0.2384
   64MOL   H47830844   7.502   4.257   0.728  0.5031 -0.7076 -1.9440
   64MOL   H47930845   7.568   4.413   0.684  1.4780 -1.5669  0.7056
   64MOL   H48030846   7.358   4.296   0.497 -1.7757  2.3927  1.3684
   64MOL   H48130847   7.476   4.413   0.462  0.1891 -1.1097 -1.6482
   64MOL   H48230848   7.526   4.183   0.369  1.5741  1.3635 -0.6217
   65MOL     O130849   6.594   4.631   0.246  0.1153 -0.0728  0.5152
   65MOL     C230850   6.617   4.606   0.109 -0.0666  0.6276  0.1864
   65MOL     C330851   6.584   4.723   0.017 -0.0319 -0.1682  0.1541
   65MOL     C430852   6.447   4.786   0.048  1.0481 -0.6288 -0.4646
   65MOL     C530853   6.406   4.913   7.843  0.0132 -0.5765  0.0207
   65MOL     O630854   6.353   4.869   7.717  0.5412 -0.1481  0.0121
   65MOL     C730855   6.325   4.957   7.622  0.1355  0.6322 -0.1812
   65MOL     O830856   6.347   5.079   7.627  0.9686  0.1282  0.0295
   65MOL     C930857   6.273   4.895   7.494  0.0011  0.6158  0.4668
   65MOL    C1030858   6.142   4.964   7.444 -0.0818 -0.3235  0.1461
   65MOL    C1130859   6.151   4.993   7.294  0.5282  0.2824  0.5027
   65MOL    O1230860   6.112   5.099   7.243 -0.0320 -0.0119 -0.3822
   65MOL    H1330861   6.716   4.565   0.089 -1.0479 -0.6709 -2.3221
   65MOL    H1430862   6.550   4.521   0.089 -2.0701  2.4655 -1.1845
   65MOL    H1530863   6.598   4.707   7.785 -1.8145 -1.2014  0.0550
   65MOL    H1630864   6.659   4.797   0.045 -1.4161  1.2497  0.1192
   65MOL    H1730865   6.456   4.830   0.147  0.3504  2.3428 -1.6544
   65MOL    H1830866   6.375   4.704   0.052  1.4847 -0.9826  0.0500
   65MOL    H1930867   6.328   4.983   7.873  0.6570  0.1980 -0.0922
   65MOL    H2030868   6.487   4.985   7.830  0.4576 -0.5451  2.6970
   65MOL    H2130869   6.255   4.788   7.497 -2.4528  1.0095  1.1080
   65MOL    H2230870   6.354   4.917   7.425 -0.6800 -1.6297 -1.0858
   65MOL    H2330871   6.045   4.920   7.469 -0.3023  0.1353  0.1055
   65MOL    H2430872   6.133   5.064   7.488  0.4529 -0.0116 -0.4393
   65MOL    H2530873   6.674   4.603   0.288  0.1511  0.6463  0.9235
   65MOL    O2630874   6.190   4.892   7.226 -0.6167 -0.4805 -0.5599
   65MOL    C2730875   6.199   4.894   7.086 -0.0812 -0.1285 -0.4474
   65MOL    C2830876   6.250   4.760   7.036 -0.4145  0.1851  0.1832
   65MOL    C2930877   6.395   4.745   7.064  0.2194 -0.0761 -0.2797
   65MOL    C3030878   6.432   4.593   7.071  0.0952  0.1084  0.4838
   65MOL    O3130879   6.569   4.581   7.116  1.0042  0.2397  0.2916
   65MOL    C3230880   6.659   4.550   7.022  0.1819 -0.1422  0.1495
   65MOL    O3330881   6.642   4.574   6.904  0.2073 -0.0744  0.3332
   65MOL    C3430882   6.791   4.506   7.082  0.3443 -0.2180  0.3002
   65MOL    C3530883   6.867   4.401   7.001  0.3955 -0.2665 -0.1362
   65MOL    C3630884   6.946   4.454   6.880  0.0472 -0.4070 -0.3604
   65MOL    O3730885   7.027   4.548   6.895  0.0497  0.5918  0.3073
   65MOL    H3830886   6.096   4.921   7.063 -0.0732  0.6743  0.4124
   65MOL    H3930887   6.270   4.972   7.056  1.9011 -1.8161 -0.2661
   65MOL    H4030888   6.241   4.741   6.929 -0.3607 -1.0924  0.3961
   65MOL    H4130889   6.188   4.687   7.087  0.0754 -0.7813 -0.5913
   65MOL    H4230890   6.419   4.796   7.157 -3.3484  2.3623 -0.6285
   65MOL    H4330891   6.454   4.803   6.993  2.5346 -0.9437  0.8522
   65MOL    H4430892   6.369   4.544   7.145 -1.1294 -1.8594 -1.7783
   65MOL    H4530893   6.418   4.530   6.983  2.4126  0.5505 -0.2375
   65MOL    H4630894   6.777   4.478   7.186  1.2583 -2.8257 -0.2157
   65MOL    H4730895   6.859   4.590   7.097 -1.8139  1.5116  0.4858
   65MOL    H4830896   6.928   4.344   7.071  1.1544 -2.1229 -2.2482
   65MOL    H4930897   6.802   4.319   6.969  0.8910 -0.9383  0.5619
   65MOL    O5030898   6.922   4.394   6.761  0.3543 -0.4882 -0.1340
   65MOL    C5130899   6.968   4.452   6.641  0.0134  0.8134  0.4822
   65MOL    C5230900   6.950   4.346   6.531 -0.1833  0.8359 -0.2475
   65MOL    C5330901   6.982   4.404   6.388 -0.5623 -0.1053 -0.5474
   65MOL    C5430902   6.976   4.283   6.285 -0.0863 -0.4477  0.1988
   65MOL    O5530903   7.080   4.188   6.323 -0.3871 -0.1599 -0.3818
   65MOL    C5630904   7.206   4.205   6.290  0.0115  0.4133  0.3488
   65MOL    O5730905   7.252   4.296   6.225 -0.4394  0.1256  0.3568
   65MOL    C5830906   7.306   4.101   6.346  0.0624  0.3734 -0.6981
   65MOL    C5930907   7.230   3.982   6.411 -0.6131 -0.3613  0.7108
   65MOL    C6030908   7.182   4.009   6.550 -0.2524 -0.2044 -0.4887
   65MOL    O6130909   7.214   4.114   6.613 -0.1752 -0.7647 -0.2340
   65MOL    H6230910   6.912   4.543   6.620 -0.0204  1.5762  3.5240
   65MOL    H6330911   7.072   4.486   6.646 -0.3302  1.6228  2.9396
   65MOL    H6430912   6.846   4.314   6.543  0.3310 -0.1647  1.7112
   65MOL    H6530913   7.008   4.259   6.558  0.0966  1.6939  2.0072
   65MOL    H6630914   7.083   4.444   6.396 -0.4661 -0.4527 -0.0100
   65MOL    H6730915   6.918   4.486   6.357  0.0090  1.1619  1.5113
   65MOL    H6830916   6.878   4.235   6.287  0.0081 -0.7176  4.6123
   65MOL    H6930917   7.004   4.331   6.191  0.1596 -1.7046 -0.3801
   65MOL    H7030918   7.359   4.143   6.431  0.4625  3.5443 -2.4180
   65MOL    H7130919   7.371   4.071   6.263 -0.1197  1.8138 -1.3709
   65MOL    H7230920   7.155   3.945   6.341  1.7768 -2.0321 -1.0442
   65MOL    H7330921   7.293   3.894   6.426 -0.1257 -0.0663  0.4185
   65MOL    O7430922   7.089   3.923   6.594  0.1160  1.0341 -0.2964
   65MOL    C7530923   7.035   3.921   6.721  0.0661  0.2437 -0.7280
   65MOL    C7630924   7.133   3.825   6.799 -1.0271  0.4754  0.2459
   65MOL    C7730925   7.098   3.791   6.945 -0.0827 -0.1574  0.4579
   65MOL    C7830926   7.146   3.887   7.052 -0.1413 -0.1142 -0.1587
   65MOL    O7930927   7.287   3.892   7.050 -0.0819  0.0060 -0.1038
   65MOL    C8030928   7.346   3.798   7.124 -0.0680  0.1911  0.7793
   65MOL    O8130929   7.284   3.708   7.175  0.1667  0.2087  0.3315
   65MOL    C8230930   7.495   3.814   7.135  0.4029 -0.1448  0.1849
   65MOL    C8330931   7.539   3.798   7.281 -0.3709 -0.0179  0.8580
   65MOL    C8430932   7.651   3.900   7.305  0.1788 -0.1821  0.3025
   65MOL    O8530933   7.770   3.868   7.326  0.0557  0.6105  0.3054
   65MOL    H8630934   7.020   4.016   6.774  1.7972  0.0046  0.2257
   65MOL    H8730935   6.946   3.861   6.701 -0.1963  0.6845 -0.8964
   65MOL    H8830936   7.233   3.868   6.806 -1.1371  0.3453  3.5265
   65MOL    H8930937   7.141   3.735   6.739 -0.7022 -0.0373  1.0534
   65MOL    H9030938   7.142   3.694   6.968 -1.1382 -0.5960  0.6201
   65MOL    H9130939   6.990   3.791   6.953 -0.0335  1.1065  1.2801
   65MOL    H9230940   7.116   3.992   7.054  1.0205  0.2506 -1.4305
   65MOL    H9330941   7.105   3.859   7.149  0.7603 -0.7680  0.0463
   65MOL    H9430942   7.520   3.913   7.097 -0.1147 -0.4523 -1.0007
   65MOL    H9530943   7.545   3.741   7.071  0.9330  0.6390 -0.3102
   65MOL    H9630944   7.454   3.813   7.348 -0.4247 -0.9586  1.0041
   65MOL    H9730945   7.587   3.701   7.292 -0.8332 -0.3567 -0.0491
   65MOL    O9830946   7.605   4.021   7.313  0.2524  0.1642  0.0504
   65MOL    C9930947   7.683   4.128   7.355 -0.7461 -0.4144 -0.2700
   65MOL   C10030948   7.602   4.241   7.422 -0.1174 -0.2329 -0.3745
   65MOL   C10130949   7.529   4.337   7.328 -0.3684 -0.2271 -0.5888
   65MOL   C10230950   7.401   4.389   7.403 -0.5170  0.3776 -0.0218
   65MOL   O10330951   7.355   4.506   7.341 -0.5830 -0.6676 -0.2891
   65MOL   C10430952   7.261   4.497   7.243  0.3692  0.2482 -0.1605
   65MOL   O10530953   7.217   4.390   7.205 -0.2779 -0.2056  0.2585
   65MOL   C10630954   7.226   4.638   7.180  0.2925  0.1340  0.3693
   65MOL   C10730955   7.169   4.731   7.282  0.6127 -0.1090  0.2075
   65MOL   C10830956   7.278   4.822   7.318  0.1514 -0.7397 -0.0779
   65MOL   O10930957   7.324   4.910   7.237 -0.2669  0.5795 -0.5201
   65MOL   H11030958   7.753   4.091   7.431  2.3305  2.8520 -1.3854
   65MOL   H11130959   7.744   4.158   7.270 -2.7482  0.0496 -1.5799
   65MOL   H11230960   7.667   4.296   7.489 -1.0551 -0.5306  0.7972
   65MOL   H11330961   7.527   4.194   7.486 -1.2170 -0.1301 -1.5548
   65MOL   H11430962   7.481   4.283   7.246  0.8377 -0.5860 -1.0648
   65MOL   H11530963   7.603   4.407   7.292  1.0111 -1.2955  0.1039
   65MOL   H11630964   7.333   4.305   7.419 -0.4291  0.7819  2.8269
   65MOL   H11730965   7.423   4.415   7.507 -2.1303  1.1494  0.1488
   65MOL   H11830966   7.153   4.610   7.104  0.1238 -0.5361  0.7736
   65MOL   H11930967   7.312   4.690   7.137  0.1493  1.3334  1.5206
   65MOL   H12030968   7.088   4.792   7.244  0.2991  0.3056  1.5292
   65MOL   H12130969   7.130   4.672   7.365 -1.4951  1.5856  0.4370
   65MOL   O12230970   7.324   4.801   7.440 -0.3654 -0.2958 -0.2823
   65MOL   C12330971   7.427   4.893   7.501 -0.1428  0.1707 -0.0981
   65MOL   C12430972   7.445   4.854   7.653  0.5797 -0.0668  1.2320
   65MOL   C12530973   7.505   4.706   7.663 -0.3814  0.4963  0.1862
   65MOL   C12630974   7.530   4.677   7.814  0.4548 -0.1513 -1.0954
   65MOL   O12730975   7.578   4.542   7.817 -0.0128 -0.4334 -0.3475
   65MOL   C12830976   7.615   4.483   0.060  0.4943 -0.4571  0.2852
   65MOL   O12930977   7.590   4.530   0.175  0.0769  0.1105  0.4848
   65MOL   C13030978   7.685   4.354   0.034  0.2479 -0.0009 -0.2025
   65MOL   C13130979   7.644   4.280   7.770 -0.2691 -0.3039  0.6643
   65MOL   C13230980   7.721   4.148   7.743  0.8864  1.0010  0.4586
   65MOL   O13330981   7.660   4.044   7.714 -0.3434 -0.5501 -0.0342
   65MOL   H13430982   7.524   4.871   7.455 -0.4719 -3.3965  0.8230
   65MOL   H13530983   7.397   4.995   7.475  1.2153  1.1448  1.9867
   65MOL   H13630984   7.345   4.853   7.696 -1.4296  0.1888 -3.1292
   65MOL   H13730985   7.504   4.925   7.710 -1.7317  3.2171 -0.2624
   65MOL   H13830986   7.603   4.702   7.616 -0.7255 -1.5446 -0.3860
   65MOL   H13930987   7.439   4.634   7.614 -2.3972  1.8334  0.8791
   65MOL   H14030988   7.603   4.748   7.852  1.2759 -1.0066 -1.0463
   65MOL   H14130989   7.441   4.684   0.002  0.6474  1.3313 -0.9704
   65MOL   H14230990   7.673   4.294   0.124 -3.0176  1.0009  0.0986
   65MOL   H14330991   7.791   4.379   0.023 -0.4386  2.8158 -0.7564
   65MOL   H14430992   7.538   4.253   7.773 -0.6022  0.8142 -0.6057
   65MOL   H14530993   7.642   4.359   7.696 -2.9994 -1.8736 -1.0528
   65MOL   O14630994   7.851   4.156   7.780 -0.3167  0.2112 -0.3539
   65MOL   C14730995   0.058   4.044   7.791 -0.2487  0.3319  0.2595
   65MOL   C14830996   0.121   4.009   7.653 -0.0235 -0.2056 -0.1472
   65MOL   C14930997   0.253   3.928   7.670  0.7817 -0.4910 -0.7118
   65MOL   C15030998   0.352   3.991   7.769  0.1758 -0.1643  0.3577
   65MOL   O15130999   0.473   3.909   7.777 -0.0775 -0.0011  0.6086
   65MOL   C15231000   0.595   3.946   7.724 -0.5078 -0.5166 -0.3596
   65MOL   O15331001   0.627   4.059   7.687 -0.2128  0.0212 -0.1472
   65MOL   C15431002   0.695   3.823   7.716 -0.1119 -0.4888 -0.4436
   65MOL   C15531003   0.698   3.783   7.565  0.0441  0.5456 -0.1775
   65MOL   C15631004   0.594   3.671   7.546 -0.2868 -0.5680 -0.5476
   65MOL   O15731005   0.611   3.561   7.608  0.2597 -0.2583  0.2492
   65MOL   H15831006   0.129   4.061   7.871 -0.8080 -1.1327  1.0726
   65MOL   H15931007   7.865   3.966   7.825 -0.6005 -0.8623 -2.9858
   65MOL   H16031008   0.128   4.106   7.602  1.6832 -0.9226 -1.3338
   65MOL   H16131009   0.044   3.958   7.595  0.4969  0.1322 -1.1544
   65MOL   H16231010   0.306   3.908   7.577 -0.7039 -0.4133 -1.5895
   65MOL   H16331011   0.245   3.824   7.700  2.0767 -0.6490 -0.9016
   65MOL   H16431012   0.360   4.092   7.730  0.0369 -0.8527 -1.5250
   65MOL   H16531013   0.318   3.995   7.872 -3.0592  3.0271 -0.7475
   65MOL   H16631014   0.660   3.739   7.776 -0.9671 -1.1265 -1.8059
   65MOL   H16731015   0.796   3.855   7.741 -0.3223  0.5273 -0.8671
   65MOL   H16831016   0.685   3.875   7.508  2.5938  1.3492  0.4677
   65MOL   H16931017   0.788   3.726   7.546 -0.4151 -0.2314 -0.0540
   65MOL   O17031018   0.481   3.709   7.484 -0.3295  0.8324 -0.3542
   65MOL   C17131019   0.367   3.618   7.486 -0.5052  0.1453 -0.1180
   65MOL   C17231020   0.270   3.644   7.368 -0.0557 -0.5799 -0.1696
   65MOL   C17331021   0.127   3.599   7.388  0.0490 -0.0691  0.1780
   65MOL   C17431022   0.032   3.615   7.266  0.0488  0.2464  0.9446
   65MOL   O17531023   0.093   3.526   7.174  0.4367  0.9799  0.2702
   65MOL   C17631024   0.117   3.552   7.040  0.0315 -0.0185  0.1054
   65MOL   O17731025   0.095   3.660   6.986 -0.0885  0.2418 -0.7332
   65MOL   C17831026   0.168   3.434   6.963  0.2194 -0.4128 -0.1341
   65MOL   C17931027   0.267   3.349   7.035 -0.4200  0.2750  0.1597
   65MOL   C18031028   0.266   3.201   6.998  0.7173  0.4743 -0.1645
   65MOL   O18131029   0.266   3.117   7.090 -0.5610  0.4879 -0.4177
   65MOL   H18231030   0.399   3.516   7.466  1.5667  0.8681 -0.6496
   65MOL   H18331031   0.326   3.619   7.587  0.1376  1.6157  0.1373
   65MOL   H18431032   0.327   3.602   7.285  2.2372  2.9340 -0.4484
   65MOL   H18531033   0.268   3.752   7.356  1.7225 -0.7908 -2.6437
   65MOL   H18631034   0.082   3.655   7.471 -2.4021 -0.7450 -0.6307
   65MOL   H18731035   0.121   3.497   7.426 -3.2675 -0.4778 -1.2105
   65MOL   H18831036   7.805   3.587   7.293 -0.7706 -0.0515 -2.2678
   65MOL   H18931037   0.033   3.719   7.234  1.9936 -0.1877 -0.4923
   65MOL   H19031038   0.204   3.469   6.866  0.9390  1.0687  0.6629
   65MOL   H19131039   0.074   3.380   6.948 -0.4388  0.8535 -0.7104
   65MOL   H19231040   0.368   3.392   7.040 -0.6456  0.8336 -0.0280
   65MOL   H19331041   0.243   3.349   7.141  0.3992  1.7065  0.3631
   65MOL   O19431042   0.269   3.176   6.871  0.5509  0.5124  0.0715
   65MOL   C19531043   0.277   3.042   6.829  0.2689  0.0258 -0.5295
   65MOL   C19631044   0.134   2.969   6.830  0.2968 -0.2090  0.2042
   65MOL   C19731045   0.145   2.830   6.784 -0.6980 -0.7606 -0.1880
   65MOL   C19831046   0.013   2.747   6.780  0.0597  1.0185 -0.1121
   65MOL   O19931047   7.831   2.730   6.907  0.2220 -0.1325  0.3548
   65MOL   C20031048   7.708   2.672   6.927  1.0042  0.0282 -0.3033
   65MOL   O20131049   7.650   2.620   6.831  0.3712  0.4312 -0.2588
   65MOL   C20231050   7.658   2.657   7.070 -0.2397  0.1738 -0.3198
   65MOL   C20331051   7.752   2.570   7.148  0.5659 -0.4062  0.1628
   65MOL   C20431052   7.813   2.655   7.262 -0.4928  0.0682  0.0974
   65MOL   O20531053   7.746   2.680   7.361 -0.3357  0.3791 -0.5061
   65MOL   H20631054   0.296   3.054   6.722  1.3430 -0.4359 -0.3886
   65MOL   H20731055   0.356   2.986   6.878 -0.0133  1.4197  1.5697
   65MOL   H20831056   0.068   3.023   6.763 -0.2045 -0.4398  0.5110
   65MOL   H20931057   0.095   2.982   6.931  0.7289  0.2216  0.3194
   65MOL   H21031058   0.217   2.772   6.842 -0.4659  0.2873  0.5967
   65MOL   H21131059   0.184   2.832   6.683  1.8951  2.8609  0.7655
   65MOL   H21231060   7.823   2.796   6.706 -0.3946  0.3618 -0.1560
   65MOL   H21331061   0.033   2.649   6.736  1.2786  1.0388  0.3901
   65MOL   H21431062   7.557   2.617   7.069 -1.1489  2.3047  1.4671
   65MOL   H21531063   7.649   2.760   7.105  0.4953 -0.0006  0.3793
   65MOL   H21631064   7.692   2.488   7.188  0.1557 -0.0451  0.2918
   65MOL   H21731065   7.831   2.522   7.091  0.0227 -2.8181  1.3463
   65MOL   O21831066   0.073   2.662   7.257  0.0400 -0.4166  0.1094
   65MOL   C21931067   0.155   2.721   7.363 -0.4440  0.4720 -0.0952
   65MOL   C22031068   0.303   2.696   7.315  0.3136 -0.0191  0.1779
   65MOL   C22131069   0.333   2.790   7.188  0.0601 -0.2187 -0.8580
   65MOL   C22231070   0.471   2.771   7.131 -0.1501  0.6912  0.1076
   65MOL   O22331071   0.482   2.656   7.050  0.2222  0.2424 -0.2692
   65MOL   C22431072   0.510   2.667   6.930 -0.7939  0.0560  0.0836
   65MOL   O22531073   0.505   2.763   6.855  0.1347  0.1471  0.2312
   65MOL   C22631074   0.583   2.539   6.886 -0.0401 -0.4358 -0.1114
   65MOL   C22731075   0.737   2.544   6.923 -0.5910  0.1566 -0.3021
   65MOL   C22831076   0.801   2.438   6.835 -0.5760 -0.3931 -0.1394
   65MOL   O22931077   0.815   2.455   6.715  0.3587  0.7626  0.5568
   65MOL   H23031078   0.138   2.826   7.388  2.2837  0.7600  0.7283
   65MOL   H23131079   0.133   2.673   7.459 -0.7702  1.3845  0.2922
   65MOL   H23231080   0.319   2.591   7.289 -2.4233 -0.5099  0.3200
   65MOL   H23331081   0.367   2.711   7.402 -1.0805  0.7421  1.0848
   65MOL   H23431082   0.338   2.893   7.225 -1.6556  0.0223 -1.2954
   65MOL   H23531083   0.254   2.768   7.116 -0.7968  0.7659 -0.2309
   65MOL   H23631084   0.483   2.865   7.077 -0.9116  1.6958  1.6437
   65MOL   H23731085   0.552   2.769   7.203 -0.0860 -1.3235  0.0209
   65MOL   H23831086   0.557   2.526   6.781 -1.2388 -0.2653  0.1578
   65MOL   H23931087   0.529   2.459   6.936 -0.5289  0.0624  0.1571
   65MOL   H24031088   0.783   2.641   6.904 -0.0491 -0.2884 -1.3388
   65MOL   H24131089   0.759   2.532   7.029  2.2288 -0.5202 -0.9270
   65MOL   O24231090   0.862   2.353   6.917 -0.6420 -0.4662  0.0069
   65MOL   C24331091   0.959   2.261   6.870 -0.0862 -0.6490  0.8715
   65MOL   C24431092   1.097   2.288   6.929  0.1488 -0.2355 -0.2488
   65MOL   C24531093   1.140   2.433   6.901  0.3128  0.8625 -0.5107
   65MOL   C24631094   1.281   2.434   6.962 -0.4677  0.0352 -0.4803
   65MOL   O24731095   1.371   2.380   6.859  0.1590 -0.6686  0.3911
   65MOL   C24831096   1.468   2.453   6.817 -0.1699  0.6666  0.5475
   65MOL   O24931097   1.502   2.566   6.859 -0.0632  0.4054  0.0578
   65MOL   C25031098   1.548   2.383   6.711 -0.2143  0.3188 -0.1806
   65MOL   C25131099   1.472   2.368   6.573 -0.1204  0.7185 -0.4044
   65MOL   C25231100   1.515   2.483   6.489 -0.3792  0.3776 -0.3267
   65MOL   O25331101   1.601   2.471   6.404 -0.1901 -0.4012 -0.4401
   65MOL   H25431102   0.914   2.167   6.902 -3.7508  1.2080  1.4214
   65MOL   H25531103   0.961   2.267   6.761 -0.8745  2.0282  0.9600
   65MOL   H25631104   1.172   2.217   6.897  1.9222  1.5721 -0.1859
   65MOL   H25731105   1.100   2.283   7.038 -0.7233  0.2932 -0.1941
   65MOL   H25831106   1.075   2.504   6.953 -0.0337  1.0781 -1.2280
   65MOL   H25931107   1.130   2.453   6.794  0.1284 -0.1534 -0.6829
   65MOL   H26031108   1.293   2.536   6.998 -0.3246  0.3388 -1.3719
   65MOL   H26131109   1.283   2.375   7.053  1.0112 -0.8333 -1.0664
   65MOL   H26231110   1.552   2.280   6.745 -0.9847 -0.1176 -1.3546
   65MOL   H26331111   1.648   2.422   6.694 -0.3756  0.1688 -1.5854
   65MOL   H26431112   1.505   2.271   6.535 -2.2895 -0.4111  0.5424
   65MOL   H26531113   1.365   2.368   6.590  0.5102 -1.1818  4.1636
   65MOL   O26631114   1.457   2.605   6.525 -0.6028  0.6024 -0.0357
   65MOL   C26731115   1.510   2.722   6.463 -0.2289 -0.1494  0.9278
   65MOL   C26831116   1.598   2.801   6.557 -0.1711  0.3576 -0.0954
   65MOL   C26931117   1.521   2.864   6.675 -0.2566 -0.1207 -0.3922
   65MOL   C27031118   1.442   2.994   6.642  0.3141 -0.1357  0.5337
   65MOL   O27131119   1.533   3.091   6.591 -0.2840  0.3187  0.0686
   65MOL   C27231120   1.504   3.224   6.618  0.0537  0.2348  0.0349
   65MOL   O27331121   1.422   3.268   6.700 -0.3514  0.1394 -0.3315
   65MOL   C27431122   1.577   3.311   6.522 -0.3729 -0.9267  1.0619
   65MOL   C27531123   1.733   3.316   6.549 -0.9608  0.0170  0.6441
   65MOL   C27631124   1.817   3.243   6.445 -0.0545 -0.8752  0.3975
   65MOL   O27731125   1.916   3.297   6.394  0.6775 -0.1614 -0.0584
   65MOL   H27831126   1.568   2.706   6.372  1.8284 -1.5850  2.4411
   65MOL   H27931127   1.418   2.778   6.447 -1.1061 -1.6859  0.4721
   65MOL   H28031128   1.643   2.885   6.502  0.5133 -0.2884 -0.5359
   65MOL   H28131129   1.670   2.729   6.595  2.1332  1.1989 -2.6648
   65MOL   H28231130   1.584   2.892   6.760  0.3280  0.3807 -0.9880
   65MOL   H28331131   1.453   2.787   6.713 -1.1723  1.5389  1.4466
   65MOL   H28431132   1.367   2.979   6.564 -0.1086  2.7054  0.3524
   65MOL   H28531133   1.379   3.023   6.726 -0.9847 -2.2475  0.3329
   65MOL   H28631134   1.541   3.413   6.533  1.4724 -0.1871  0.4573
   65MOL   H28731135   1.551   3.282   6.420 -0.0801  2.2656  0.0226
   65MOL   H28831136   1.777   3.413   6.572  0.9911 -0.4199 -1.0651
   65MOL   H28931137   1.751   3.257   6.639  0.7356  1.2785  1.1560
   65MOL   O29031138   1.764   3.115   6.416 -0.7772  0.7191 -0.6143
   65MOL   C29131139   1.835   3.031   6.326  0.0667 -0.3143 -0.3018
   65MOL   C29231140   1.773   3.045   6.188 -0.3431 -0.2830 -0.8171
   65MOL   C29331141   1.645   2.978   6.140  0.1733  0.6044 -0.5088
   65MOL   C29431142   1.526   3.037   6.213 -0.0357 -0.7489 -0.0173
   65MOL   O29531143   1.411   2.968   6.156 -0.2537 -0.0031 -0.4483
   65MOL   C29631144   1.286   2.981   6.216  0.6128 -0.2180 -0.1073
   65MOL   O29731145   1.260   3.032   6.325  0.6372  0.1792  0.4756
   65MOL   C29831146   1.176   2.897   6.134  0.1686 -0.2176 -0.9570
   65MOL   C29931147   1.036   2.928   6.185  0.7413  0.6012 -0.4833
   65MOL   C30031148   0.923   2.918   6.080 -0.5414 -0.6882 -0.1173
   65MOL   O30131149   0.950   2.941   5.965  0.1217 -0.1584  0.4962
   65MOL   H30231150   1.940   3.062   6.329  0.2177 -0.8967  1.0056
   65MOL   H30331151   1.849   2.926   6.353  0.5197 -0.1329  0.1897
   65MOL   H30431152   1.850   2.993   6.131 -0.7874 -0.7832 -0.9625
   65MOL   H30531153   1.778   3.151   6.160 -1.1419 -0.1750 -0.5655
   65MOL   H30631154   1.649   2.869   6.142 -1.1630  0.5318 -1.1398
   65MOL   H30731155   1.630   2.991   6.032  0.9554 -0.6930 -0.7939
   65MOL   H30831156   1.531   3.014   6.319  1.8062 -0.0313  0.0865
   65MOL   H30931157   1.512   3.145   6.203 -2.0517 -0.8577  1.3953
   65MOL   H31031158   1.198   2.790   6.138 -1.7151 -0.5991 -0.6152
   65MOL   H31131159   1.190   2.933   6.032 -0.7736 -0.7704 -1.2828
   65MOL   H31231160   1.012   2.865   6.271  0.1603 -1.1381 -1.8945
   65MOL   H31331161   1.039   3.028   6.228  2.4730  0.2408  0.2737
   65MOL   O31431162   0.805   2.895   6.132  0.0296 -0.6047  0.2402
   65MOL   C31531163   0.684   2.955   6.079  0.4528  0.2001  0.4744
   65MOL   C31631164   0.587   2.845   6.030 -0.0094 -0.4382  0.4992
   65MOL   C31731165   0.632   2.778   5.895  0.2137 -0.0251 -0.5760
   65MOL   C31831166   0.508   2.704   5.825 -0.2055 -0.0607 -0.0721
   65MOL   O31931167   0.487   2.591   5.899  0.4303  0.1069 -0.2671
   65MOL   C32031168   0.527   2.468   5.858  0.7027  0.4332  0.3195
   65MOL   O32131169   0.593   2.439   5.761  0.4502  0.5438 -0.2682
   65MOL   C32231170   0.471   2.362   5.946  0.0324 -0.7864  0.6092
   65MOL   C32331171   0.465   2.408   6.088 -0.2580  0.1912  0.1772
   65MOL   C32431172   0.602   2.434   6.156 -1.0193  0.3686  0.1881
   65MOL   O32531173   0.704   2.377   6.133 -0.6962 -0.0524 -0.2020
   65MOL   H32631174   0.634   3.012   6.157  2.0925 -0.0908  1.7605
   65MOL   H32731175   0.719   3.024   6.002 -1.3716  0.3712 -0.2238
   65MOL   H32831176   0.494   2.895   6.005 -0.1817 -0.6065  0.8045
   65MOL   H32931177   0.568   2.769   6.106 -0.3443 -1.0700 -0.2187
   65MOL   H33031178   0.723   2.717   5.897  0.3240  0.1540 -0.1134
   65MOL   H33131179   0.655   2.865   5.833  0.3947 -1.8677 -3.2067
   65MOL   H33231180   0.426   2.775   5.826  0.8672  1.2247 -1.8595
   65MOL   H33331181   0.521   2.673   5.722 -1.0674  0.6216 -0.3898
   65MOL   H33431182   0.545   2.284   5.929  0.7390 -0.4217  1.9278
   65MOL   H33531183   0.380   2.328   5.896 -1.7359  1.7526  1.9706
   65MOL   H33631184   0.400   2.495   6.095  2.3787  2.4946 -2.6238
   65MOL   H33731185   0.410   2.335   6.148  1.4943 -1.4143 -0.0995
   65MOL   O33831186   0.595   2.533   6.252 -0.5709 -0.6250  0.0176
   65MOL   C33931187   0.713   2.554   6.327 -0.1079 -0.4859 -0.0459
   65MOL   C34031188   0.680   2.637   6.451  0.0662 -0.0442 -0.5515
   65MOL   C34131189   0.671   2.785   6.421  0.6683  0.0313 -0.7611
   65MOL   C34231190   0.640   2.864   6.551  0.3033 -0.8522  0.3148
   65MOL   O34331191   0.626   3.000   6.527 -0.0165 -1.0699  0.3568
   65MOL   C34431192   0.514   3.050   6.489 -0.3513  0.3908 -0.5770
   65MOL   O34531193   0.409   2.986   6.480 -0.8284  0.0784 -0.3720
   65MOL   C34631194   0.519   3.193   6.454 -0.3162 -0.3406 -0.1708
   65MOL   C34731195   0.440   3.294   6.543 -0.3787  0.5932 -0.2173
   65MOL   C34831196   0.308   3.318   6.482  0.1172  0.2161 -0.6806
   65MOL   O34931197   0.292   3.409   6.401 -0.4889 -0.3899  0.3449
   65MOL   H35031198   0.760   2.459   6.354 -2.7344 -1.5786  0.7952
   65MOL   H35131199   0.775   2.603   6.252 -1.9467 -0.4249 -1.5581
   65MOL   H35231200   0.747   2.629   6.537 -1.0767  1.0334  0.4442
   65MOL   H35331201   0.581   2.607   6.484 -1.1679  1.4283 -2.7497
   65MOL   H35431202   0.594   2.796   6.345  0.0686  0.2925 -0.1273
   65MOL   H35531203   0.766   2.818   6.380  1.2231 -1.6440 -0.8705
   65MOL   H35631204   0.545   2.828   6.591 -0.1734 -0.0050 -0.0404
   65MOL   H35731205   0.713   2.854   6.631 -0.1829  0.2649  0.9166
   65MOL   H35831206   0.473   3.190   6.356  1.3838 -1.1626 -0.9671
   65MOL   H35931207   0.620   3.230   6.436 -0.7872  1.2916  0.4131
   65MOL   H36031208   0.421   3.259   6.644 -0.6429  0.1466 -0.4230
   65MOL   H36131209   0.493   3.389   6.539  1.0552 -0.2369 -2.0320
   65MOL   O36231210   0.209   3.241   6.540 -0.7140 -0.1458  0.4988
   65MOL   C36331211   0.071   3.251   6.515 -0.2301  0.0086  0.1029
   65MOL   C36431212   0.010   3.319   6.638  0.4276  0.0156  0.0780
   65MOL   C36531213   7.738   3.370   6.611  0.7804 -0.1166 -0.2992
   65MOL   C36631214   7.674   3.440   6.731  0.7831  0.2951 -0.4339
   65MOL   O36731215   7.682   3.352   6.842 -0.5373  0.3812 -0.0971
   65MOL   C36831216   7.649   3.393   6.963 -0.1018 -0.4520  0.1868
   65MOL   O36931217   7.570   3.482   6.990 -0.4654  0.4425 -0.0868
   65MOL   C37031218   7.703   3.311   7.084 -0.1701  0.1520  0.5946
   65MOL   C37131219   7.657   3.163   7.072  0.0289  0.0048  0.0620
   65MOL   C37231220   7.746   3.081   7.166  0.1469  0.2889 -0.3424
   65MOL   O37331221   7.803   2.972   7.134 -0.9305 -0.0585  0.8609
   65MOL   H37431222   0.055   3.306   6.422  1.0595  1.5795  0.7743
   65MOL   H37531223   0.038   3.148   6.503  1.3336 -0.4053 -0.9136
   65MOL   H37631224   0.075   3.399   6.673 -0.1468  0.3050  0.4880
   65MOL   H37731225   0.005   3.243   6.716 -0.4376 -0.2174 -0.2028
   65MOL   H37831226   7.680   3.282   6.584  0.3256  0.7165 -2.1258
   65MOL   H37931227   7.738   3.430   6.520 -0.3739 -0.2610 -0.3943
   65MOL   H38031228   7.741   3.521   6.760  0.0926  0.6863  0.0811
   65MOL   H38131229   7.574   3.482   6.719 -0.6807 -1.9036  2.9742
   65MOL   H38231230   7.671   3.361   7.175  0.7200 -0.3748  1.1951
   65MOL   H38331231   7.810   3.330   7.092 -0.2277  0.5730  0.3934
   65MOL   H38431232   7.550   3.158   7.096 -0.3942  0.0696 -1.7295
   65MOL   H38531233   7.672   3.122   6.972  0.9453  0.0773  0.1716
   65MOL   O38631234   7.741   3.137   7.282  0.2366 -0.2862 -0.1744
   65MOL   C38731235   7.794   3.066   7.397 -0.1183 -0.2313  0.3353
   65MOL   C38831236   7.809   3.145   7.528 -0.4384  0.9263 -0.6760
   65MOL   C38931237   0.043   3.252   7.505  0.3455 -0.5948  0.2625
   65MOL   C39031238   0.086   3.324   7.638 -0.1598 -0.5665  0.3406
   65MOL   O39131239   0.128   3.218   7.730 -0.4923  0.1055 -0.0419
   65MOL   C39231240   0.064   3.197   7.844 -0.0924 -0.2802 -0.4307
   65MOL   O39331241   7.847   3.273   0.021  0.0336 -0.1987  0.1435
   65MOL   C39431242   0.111   3.073   0.044 -0.4507 -0.1488 -0.3723
   65MOL   C39531243   0.257   3.085   0.077 -0.4291 -0.1922  0.1460
   65MOL   C39631244   0.273   3.076   0.226  0.1175  0.3892  0.2242
   65MOL   O39731245   0.320   2.969   0.271 -0.4042  0.3342  0.5340
   65MOL   H39831246   7.723   2.983   7.404 -1.7599  1.0558 -0.6380
   65MOL   H39931247   0.011   3.016   7.365 -0.0866  0.2013 -0.2507
   65MOL   H40031248   7.849   3.070   7.597 -1.1890  0.9896 -0.1662
   65MOL   H40131249   7.718   3.188   7.571  0.5443  1.1147  1.2922
   65MOL   H40231250   0.019   3.327   7.430 -0.9276 -0.7485  0.5132
   65MOL   H40331251   0.130   3.204   7.461 -0.4929 -0.7994 -1.1852
   65MOL   H40431252   0.165   3.398   7.626 -1.5723  0.4938 -3.0562
   65MOL   H40531253   7.872   3.385   7.660  1.2939  1.9140 -0.4675
   65MOL   H40631254   0.095   2.984   7.858 -4.2030  1.3670 -1.7408
   65MOL   H40731255   0.041   3.060   0.127  0.3463 -0.2798  0.2829
   65MOL   H40831256   0.318   3.002   0.040  0.3412  0.7345 -0.6719
   65MOL   H40931257   0.296   3.176   0.033 -0.9124  0.4179  0.9629
   65MOL   O41031258   0.214   3.174   0.299  0.2400  0.2332  0.0142
   65MOL   C41131259   0.204   3.160   0.439 -0.1455 -1.0980 -0.1725
   65MOL   C41231260   0.310   3.252   0.502  0.4848  0.3992  0.0619
   65MOL   C41331261   0.458   3.231   0.460  0.2380 -0.2150 -0.0511
   65MOL   C41431262   0.558   3.312   0.542  0.3931  0.4951 -0.3246
   65MOL   O41531263   0.538   3.454   0.534  0.2817  0.3271 -0.1689
   65MOL   C41631264   0.636   3.531   0.492  0.1650  0.2994 -0.1919
   65MOL   O41731265   0.744   3.494   0.440  0.2792  0.6574  0.1098
   65MOL   C41831266   0.605   3.685   0.513  0.1003  0.3638 -0.6125
   65MOL   C41931267   0.546   3.748   0.380 -0.7989  0.9521 -0.1767
   65MOL   C42031268   0.552   3.899   0.387 -0.6502  0.2161 -0.5827
   65MOL   O42131269   0.596   3.962   0.291  0.1245  0.2153 -0.1758
   65MOL   H42231270   0.113   3.212   0.469  0.0264 -1.2150  0.5750
   65MOL   H42331271   0.203   3.056   0.473 -0.7295 -0.8403  0.6438
   65MOL   H42431272   0.295   3.253   0.610 -2.0666  0.4685 -0.2582
   65MOL   H42531273   0.290   3.356   0.478  0.7857  0.2788 -0.7069
   65MOL   H42631274   0.451   3.273   0.359  0.0507  1.3202  0.5763
   65MOL   H42731275   0.488   3.127   0.470  0.5357  0.1150  2.8765
   65MOL   H42831276   0.542   3.287   0.647  0.9035 -0.2900 -0.4377
   65MOL   H42931277   0.661   3.281   0.527  1.4160  3.3251  0.5726
   65MOL   H43031278   0.696   3.736   0.545 -0.3191 -1.3268  3.6299
   65MOL   H43131279   0.537   3.692   0.598  1.3537  1.8066  0.2840
   65MOL   H43231280   0.599   3.712   0.292  0.1311  1.0264  0.3382
   65MOL   H43331281   0.442   3.721   0.365 -0.4914 -0.3764 -0.0016
   65MOL   O43431282   0.526   3.949   0.511  0.9470  0.4236 -0.0862
   65MOL   C43531283   0.532   4.089   0.532 -0.2163 -0.0019  0.4179
   65MOL   C43631284   0.667   4.136   0.592 -0.3599  0.2313 -0.6364
   65MOL   C43731285   0.787   4.112   0.506  0.2709 -0.0456 -0.3784
   65MOL   C43831286   0.923   4.158   0.560  0.0415  0.3859 -0.6016
   65MOL   O43931287   0.944   4.078   0.676  0.1697  0.2942 -0.0721
   65MOL   C44031288   0.956   4.134   0.783  0.1608 -0.4725  0.7809
   65MOL   O44131289   0.965   4.258   0.815  0.8081  0.4073  0.4008
   65MOL   C44231290   0.952   4.043   0.903  0.2743 -0.1709 -0.9696
   65MOL   C44331291   0.813   4.015   0.948  0.0413  0.2530  0.3040
   65MOL   C44431292   0.748   3.887   0.907 -0.1194  0.9181  0.9893
   65MOL   O44531293   0.628   3.887   0.877  0.0126  0.4799 -0.3375
   65MOL   H44631294   0.514   4.144   0.440 -1.8201 -0.2784  0.5552
   65MOL   H44731295   0.448   4.120   0.593 -0.1368  0.3547  0.3457
   65MOL   H44831296   0.688   4.097   0.692  1.6663  1.7797 -0.4101
   65MOL   H44931297   0.647   4.243   0.601 -0.5894  0.1989 -0.7585
   65MOL   H45031298   0.792   4.170   0.414  1.3727 -1.0207 -0.9463
   65MOL   H45131299   0.789   4.005   0.487 -2.4277  0.2462 -2.7087
   65MOL   H45231300   0.995   4.148   0.478  1.3687  0.9978  0.4557
   65MOL   H45331301   0.906   4.264   0.580  0.3411  0.5487 -1.1815
   65MOL   H45431302   1.009   4.082   0.987  0.6223  2.1600 -2.2216
   65MOL   H45531303   1.007   3.953   0.877  0.6365  0.6619 -3.2054
   65MOL   H45631304   0.817   4.026   1.056 -1.0103 -0.4758  0.4243
   65MOL   H45731305   0.750   4.097   0.914 -0.1585 -0.2564 -0.5884
   65MOL   O45831306   0.834   3.790   0.900 -0.1032 -0.1694  0.0446
   65MOL   C45931307   0.800   3.663   0.850  0.7803 -0.2150 -0.2486
   65MOL   C46031308   0.901   3.554   0.888  0.2010  0.2488  0.3727
   65MOL   C46131309   0.826   3.422   0.881 -0.7588 -0.5310 -0.1359
   65MOL   C46231310   0.733   3.389   1.005  0.1661 -0.0893  0.0647
   65MOL   O46331311   0.805   3.385   1.123 -0.1127  0.1785  0.0757
   65MOL   C46431312   0.749   3.358   1.241 -0.5923 -0.4945 -0.3128
   65MOL   O46531313   0.632   3.319   1.260  0.0106  0.1191 -0.0252
   65MOL   C46631314   0.850   3.364   1.357 -0.0700  0.4166 -0.4057
   65MOL   C46731315   0.937   3.235   1.368 -0.6367  0.9390 -0.2467
   65MOL   C46831316   1.083   3.267   1.405 -0.1713  0.2399 -0.3630
   65MOL   O46931317   1.113   3.371   1.464  0.4797  0.4175 -0.0287
   65MOL   H47031318   0.703   3.632   0.890  2.3337 -4.3050  0.5500
   65MOL   H47131319   0.784   3.660   0.742  1.0962  0.3470 -0.3136
   65MOL   H47231320   0.931   3.568   0.992 -1.0895 -0.7833  0.8949
   65MOL   H47331321   0.986   3.545   0.822 -1.0185 -2.2089 -0.9294
   65MOL   H47431322   0.891   3.336   0.863 -1.3803 -0.8750 -0.7248
   65MOL   H47531323   0.763   3.429   0.793  1.1143  2.5314 -1.3263
   65MOL   H47631324   0.649   3.457   1.018  0.4873  0.3219 -0.0171
   65MOL   H47731325   0.694   3.290   0.983  0.6010  0.0212 -1.2515
   65MOL   H47831326   0.795   3.400   1.444  1.0877  1.4134 -0.0746
   65MOL   H47931327   0.917   3.446   1.329  0.0050  0.2776 -0.6405
   65MOL   H48031328   0.890   3.191   1.456 -1.4283  1.2983 -0.4841
   65MOL   H48131329   0.939   3.171   1.280 -2.1232  0.5625 -0.0192
   65MOL   H48231330   1.161   3.196   1.375 -2.1907 -1.7464 -1.0114
   66MOL     O131331   6.294   0.353   1.898 -0.5759  0.8459 -0.3931
   66MOL     C231332   6.318   0.491   1.866 -0.1137  0.3641 -0.5844
   66MOL     C331333   6.441   0.505   1.789 -0.3143  0.6724 -0.3399
   66MOL     C431334   6.554   0.431   1.857 -0.3532 -0.4223  0.5186
   66MOL     C531335   6.685   0.462   1.789  0.0443  0.0857  0.0944
   66MOL     O631336   6.680   0.427   1.650 -0.2033 -0.0456 -0.4108
   66MOL     C731337   6.749   0.319   1.603 -0.5582 -0.0004 -0.3305
   66MOL     O831338   6.811   0.241   1.677 -0.2949  0.1122 -0.1386
   66MOL     C931339   6.718   0.310   1.456 -0.0607 -0.1464  0.2886
   66MOL    C1031340   6.780   0.184   1.395 -0.0812  0.0735 -0.3179
   66MOL    C1131341   6.679   0.067   1.370  0.6008 -0.6626  0.2603
   66MOL    O1231342   6.585   0.040   1.448 -0.5623 -0.0539 -0.4320
   66MOL    H1331343   6.237   0.517   1.797  1.6751  2.4091 -1.9372
   66MOL    H1431344   6.313   0.541   1.962 -2.5274 -1.6914  0.4163
   66MOL    H1531345   6.461   0.612   1.786  2.1465  0.2929  1.0312
   66MOL    H1631346   6.423   0.476   1.685  0.2545  1.9882 -0.8154
   66MOL    H1731347   6.538   0.324   1.847  0.8851 -0.4847 -1.0874
   66MOL    H1831348   6.550   0.457   1.963  2.0916  0.0527  0.5347
   66MOL    H1931349   6.715   0.567   1.795  0.3020 -0.0082  0.4772
   66MOL    H2031350   6.770   0.408   1.830  1.2553  0.8969 -1.3072
   66MOL    H2131351   6.744   0.407   1.415 -1.2500 -0.4954 -1.3856
   66MOL    H2231352   6.612   0.324   1.433 -0.0145 -1.2889 -0.6786
   66MOL    H2331353   6.827   0.208   1.299  0.0411 -0.5504 -0.4163
   66MOL    H2431354   6.865   0.150   1.454  1.1246  2.7082 -0.4856
   66MOL    H2531355   6.232   0.352   1.970  1.2594  0.0321  1.2098
   66MOL    O2631356   6.713   7.872   1.256 -0.5783 -0.0257  0.6595
   66MOL    C2731357   6.617   7.778   1.207 -0.0402 -0.7718  0.3598
   66MOL    C2831358   6.690   7.719   1.080 -1.2384 -0.3226 -0.1149
   66MOL    C2931359   6.712   7.820   0.961 -0.4899 -0.5236 -0.3852
   66MOL    C3031360   6.583   0.011   0.898  0.2788  0.3635  0.4111
   66MOL    O3131361   6.549   0.127   0.972 -0.3953  0.6290  0.0906
   66MOL    C3231362   6.422   0.171   0.982 -0.0427 -0.3602  0.1731
   66MOL    O3331363   6.325   0.100   0.948  0.5361  0.0449 -0.6134
   66MOL    C3431364   6.407   0.318   1.021 -0.2934 -0.6942 -0.3235
   66MOL    C3531365   6.471   0.359   1.164  1.3189 -0.4123  0.0295
   66MOL    C3631366   6.595   0.442   1.154  0.3553 -0.3976 -0.0772
   66MOL    O3731367   6.702   0.382   1.169  0.1785 -0.3843 -0.2045
   66MOL    H3831368   6.590   7.694   1.271  1.7113 -2.1460 -0.6400
   66MOL    H3931369   6.523   7.824   1.179  0.1753 -2.9637 -4.3957
   66MOL    H4031370   6.628   7.639   1.039  0.6633 -1.6250 -0.5440
   66MOL    H4131371   6.781   7.666   1.109  0.9195  2.2737 -1.9744
   66MOL    H4231372   6.771   7.767   0.887  2.4470  2.5040 -0.3374
   66MOL    H4331373   6.776   0.023   1.002 -0.2780 -0.5831 -0.6012
   66MOL    H4431374   6.602   0.045   0.797  0.0256 -1.3544 -0.2180
   66MOL    H4531375   6.508   7.806   0.896  1.5202 -0.7970 -2.9130
   66MOL    H4631376   6.299   0.330   1.019 -0.1896  0.3463  0.1504
   66MOL    H4731377   6.453   0.378   0.943 -0.4748  1.0790  0.9177
   66MOL    H4831378   6.406   0.414   1.232  1.1283  1.0602 -1.3139
   66MOL    H4931379   6.481   0.270   1.226  0.8263 -0.4577  0.0517
   66MOL    O5031380   6.586   0.568   1.099 -0.1398  0.7242 -0.1109
   66MOL    C5131381   6.699   0.647   1.075 -0.3129  1.1349  0.5111
   66MOL    C5231382   6.746   0.713   1.205  0.4597 -0.7833  0.2937
   66MOL    C5331383   6.851   0.826   1.167 -0.9657  0.1803 -0.5684
   66MOL    C5431384   6.984   0.767   1.112  0.6825 -0.6831  0.1695
   66MOL    O5531385   7.062   0.722   1.226 -0.2147 -0.0353  0.1250
   66MOL    C5631386   7.175   0.661   1.204  0.0990 -0.2729 -0.8771
   66MOL    O5731387   7.223   0.639   1.095  0.0277  0.2506 -0.5814
   66MOL    C5831388   7.231   0.615   1.334 -0.5863 -0.2040  0.5668
   66MOL    C5931389   7.149   0.493   1.380  0.2689 -0.2133  0.2181
   66MOL    C6031390   7.062   0.527   1.503  0.1113  0.3004  0.0461
   66MOL    O6131391   6.943   0.548   1.483 -0.4765 -0.3124 -0.0631
   66MOL    H6231392   6.776   0.589   1.023 -2.7589 -0.7591 -1.1026
   66MOL    H6331393   6.672   0.725   1.003 -0.3854 -0.9456 -1.8022
   66MOL    H6431394   6.799   0.640   1.267 -0.2438 -1.4693  0.0980
   66MOL    H6531395   6.663   0.753   1.263  2.2806  0.6032  2.0169
   66MOL    H6631396   6.868   0.879   1.261  0.1829 -0.1056 -0.6065
   66MOL    H6731397   6.811   0.909   1.109  0.8765  2.3150  1.1328
   66MOL    H6831398   6.965   0.694   1.034 -0.8546  1.3910 -1.4493
   66MOL    H6931399   7.048   0.847   1.074  0.0082 -0.3881 -0.3497
   66MOL    H7031400   7.241   0.698   1.403 -0.9315 -0.1266  0.5284
   66MOL    H7131401   7.332   0.584   1.308  0.0438  0.9591  1.6034
   66MOL    H7231402   7.088   0.441   1.305 -1.0635  0.5912  0.7264
   66MOL    H7331403   7.212   0.419   1.429 -0.1732 -0.2648  0.7141
   66MOL    O7431404   7.127   0.535   1.619 -0.2450 -0.3641  0.3632
   66MOL    C7531405   7.051   0.555   1.736  0.1484 -0.2198  0.1082
   66MOL    C7631406   7.137   0.504   1.856 -0.4874  0.1168 -0.0215
   66MOL    C7731407   7.183   0.357   1.840 -0.1271 -0.1835  0.0753
   66MOL    C7831408   7.187   0.291   1.981 -0.1211 -0.5206 -0.3660
   66MOL    O7931409   7.057   0.246   2.024 -0.6248  0.0305 -0.1575
   66MOL    C8031410   6.988   0.304   2.112  0.6643  0.3154 -0.0502
   66MOL    O8131411   7.025   0.393   2.187  0.3800  0.0479  0.0172
   66MOL    C8231412   6.849   0.249   2.106 -0.4647  0.0884  0.0178
   66MOL    C8331413   6.744   0.308   2.208  0.1842 -0.0229 -0.3836
   66MOL    C8431414   6.743   0.232   2.340  0.7894 -0.4185 -0.1812
   66MOL    O8531415   6.833   0.160   2.373  0.0198 -0.5095 -0.3669
   66MOL    H8631416   7.041   0.662   1.753 -1.8133 -0.3716  0.0478
   66MOL    H8731417   6.951   0.511   1.735 -0.1157  0.3248  1.1842
   66MOL    H8831418   7.074   0.523   1.944  2.0495  1.7572  1.5056
   66MOL    H8931419   7.221   0.572   1.869  1.5014 -2.4028  0.6178
   66MOL    H9031420   7.275   0.349   1.782 -0.0906  2.1351 -0.2228
   66MOL    H9131421   7.114   0.311   1.769  0.6062  2.4980 -2.4740
   66MOL    H9231422   7.242   0.197   1.972  0.8836 -0.2119  1.9630
   66MOL    H9331423   7.245   0.348   2.054  0.0184 -0.4173 -0.5580
   66MOL    H9431424   6.861   0.141   2.116 -0.8548  0.1147  0.8944
   66MOL    H9531425   6.800   0.259   2.009  2.1747  1.0214 -1.2558
   66MOL    H9631426   6.782   0.405   2.238 -0.9957 -0.0038  1.1464
   66MOL    H9731427   6.653   0.317   2.148  1.2877 -0.3146 -2.1368
   66MOL    O9831428   6.633   0.246   2.416 -0.4040  0.4543 -0.3012
   66MOL    C9931429   6.629   0.168   2.531  0.0626 -0.3256  0.5847
   66MOL   C10031430   6.487   0.181   2.589 -0.3101 -0.6236 -0.7384
   66MOL   C10131431   6.460   0.079   2.691  0.2680 -0.5469 -0.0908
   66MOL   C10231432   6.307   0.058   2.703  0.3264 -0.1468  0.2404
   66MOL   O10331433   6.289   7.835   2.804  0.5143 -0.0057 -0.5152
   66MOL   C10431434   6.172   7.771   2.818  0.3140  0.3203 -0.3267
   66MOL   O10531435   6.080   7.766   2.732  0.2969  0.0369 -0.0885
   66MOL   C10631436   6.184   7.680   2.937 -0.0486  0.8085  0.2650
   66MOL   C10731437   6.175   7.537   2.886 -0.6572 -0.0733  0.1025
   66MOL   C10831438   6.313   7.480   2.858 -0.0687 -0.3193  0.3447
   66MOL   O10931439   6.321   7.411   2.754  0.3966  0.3166 -0.5359
   66MOL   H11031440   6.662   0.065   2.517  0.2761 -0.4217  1.7107
   66MOL   H11131441   6.698   0.192   2.612 -0.0962  1.0019  0.3305
   66MOL   H11231442   6.422   0.157   2.504 -1.6014  1.0442 -0.2588
   66MOL   H11331443   6.454   0.280   2.621  1.7233  0.8618 -3.0321
   66MOL   H11431444   6.514   0.114   2.780 -0.4419 -0.9482  0.5022
   66MOL   H11531445   6.508   7.860   2.663 -0.2538 -0.7641 -0.2632
   66MOL   H11631446   6.267   0.156   2.733  2.0474 -0.3451  3.4883
   66MOL   H11731447   6.263   0.015   2.614 -0.8718  0.2116  0.6434
   66MOL   H11831448   6.100   7.716   2.996 -1.0504 -1.0525  0.0249
   66MOL   H11931449   6.271   7.717   2.991  0.6705 -0.6894  0.1506
   66MOL   H12031450   6.134   7.479   2.969 -1.4808  1.2398  0.6253
   66MOL   H12131451   6.110   7.514   2.801 -0.9777 -1.8772  0.7918
   66MOL   O12231452   6.411   7.516   2.948  0.3074  0.0802 -0.0773
   66MOL   C12331453   6.545   7.470   2.934  0.7819 -0.2306 -0.3586
   66MOL   C12431454   6.639   7.567   2.856 -0.0681  0.6190 -0.1900
   66MOL   C12531455   6.626   7.575   2.704  0.3859 -0.3538 -0.2776
   66MOL   C12631456   6.729   7.666   2.636 -0.1960  0.3664 -0.6248
   66MOL   O12731457   6.688   7.705   2.512 -0.1993  0.4609 -0.0441
   66MOL   C12831458   6.746   7.660   2.399 -1.0488 -0.9991 -0.0842
   66MOL   O12931459   6.836   7.578   2.395  0.1098  0.2491  0.0226
   66MOL   C13031460   6.675   7.714   2.278  0.2480  0.9025 -0.1673
   66MOL   C13131461   6.543   7.633   2.259 -0.2586 -0.2188 -0.1860
   66MOL   C13231462   6.440   7.679   2.357  0.5301 -0.3008 -0.1014
   66MOL   O13331463   6.452   7.791   2.410 -0.6908  0.4209  0.1084
   66MOL   H13431464   6.587   7.458   3.034 -3.2830  0.4003  1.5149
   66MOL   H13531465   6.539   7.371   2.888 -3.2977  0.4378 -1.4381
   66MOL   H13631466   6.741   7.546   2.890 -0.0606 -2.2692 -1.8000
   66MOL   H13731467   6.614   7.667   2.891 -0.3286  0.1956  0.8651
   66MOL   H13831468   6.524   7.613   2.690 -0.1919 -1.6977  0.1740
   66MOL   H13931469   6.630   7.473   2.664 -0.4363 -1.0769  1.4154
   66MOL   H14031470   6.730   7.759   2.693 -3.9495  1.3047 -1.8983
   66MOL   H14131471   6.826   7.617   2.635 -0.8246 -0.9341  0.3032
   66MOL   H14231472   6.737   7.699   2.190  0.2001  0.0443 -0.0657
   66MOL   H14331473   6.647   7.818   2.296 -0.2844  0.8384 -0.6166
   66MOL   H14431474   6.519   7.649   2.154 -0.3166 -1.6816 -0.4037
   66MOL   H14531475   6.558   7.527   2.281 -1.2114 -0.0012  1.6720
   66MOL   O14631476   6.336   7.589   2.380  0.2736 -0.0563 -0.1551
   66MOL   C14731477   6.234   7.634   2.470 -0.1775  0.6287 -0.1375
   66MOL   C14831478   6.095   7.567   2.435  0.5540  0.0206 -0.5316
   66MOL   C14931479   6.093   7.416   2.434  0.0297  0.6319 -0.6212
   66MOL   C15031480   5.953   7.357   2.418  0.3983 -0.1921 -0.3729
   66MOL   O15131481   5.976   7.217   2.451  0.5723 -0.8052  0.5983
   66MOL   C15231482   5.881   7.135   2.407  0.9709  0.1734  0.2627
   66MOL   O15331483   5.779   7.168   2.341  0.3675 -0.7277 -0.2130
   66MOL   C15431484   5.910   6.987   2.448  0.0354 -0.0527  0.9339
   66MOL   C15531485   6.033   6.931   2.374  0.4198 -0.1913 -0.6903
   66MOL   C15631486   6.004   6.862   2.239  0.0375 -0.3220 -0.3880
   66MOL   O15731487   6.076   6.768   2.206 -0.3677  0.3705 -0.0632
   66MOL   H15831488   6.261   7.600   2.570 -0.3785 -1.4391 -0.7541
   66MOL   H15931489   6.225   7.742   2.471 -1.5692  0.5126  1.1435
   66MOL   H16031490   6.059   7.612   2.342  0.3895 -0.2079 -0.5775
   66MOL   H16131491   6.039   7.609   2.518  1.7825  1.8782 -0.5946
   66MOL   H16231492   6.128   7.379   2.531 -0.9654  0.4565 -0.3266
   66MOL   H16331493   6.149   7.374   2.350  0.9137 -2.8298  1.5891
   66MOL   H16431494   5.871   7.399   2.476 -0.1034 -2.0597  0.3283
   66MOL   H16531495   5.925   7.365   2.313  2.1629 -3.9784 -1.2173
   66MOL   H16631496   5.832   6.913   2.431 -0.0516 -0.1122  1.5927
   66MOL   H16731497   5.939   6.982   2.553 -0.5551 -3.4698  0.9887
   66MOL   H16831498   6.102   7.008   2.340  0.4064 -0.0793 -0.4691
   66MOL   H16931499   6.089   6.867   2.443 -0.1925 -0.7640 -0.7124
   66MOL   O17031500   5.911   6.929   2.176  0.0358 -0.2855  0.0311
   66MOL   C17131501   5.878   6.903   2.042 -0.6098 -0.4213 -0.0879
   66MOL   C17231502   5.769   6.999   2.008  0.3870 -0.1517  0.2283
   66MOL   C17331503   5.629   6.943   2.046 -0.2508  0.0238  0.1570
   66MOL   C17431504   5.526   7.042   2.010  0.7643 -0.7217  0.0937
   66MOL   O17531505   5.532   7.044   1.867  0.5615  0.0642  0.4697
   66MOL   C17631506   5.440   6.971   1.798 -0.2212  0.4961 -0.1817
   66MOL   O17731507   5.345   6.911   1.851  0.6486  0.8887 -0.0101
   66MOL   C17831508   5.446   6.993   1.647 -0.3049 -0.3314  0.2822
   66MOL   C17931509   5.584   7.010   1.590 -0.0802 -0.3029  0.2987
   66MOL   C18031510   5.620   7.160   1.550 -0.1527 -0.5699  0.1136
   66MOL   O18131511   5.658   7.193   1.440 -0.0419 -0.2370  0.2159
   66MOL   H18231512   5.965   6.925   1.980  0.8974 -1.7369  1.5084
   66MOL   H18331513   5.846   6.798   2.041 -3.1575  0.3174 -1.1700
   66MOL   H18431514   5.780   7.010   1.901 -2.1531 -2.1783 -0.2797
   66MOL   H18531515   5.786   7.096   2.055  2.4699 -0.4614  0.1648
   66MOL   H18631516   5.617   6.934   2.154 -0.8464  2.1644  0.2874
   66MOL   H18731517   5.602   6.843   2.012 -3.2753  0.9977 -0.4657
   66MOL   H18831518   5.432   7.032   2.064 -1.1298  0.6438 -2.8218
   66MOL   H18931519   5.557   7.139   2.051  2.0795 -0.3368 -1.7325
   66MOL   H19031520   5.388   7.083   1.624 -0.2981 -0.8850 -2.0402
   66MOL   H19131521   5.390   6.909   1.605 -1.2706 -1.6914  4.0762
   66MOL   H19231522   5.658   6.985   1.667  0.8758  0.4738 -0.3610
   66MOL   H19331523   5.604   6.943   1.506  2.1849 -1.4283  1.6607
   66MOL   O19431524   5.600   7.244   1.649 -0.4704  0.0569 -0.2464
   66MOL   C19531525   5.639   7.378   1.621  0.8879  0.4008 -0.1255
   66MOL   C19631526   5.636   7.465   1.747  0.0556 -0.4565  0.2244
   66MOL   C19731527   5.697   7.605   1.738  0.8344  0.5011 -0.1561
   66MOL   C19831528   5.641   7.699   1.851 -0.4560 -0.1335  0.1692
   66MOL   O19931529   5.708   7.677   1.972 -0.5244  0.4320  0.0925
   66MOL   C20031530   5.661   7.597   2.063  0.0714  0.3884  0.2797
   66MOL   O20131531   5.557   7.536   2.053  0.2902  0.0511 -0.0666
   66MOL   C20231532   5.735   7.599   2.194 -0.3089 -0.6836  0.3359
   66MOL   C20331533   5.708   7.732   2.268  0.1513  0.2444  0.1602
   66MOL   C20431534   5.672   7.714   2.413 -0.2518 -0.0510  0.1984
   66MOL   O20531535   5.576   7.774   2.464  0.0951  0.1835 -0.1370
   66MOL   H20631536   5.738   7.380   1.577  1.2289  1.3123  0.6774
   66MOL   H20731537   5.570   7.423   1.549  0.5439  1.1186  0.6503
   66MOL   H20831538   5.681   7.407   1.828 -1.8585 -1.5853  0.5114
   66MOL   H20931539   5.529   7.474   1.767 -0.2785 -0.9857 -1.2027
   66MOL   H21031540   5.684   7.651   1.640  0.9382  2.7500  0.8718
   66MOL   H21131541   5.805   7.598   1.747  0.8718  1.4264  0.1602
   66MOL   H21231542   5.661   7.799   1.812 -1.1741 -0.6840 -1.6692
   66MOL   H21331543   5.532   7.695   1.860 -0.4453  0.2083  0.4635
   66MOL   H21431544   5.844   7.596   2.182 -0.0741  2.2605  1.4823
   66MOL   H21531545   5.698   7.511   2.247 -4.0340  0.9223  0.5092
   66MOL   H21631546   5.791   7.802   2.259 -0.8611  1.4287 -0.0628
   66MOL   H21731547   5.618   7.781   2.230 -1.5885 -1.6393  1.6825
   66MOL   O21831548   5.755   7.628   2.483 -0.1890 -0.1680 -0.4660
   66MOL   C21931549   5.765   7.613   2.629 -0.1168 -0.8633 -0.2620
   66MOL   C22031550   5.685   7.495   2.682  0.4205 -0.3018  0.3629
   66MOL   C22131551   5.543   7.534   2.729 -0.2801  0.5071 -0.2946
   66MOL   C22231552   5.460   7.413   2.787 -0.1208 -0.2300 -0.2370
   66MOL   O22331553   5.433   7.306   2.704  0.0603 -0.4869 -0.3377
   66MOL   C22431554   5.312   7.281   2.655  0.5578  0.2195  0.1365
   66MOL   O22531555   5.209   7.328   2.702  0.3257  0.7172 -0.4641
   66MOL   C22631556   5.305   7.173   2.552  0.0531  0.4780 -0.0506
   66MOL   C22731557   5.394   7.188   2.429 -0.4247  0.0599 -0.0155
   66MOL   C22831558   5.327   7.131   2.307 -0.2992  0.6608  0.5619
   66MOL   O22931559   5.271   7.204   2.228  0.3828 -0.5939 -0.2270
   66MOL   H23031560   5.872   7.604   2.651 -0.4969 -1.0650  1.5989
   66MOL   H23131561   5.736   7.707   2.676  1.2728 -0.5002 -0.1097
   66MOL   H23231562   5.740   7.450   2.765  3.0838 -0.8618 -1.6480
   66MOL   H23331563   5.681   7.419   2.604 -2.1467  0.9813 -0.8172
   66MOL   H23431564   5.479   7.578   2.653 -0.2155  0.9074 -0.1148
   66MOL   H23531565   5.558   7.605   2.810  1.1799  1.6641 -1.5436
   66MOL   H23631566   5.506   7.367   2.875 -3.3871 -0.4275  1.4728
   66MOL   H23731567   5.365   7.452   2.826  0.4776  1.3811 -0.3512
   66MOL   H23831568   5.201   7.165   2.521  0.2486 -1.0637 -0.3496
   66MOL   H23931569   5.332   7.081   2.605 -0.4149 -0.2441 -1.0684
   66MOL   H24031570   5.412   7.293   2.405  2.5059 -0.5501 -0.7373
   66MOL   H24131571   5.493   7.143   2.436 -0.6428 -0.4338 -0.0319
   66MOL   O24231572   5.321   6.991   2.308  0.3141 -0.3264 -0.5721
   66MOL   C24331573   5.247   6.919   2.216 -1.1172 -0.3897 -0.0178
   66MOL   C24431574   5.109   6.869   2.271 -0.0911  0.1474 -0.4198
   66MOL   C24531575   4.995   6.969   2.285  0.5143  0.4187 -0.0981
   66MOL   C24631576   4.902   6.933   2.399  0.2857 -0.1395  0.2595
   66MOL   O24731577   4.824   7.049   2.430 -0.4441  0.4820 -0.2550
   66MOL   C24831578   4.704   7.062   2.382  0.4424  0.0079  0.3514
   66MOL   O24931579   4.639   6.979   2.317 -0.3389  0.0576  0.0808
   66MOL   C25031580   4.645   7.196   2.406 -0.5880  0.6327  0.1484
   66MOL   C25131581   4.688   7.291   2.302 -0.0127  0.3588 -0.9937
   66MOL   C25231582   4.771   7.406   2.363  1.2597 -0.0498 -0.3348
   66MOL   O25331583   4.714   7.511   2.386 -0.2549 -0.0345 -0.1308
   66MOL   H25431584   5.227   6.978   2.126  0.9875  1.8503  0.9510
   66MOL   H25531585   5.311   6.835   2.187 -1.5288 -1.0339  0.9417
   66MOL   H25631586   5.134   6.830   2.370  4.1687 -1.4784 -2.0019
   66MOL   H25731587   5.094   6.785   2.204 -1.0335 -1.3851  1.6438
   66MOL   H25831588   4.932   6.983   2.197 -0.8424 -0.6362  0.6813
   66MOL   H25931589   5.041   7.064   2.313 -0.7761  1.5733 -1.7801
   66MOL   H26031590   4.846   6.841   2.381  0.5908 -0.1364 -0.7245
   66MOL   H26131591   4.961   6.914   2.489 -0.4682 -0.4444  0.7005
   66MOL   H26231592   4.692   7.211   2.503  0.8667  1.4742 -0.6509
   66MOL   H26331593   4.539   7.178   2.419 -0.3165 -0.0706  1.4963
   66MOL   H26431594   4.744   7.241   2.223 -0.8359 -0.8230 -0.8464
   66MOL   H26531595   4.599   7.341   2.264 -0.5298  0.7848  0.7278
   66MOL   O26631596   4.896   7.373   2.388 -0.0567  0.0524 -0.5036
   66MOL   C26731597   4.980   7.447   2.477  0.6087  0.0589  0.8839
   66MOL   C26831598   5.071   7.546   2.391  0.5597  0.0722  0.6444
   66MOL   C26931599   5.181   7.605   2.484 -0.2057  0.4438 -0.4216
   66MOL   C27031600   5.136   7.670   2.613  1.0475 -0.3088  0.2525
   66MOL   O27131601   5.242   7.719   2.692  0.2395  0.0696  0.1516
   66MOL   C27231602   5.275   7.851   2.689  0.3617 -0.8532 -0.1439
   66MOL   O27331603   5.220   0.063   2.617 -0.1962  0.0315  0.2660
   66MOL   C27431604   5.390   0.003   2.778 -0.6230 -0.0355  0.1288
   66MOL   C27531605   5.408   0.156   2.807  0.4161  1.3304  0.1911
   66MOL   C27631606   5.319   0.199   2.925  0.1546 -0.4095 -0.0403
   66MOL   O27731607   5.196   0.181   2.926  0.6326  0.0750  0.3395
   66MOL   H27831608   4.932   7.496   2.562 -0.1799  0.2793  0.3195
   66MOL   H27931609   5.041   7.369   2.521 -0.4404 -0.4831  1.3784
   66MOL   H28031610   5.015   7.626   2.344  2.8072  0.8109 -0.8700
   66MOL   H28131611   5.115   7.491   2.307  1.2782 -2.4837  2.6267
   66MOL   H28231612   5.247   7.669   2.424  1.5976 -0.2011  0.8230
   66MOL   H28331613   5.248   7.521   2.501  0.0190  0.1350 -2.7005
   66MOL   H28431614   5.057   7.744   2.597  0.6353 -1.1670 -1.8255
   66MOL   H28531615   5.092   7.583   2.662  1.8427 -1.2275 -0.6478
   66MOL   H28631616   5.479   7.847   2.722 -0.3916 -0.7540  0.8797
   66MOL   H28731617   5.376   7.815   2.866 -0.6249  1.7681  1.4540
   66MOL   H28831618   5.514   0.175   2.825  1.0980 -0.5122 -1.6865
   66MOL   H28931619   5.381   0.202   2.713 -2.7775 -1.0729 -0.1266
   66MOL   O29031620   5.390   0.258   3.010 -0.6113 -0.2319  0.3453
   66MOL   C29131621   5.329   0.290   3.137 -0.0894 -0.7564 -0.0276
   66MOL   C29231622   5.258   0.422   3.128  0.3081  0.0039  0.4623
   66MOL   C29331623   5.345   0.536   3.079  0.2868 -0.5773 -0.0284
   66MOL   C29431624   5.262   0.665   3.089  0.1812  0.0118  0.6066
   66MOL   O29531625   5.339   0.776   3.036 -0.0112 -0.3888 -0.6382
   66MOL   C29631626   5.420   0.842   3.112  0.3157 -0.0273 -0.6557
   66MOL   O29731627   5.431   0.822   3.235 -0.1563  0.4687 -0.1815
   66MOL   C29831628   5.492   0.954   3.051 -0.5169  0.1457  0.0892
   66MOL   C29931629   5.395   1.069   3.014  0.3539 -0.0593  0.2949
   66MOL   C30031630   5.458   1.204   3.026 -0.3965  0.0174 -0.4166
   66MOL   O30131631   5.568   1.214   3.068 -0.8862  0.3123  0.1239
   66MOL   H30231632   5.258   0.216   3.175 -1.2248 -1.0535 -2.6412
   66MOL   H30331633   5.404   0.303   3.215 -0.9293 -2.3644  1.0930
   66MOL   H30431634   5.225   0.459   3.225 -0.4227  0.6959 -0.0469
   66MOL   H30531635   5.175   0.398   3.062  1.3289  0.9873 -1.2204
   66MOL   H30631636   5.385   0.514   2.980 -1.7805 -0.2176 -0.9679
   66MOL   H30731637   5.430   0.541   3.146  0.2729 -1.6854  0.0748
   66MOL   H30831638   5.167   0.659   3.035  1.1748 -0.6051 -1.1095
   66MOL   H30931639   5.222   0.689   3.188  1.1893  3.2473  0.2739
   66MOL   H31031640   5.537   0.916   2.960  2.3488 -1.1012  1.9485
   66MOL   H31131641   5.567   0.989   3.121 -0.0622  0.2185 -0.4354
   66MOL   H31231642   5.350   1.064   2.915  0.8095  0.2618  0.0697
   66MOL   H31331643   5.301   1.067   3.071  0.2973 -3.2787  0.1812
   66MOL   O31431644   5.377   1.310   2.990  0.4844  0.2990  0.2494
   66MOL   C31531645   5.425   1.444   3.010  0.6946  0.3508  0.4724
   66MOL   C31631646   5.325   1.536   2.932 -0.0434  0.0574  0.3547
   66MOL   C31731647   5.330   1.500   2.778  0.4273 -0.6480 -0.3983
   66MOL   C31831648   5.269   1.612   2.693  0.4877 -0.0419  0.1294
   66MOL   O31931649   5.132   1.646   2.718 -0.5295 -0.3121 -0.4365
   66MOL   C32031650   5.097   1.756   2.792 -0.2880 -0.0802  0.6869
   66MOL   O32131651   5.175   1.838   2.835 -0.0979 -0.0871  0.2211
   66MOL   C32231652   4.944   1.749   2.825  0.3448  0.1825  0.0810
   66MOL   C32331653   4.890   1.626   2.891 -0.0644  0.6720 -0.0202
   66MOL   C32431654   4.955   1.577   3.024 -0.4978 -0.4436 -0.1658
   66MOL   O32531655   5.037   1.642   3.090 -0.6322  0.0013 -0.5593
   66MOL   H32631656   5.412   1.470   3.115  0.2817  0.9958  0.2704
   66MOL   H32731657   5.528   1.461   2.980  0.6733 -2.0521 -1.0695
   66MOL   H32831658   5.357   1.640   2.931 -0.1378  0.0794 -1.1224
   66MOL   H32931659   5.219   1.529   2.958 -0.9874  0.4710 -3.0676
   66MOL   H33031660   5.275   1.406   2.771 -0.4930 -0.1760  0.4132
   66MOL   H33131661   5.431   1.474   2.745  0.6713 -2.6885  1.8232
   66MOL   H33231662   5.323   1.706   2.700 -0.5585  0.8079 -2.6334
   66MOL   H33331663   5.278   1.585   2.588  1.6436 -0.8928  0.4365
   66MOL   H33431664   4.895   1.744   2.728  1.7367  0.7469 -0.6615
   66MOL   H33531665   4.900   1.832   2.881 -1.2827 -0.4055 -0.2979
   66MOL   H33631666   4.782   1.634   2.905 -0.3850  2.2174 -3.0495
   66MOL   H33731667   4.897   1.548   2.815 -1.1622  0.9841 -0.4400
   66MOL   O33831668   4.908   1.455   3.053  0.3202  0.4366  0.3741
   66MOL   C33931669   4.922   1.406   3.188 -0.2008  0.2595 -0.5681
   66MOL   C34031670   4.797   1.438   3.270  0.6617 -0.1725 -0.1204
   66MOL   C34131671   4.788   1.370   3.408 -0.1416 -0.1648 -0.1511
   66MOL   C34231672   4.672   1.412   3.508 -0.2626  0.3926  0.7277
   66MOL   O34331673   4.543   1.387   3.440 -0.1890 -0.0090  0.0164
   66MOL   C34431674   4.435   1.385   3.512 -0.1177 -0.2560 -0.3611
   66MOL   O34531675   4.428   1.390   3.638  0.1989 -0.0744  0.2633
   66MOL   C34631676   4.314   1.379   3.423 -0.2826 -0.0261  0.2946
   66MOL   C34731677   4.238   1.247   3.450 -0.9787  0.6474 -0.0709
   66MOL   C34831678   4.091   1.269   3.451  0.0877 -0.4802  0.1604
   66MOL   O34931679   4.013   1.220   3.367 -0.9065  0.6006 -0.0322
   66MOL   H35031680   4.944   1.300   3.187  0.5069  0.3878  0.4133
   66MOL   H35131681   5.005   1.454   3.241 -1.7815  2.1814  0.2202
   66MOL   H35231682   4.709   1.408   3.213  0.4752 -2.3937  1.2800
   66MOL   H35331683   4.789   1.547   3.271  0.1142 -0.1954 -1.1113
   66MOL   H35431684   4.885   1.396   3.452 -1.2759  2.0745  1.1035
   66MOL   H35531685   4.783   1.262   3.393  1.7077 -0.4321  0.9149
   66MOL   H35631686   4.672   1.344   3.593 -2.7296 -1.7215 -0.8691
   66MOL   H35731687   4.670   1.514   3.544 -2.0595  0.5901  0.1223
   66MOL   H35831688   4.360   1.380   3.324 -1.2248 -0.1701 -0.1472
   66MOL   H35931689   4.256   1.471   3.425 -0.2514  0.0417 -1.1833
   66MOL   H36031690   4.264   1.177   3.370 -1.5470 -2.8183  2.6295
   66MOL   H36131691   4.274   1.189   3.536  1.0206  0.6466 -0.8720
   66MOL   O36231692   4.050   1.353   3.551 -0.4190 -0.8345  0.1008
   66MOL   C36331693   3.917   1.406   3.567  0.1729  0.1912  0.3096
   66MOL   C36431694   3.852   1.342   3.680  0.0629  0.4676  0.8252
   66MOL   C36531695   3.906   1.410   3.808 -0.7071  0.3233  0.3950
   66MOL   C36631696   3.871   1.331   3.942  0.0498 -0.4836  1.0487
   66MOL   O36731697   3.729   1.357   3.970 -0.3891  0.0450  0.7044
   66MOL   C36831698   3.684   1.347   4.093 -0.5324  0.3564  0.1926
   66MOL   O36931699   3.749   1.304   4.192 -0.2853  0.3183 -0.3389
   66MOL   C37031700   3.541   1.397   4.105  0.3083  0.7383 -0.8279
   66MOL   C37131701   3.528   1.554   4.088 -0.7872  0.4572  0.3866
   66MOL   C37231702   3.468   1.599   3.954  0.9781  0.8141  0.4208
   66MOL   O37331703   3.348   1.628   3.935  0.1142  0.0686 -0.0875
   66MOL   H37431704   3.925   1.514   3.581 -0.2357  0.4843 -1.6236
   66MOL   H37531705   3.856   1.378   3.482 -0.7476 -1.3049  1.4388
   66MOL   H37631706   3.864   1.234   3.687 -1.1446  0.3879  1.8748
   66MOL   H37731707   3.744   1.356   3.685 -0.1446  0.2731 -2.4745
   66MOL   H37831708   3.873   1.513   3.797 -1.7717 -0.2149 -1.6287
   66MOL   H37931709   4.014   1.409   3.799 -0.6840 -0.1857  0.6556
   66MOL   H38031710   3.887   1.224   3.927 -1.5421 -0.9808  2.6281
   66MOL   H38131711   3.935   1.369   4.021  0.0055  0.7465  0.4969
   66MOL   H38231712   3.512   1.367   4.206  1.9298 -0.1314 -0.5966
   66MOL   H38331713   3.462   1.338   4.058 -0.3702  0.3734  0.7148
   66MOL   H38431714   3.449   1.589   4.155  0.1849 -0.3146  1.9621
   66MOL   H38531715   3.620   1.607   4.111 -0.8245  0.2669  0.9915
   66MOL   O38631716   3.561   1.599   3.861  0.2191 -0.4082 -0.0109
   66MOL   C38731717   3.532   1.626   3.723  0.1835  0.6729  0.0592
   66MOL   C38831718   3.587   1.764   3.683 -0.2518 -0.7430  0.3458
   66MOL   C38931719   3.550   1.817   3.541 -0.3039  0.2782 -0.6131
   66MOL   C39031720   3.593   1.960   3.527 -0.9127  0.0686  0.7101
   66MOL   O39131721   3.732   1.964   3.526  0.2418 -0.2801  0.4968
   66MOL   C39231722   3.798   1.964   3.403 -0.0076  0.1617 -0.5612
   66MOL   O39331723   3.746   1.960   3.292 -0.5515  0.0432  0.2320
   66MOL   C39431724   3.948   1.951   3.416  0.1854  0.5456 -0.9239
   66MOL   C39531725   3.974   1.873   3.540 -0.3099  0.1218 -1.1586
   66MOL   C39631726   4.101   1.785   3.537 -0.3192 -0.1982 -0.4207
   66MOL   O39731727   4.142   1.735   3.432  0.4202  0.0383 -0.0878
   66MOL   H39831728   3.589   1.552   3.665  0.2322  0.0121  0.9417
   66MOL   H39931729   3.428   1.612   3.694 -0.8092  2.9734  2.3706
   66MOL   H40031730   3.693   1.757   3.708 -0.4492 -1.4285  1.0058
   66MOL   H40131731   3.541   1.843   3.743 -0.0589 -2.4579  2.8240
   66MOL   H40231732   3.441   1.814   3.542 -0.2943  0.0290  0.9136
   66MOL   H40331733   3.592   1.756   3.461  1.2581  0.8938 -0.2824
   66MOL   H40431734   3.555   2.008   3.437  0.0093 -0.1804  0.1788
   66MOL   H40531735   3.559   2.015   3.614 -0.3165 -1.2819  1.8317
   66MOL   H40631736   4.008   2.042   3.417 -0.0861  0.7263 -1.0174
   66MOL   H40731737   3.976   1.899   3.324  1.5104  0.5769 -0.5518
   66MOL   H40831738   3.988   1.944   3.622 -0.7274  0.3671 -1.2991
   66MOL   H40931739   3.893   1.807   3.570  1.1585 -0.0065  2.8225
   66MOL   O41031740   4.153   1.769   3.657 -0.5322 -0.0593 -0.1607
   66MOL   C41131741   4.261   1.678   3.687 -0.3551  0.1840 -0.5418
   66MOL   C41231742   4.393   1.745   3.730  0.1985 -0.1794  0.5148
   66MOL   C41331743   4.481   1.795   3.601 -0.0076  0.4615  0.9557
   66MOL   C41431744   4.604   1.889   3.635  0.2092  0.0851 -0.0401
   66MOL   O41531745   4.692   1.905   3.532 -0.1205 -0.0283 -0.6672
   66MOL   C41631746   4.777   1.808   3.501 -0.4916 -0.5051 -0.2732
   66MOL   O41731747   4.795   1.712   3.573 -0.0920  0.4301  0.5234
   66MOL   C41831748   4.856   1.822   3.371  0.1059  0.1817 -0.0656
   66MOL   C41931749   4.789   1.897   3.259  0.4346  0.4545 -0.0423
   66MOL   C42031750   4.643   1.849   3.229 -0.3669 -0.3895  0.1246
   66MOL   O42131751   4.629   1.732   3.191 -0.1760 -0.3498  0.3431
   66MOL   H42231752   4.229   1.614   3.770 -0.1276  1.1351  0.2794
   66MOL   H42331753   4.288   1.618   3.600 -1.0655 -1.7235  0.5132
   66MOL   H42431754   4.454   1.671   3.782 -0.8871 -2.1178 -0.9184
   66MOL   H42531755   4.385   1.841   3.782 -2.2339 -0.0820  0.0083
   66MOL   H42631756   4.427   1.838   3.517  0.8519 -0.6110 -0.1499
   66MOL   H42731757   4.518   1.705   3.551 -2.9250 -1.7316  2.5834
   66MOL   H42831758   4.554   1.982   3.662 -0.5366  0.5496 -2.8091
   66MOL   H42931759   4.652   1.847   3.723 -0.3520 -3.6022 -1.3764
   66MOL   H43031760   4.897   1.724   3.344 -2.2571 -0.9572  0.4082
   66MOL   H43131761   4.940   1.879   3.410 -0.1463 -0.0302  0.8065
   66MOL   H43231762   4.780   2.003   3.282  0.4389  0.5996 -0.6873
   66MOL   H43331763   4.850   1.903   3.168  2.3936 -0.8623  1.1445
   66MOL   O43431764   4.551   1.938   3.257  0.8511  0.0370  0.0442
   66MOL   C43531765   4.412   1.899   3.241  0.0111  0.3147 -0.1633
   66MOL   C43631766   4.333   2.019   3.286 -0.6612 -0.0085 -0.4809
   66MOL   C43731767   4.335   2.143   3.184 -0.1271  0.2815 -0.6327
   66MOL   C43831768   4.262   2.111   3.058 -0.6967  0.2810  0.0299
   66MOL   O43931769   4.126   2.091   3.094 -0.4066  0.0678 -0.4691
   66MOL   C44031770   4.039   2.073   2.992 -0.1886  0.1824 -0.4235
   66MOL   O44131771   4.065   2.077   2.870  0.0542  0.1388  0.3678
   66MOL   C44231772   3.899   2.039   3.032 -0.7455  0.0064 -0.3182
   66MOL   C44331773   3.788   2.089   2.941  0.2109 -0.2373 -0.7890
   66MOL   C44431774   3.708   2.202   2.994  0.1652  0.3243  0.2952
   66MOL   O44531775   3.586   2.196   3.010 -0.5985  0.0658 -0.7380
   66MOL   H44631776   4.391   1.868   3.139  2.4299  0.0783 -0.6371
   66MOL   H44731777   4.395   1.810   3.301  1.1760 -0.7731 -1.4278
   66MOL   H44831778   4.371   2.067   3.377 -0.3521 -0.2144 -0.4987
   66MOL   H44931779   4.228   1.996   3.299 -0.7315 -0.9634 -2.6369
   66MOL   H45031780   4.438   2.170   3.157  0.6677  0.3754  2.3183
   66MOL   H45131781   4.288   2.230   3.229 -0.1601 -0.1435  0.1662
   66MOL   H45231782   4.278   2.180   2.976 -0.4827 -1.7016 -1.6420
   66MOL   H45331783   4.306   2.016   3.028 -1.1091 -0.5055  1.8078
   66MOL   H45431784   3.891   2.078   3.134 -2.0255  0.1401 -0.4547
   66MOL   H45531785   3.891   1.930   3.036 -1.8068  0.0768 -0.4131
   66MOL   H45631786   3.831   2.137   2.853 -0.1296  1.3693 -0.0995
   66MOL   H45731787   3.720   2.011   2.907 -1.1667  0.4304  0.3865
   66MOL   O45831788   3.789   2.301   3.028  0.0457  0.0550 -0.2447
   66MOL   C45931789   3.732   2.424   3.076 -0.5185  0.6786 -0.4255
   66MOL   C46031790   3.746   2.455   3.228 -0.5344  0.9112  0.2400
   66MOL   C46131791   3.756   2.327   3.317  0.4007 -0.1068  0.3230
   66MOL   C46231792   3.729   2.358   3.463  0.2368 -0.1147 -0.2958
   66MOL   O46331793   3.593   2.372   3.500 -0.4815 -0.3113  0.3783
   66MOL   C46431794   3.568   2.471   3.590  0.4184 -0.2060 -0.0728
   66MOL   O46531795   3.651   2.548   3.640 -0.4631  0.9807 -0.2407
   66MOL   C46631796   3.425   2.480   3.632  0.0951  0.1298  0.1802
   66MOL   C46731797   3.404   2.540   3.778  1.0517  0.2699 -0.0061
   66MOL   C46831798   3.324   2.439   3.869 -0.0641  0.2084 -0.2742
   66MOL   O46931799   3.355   2.321   3.893 -0.1509 -0.0480 -0.3741
   66MOL   H47031800   3.776   2.496   3.007 -0.1985  0.6831 -0.2170
   66MOL   H47131801   3.626   2.433   3.054 -0.8325 -0.0827  0.7333
   66MOL   H47231802   3.663   2.513   3.267 -0.3774 -0.2635  2.4350
   66MOL   H47331803   3.840   2.510   3.229  1.0942 -1.7180 -0.0700
   66MOL   H47431804   3.858   2.293   3.297 -0.0544 -2.3139  1.6108
   66MOL   H47531805   3.687   2.255   3.275 -1.0659  1.1990  0.4472
   66MOL   H47631806   3.765   2.275   3.523 -0.0494 -0.7575 -0.9944
   66MOL   H47731807   3.779   2.449   3.493  2.8824 -2.1683  1.8307
   66MOL   H47831808   3.386   2.378   3.622  2.6224 -0.6806 -2.3202
   66MOL   H47931809   3.378   2.537   3.552 -0.3375 -0.1881  0.2035
   66MOL   H48031810   3.501   2.552   3.825  1.3244 -2.0488  0.0916
   66MOL   H48131811   3.355   2.636   3.766 -0.9885 -0.7780 -0.3667
   66MOL   H48231812   3.229   2.476   3.906 -0.2949 -0.8904  0.2673
   67MOL     O131813   6.742   6.835   2.039 -0.0383  0.2965 -0.1763
   67MOL     C231814   6.638   6.796   2.123 -0.5517 -0.1886  0.2926
   67MOL     C331815   6.503   6.775   2.058  0.1280 -0.4319  0.5544
   67MOL     C431816   6.457   6.894   1.978  0.0568 -0.5184  0.2649
   67MOL     C531817   6.346   6.838   1.887  0.2076  0.1357  0.1642
   67MOL     O631818   6.292   6.950   1.814 -0.4784 -0.5777 -0.3786
   67MOL     C731819   6.162   6.955   1.775 -0.5431  0.1855 -0.6458
   67MOL     O831820   6.076   6.865   1.793 -0.5111  0.1239  0.1221
   67MOL     C931821   6.123   7.083   1.700 -0.3792  0.2468  0.0229
   67MOL    C1031822   5.992   7.146   1.743  0.1441  0.0165 -0.1773
   67MOL    C1131823   6.006   7.297   1.731 -0.0540  0.5231  0.1076
   67MOL    O1231824   5.978   7.356   1.624  0.7629 -0.2932 -0.0563
   67MOL    H1331825   6.668   6.699   2.161  1.8038  0.1412 -0.6450
   67MOL    H1431826   6.633   6.873   2.200  0.6302  0.8526 -0.6343
   67MOL    H1531827   6.422   6.749   2.127  0.6986  2.7075  2.5493
   67MOL    H1631828   6.513   6.685   1.999 -1.4144 -0.7311  0.7245
   67MOL    H1731829   6.534   6.928   1.910 -1.5184  0.4625 -1.0720
   67MOL    H1831830   6.420   6.978   2.037  1.4271 -0.0760  0.5011
   67MOL    H1931831   6.391   6.771   1.814 -1.5822 -0.5501 -0.3364
   67MOL    H2031832   6.260   6.789   1.933  0.3981  0.8910  1.3462
   67MOL    H2131833   6.114   7.054   1.595  0.8268  0.4888 -0.1458
   67MOL    H2231834   6.210   7.149   1.697  0.4490 -0.9057 -3.2050
   67MOL    H2331835   5.911   7.099   1.687  1.8167 -3.2044 -0.0354
   67MOL    H2431836   5.965   7.122   1.846  0.9874 -3.1783 -0.6341
   67MOL    H2531837   6.824   6.836   2.085 -0.2326 -0.4800  0.1844
   67MOL    O2631838   6.037   7.349   1.843 -1.2431  0.4954 -0.1407
   67MOL    C2731839   6.058   7.488   1.864 -0.8072  0.0797  0.5761
   67MOL    C2831840   6.199   7.538   1.890 -0.7536 -0.4304 -0.2529
   67MOL    C2931841   6.258   7.473   2.023  0.5051  0.8964  0.3017
   67MOL    C3031842   6.326   7.342   1.997 -0.4311 -0.6632 -0.5567
   67MOL    O3131843   6.379   7.282   2.117  0.3268 -0.1210  0.2709
   67MOL    C3231844   6.308   7.189   2.177 -0.2220  0.7461 -0.4387
   67MOL    O3331845   6.196   7.146   2.138 -0.1168  0.4433  0.0834
   67MOL    C3431846   6.383   7.131   2.298 -0.4741  0.0681 -0.1291
   67MOL    C3531847   6.413   7.232   2.405  0.6740 -0.5595 -0.7810
   67MOL    C3631848   6.538   7.201   2.487  0.1898 -0.2437  0.0595
   67MOL    O3731849   6.529   7.126   2.587  0.7368 -0.3240  0.3355
   67MOL    H3831850   6.017   7.548   1.783 -0.9641 -2.4020 -1.2341
   67MOL    H3931851   5.988   7.516   1.942 -0.1657 -0.4094  1.3303
   67MOL    H4031852   6.188   7.643   1.915 -0.8092 -0.6201  0.5507
   67MOL    H4131853   6.267   7.538   1.805  0.0636  0.4760  0.3828
   67MOL    H4231854   6.176   7.453   2.092  0.1229 -1.8301 -0.8522
   67MOL    H4331855   6.327   7.534   2.081  0.8730 -0.0301  0.8429
   67MOL    H4431856   6.255   7.278   1.944  0.1524  0.0833 -2.2461
   67MOL    H4531857   6.413   7.360   1.935  0.0016 -2.6168 -0.5730
   67MOL    H4631858   6.470   7.089   2.247 -1.0513 -1.4165  0.0981
   67MOL    H4731859   6.317   7.053   2.335  0.6310 -0.1018  1.5440
   67MOL    H4831860   6.426   7.332   2.364  0.5752  0.0582  0.6913
   67MOL    H4931861   6.335   7.232   2.481  0.4184  0.8356 -1.0377
   67MOL    O5031862   6.646   7.258   2.435  0.2778  0.3934 -0.0278
   67MOL    C5131863   6.775   7.231   2.501  0.0806 -0.2240  0.5119
   67MOL    C5231864   6.849   7.105   2.438 -0.1118  0.6600 -0.1500
   67MOL    C5331865   6.992   7.087   2.495  0.0476 -0.0982  0.0790
   67MOL    C5431866   7.075   6.971   2.428 -0.1694  0.8089 -0.3589
   67MOL    O5531867   7.082   7.013   2.292 -0.6997 -0.2160  0.3902
   67MOL    C5631868   7.201   7.048   2.244  0.1333  0.1550 -0.4708
   67MOL    O5731869   7.309   7.054   2.310  0.7719 -0.0891 -0.0067
   67MOL    C5831870   7.213   7.084   2.098  0.3858  0.4442  0.5257
   67MOL    C5931871   7.244   7.233   2.094 -0.1686 -0.0865  0.2606
   67MOL    C6031872   7.121   7.322   2.082  0.1690 -0.0324 -0.5430
   67MOL    O6131873   7.122   7.409   1.998  0.3154  0.4962 -0.0862
   67MOL    H6231874   6.838   7.315   2.471 -0.1357 -0.5467 -0.8867
   67MOL    H6331875   6.766   7.238   2.609  1.3902 -0.2882  0.6377
   67MOL    H6431876   6.849   7.115   2.330 -1.1375 -0.3481 -0.2523
   67MOL    H6531877   6.790   7.015   2.457  0.9985  0.2254  1.3411
   67MOL    H6631878   6.988   7.068   2.602  0.0599 -0.8603 -0.0574
   67MOL    H6731879   7.053   7.178   2.492  0.0490 -0.1139 -0.4980
   67MOL    H6831880   7.168   6.962   2.484 -0.8739 -0.6565  0.6103
   67MOL    H6931881   7.015   6.880   2.431 -0.9458  1.1957 -2.6587
   67MOL    H7031882   7.119   7.055   2.052 -0.3500  2.0935  0.9515
   67MOL    H7131883   7.294   7.027   2.053 -1.9274 -1.7563 -0.9422
   67MOL    H7231884   7.323   7.272   2.158 -0.1451 -0.9621  0.7766
   67MOL    H7331885   7.298   7.242   2.000  1.2157  1.5548  1.1891
   67MOL    O7431886   7.012   7.294   2.160  0.4276  0.0109 -0.0708
   67MOL    C7531887   6.905   7.383   2.178 -0.1134 -0.0601 -0.4179
   67MOL    C7631888   6.795   7.372   2.073  0.6495 -0.3084  0.1445
   67MOL    C7731889   6.721   7.240   2.051 -0.0089  0.2734 -0.3133
   67MOL    C7831890   6.808   7.134   1.976  0.4498 -0.1948  0.5510
   67MOL    O7931891   6.874   7.190   1.861 -0.5981  0.8251 -0.0730
   67MOL    C8031892   6.972   7.107   1.804  0.0756 -0.0199  0.0416
   67MOL    O8131893   6.993   6.992   1.836 -0.3174 -0.3077 -0.0468
   67MOL    C8231894   7.060   7.181   1.703 -0.3028 -0.0813 -0.2014
   67MOL    C8331895   7.167   7.095   1.639  0.0028 -0.3278  0.6207
   67MOL    C8431896   7.308   7.115   1.697 -0.2319 -0.6648  0.7545
   67MOL    O8531897   7.346   7.057   1.803 -0.1253 -0.1583  0.4731
   67MOL    H8631898   6.864   7.355   2.275 -1.7074 -2.7943 -1.8368
   67MOL    H8731899   6.938   7.484   2.203 -0.2472  0.2059 -1.3042
   67MOL    H8831900   6.827   7.421   1.981 -0.6722  0.6734  0.1963
   67MOL    H8931901   6.722   7.440   2.118  0.7396  1.2600 -2.0049
   67MOL    H9031902   6.628   7.257   1.998 -0.0329 -1.2989 -0.7943
   67MOL    H9131903   6.689   7.200   2.147  0.0957  0.6154 -0.1354
   67MOL    H9231904   6.879   7.093   2.048  0.0487 -0.6532  0.6932
   67MOL    H9331905   6.741   7.056   1.941 -1.3549  0.6496  2.0385
   67MOL    H9431906   7.099   7.267   1.758  1.8768 -1.2774  0.1647
   67MOL    H9531907   6.987   7.225   1.634 -0.8137 -1.6449 -0.6650
   67MOL    H9631908   7.141   6.989   1.645  1.4069 -0.7063  0.2994
   67MOL    H9731909   7.173   7.120   1.533  0.1109 -1.1508  0.4278
   67MOL    O9831910   7.375   7.211   1.633  0.5285 -0.2718 -0.4636
   67MOL    C9931911   7.510   7.232   1.670 -0.3253  0.1552 -0.6840
   67MOL   C10031912   7.556   7.367   1.606 -0.3153  0.6424 -0.2864
   67MOL   C10131913   7.502   7.491   1.679 -0.2917  0.5180  0.0592
   67MOL   C10231914   7.557   7.617   1.619  0.2702 -0.9910  0.0128
   67MOL   O10331915   7.505   7.627   1.478 -0.2911 -0.3616  0.1385
   67MOL   C10431916   7.599   7.669   1.389  0.2761  0.1129  0.3067
   67MOL   O10531917   7.703   7.722   1.417  0.3659 -0.3580 -0.2936
   67MOL   C10631918   7.543   7.661   1.247  0.1279 -0.4081 -0.0607
   67MOL   C10731919   7.665   7.671   1.143 -0.1916  0.2819  0.8890
   67MOL   C10831920   7.691   7.798   1.071 -0.0727 -0.7331  0.4149
   67MOL   O10931921   7.641   0.027   1.110 -0.3416  0.4412  0.6804
   67MOL   H11031922   7.520   7.220   1.778  0.2643  0.3638 -0.7159
   67MOL   H11131923   7.576   7.152   1.635  0.4601 -0.8737  2.9226
   67MOL   H11231924   7.530   7.371   1.500 -1.9928  0.9643  0.1161
   67MOL   H11331925   7.664   7.371   1.620 -0.5735  0.6417  1.9763
   67MOL   H11431926   7.525   7.492   1.785  1.3605  1.5280 -0.2964
   67MOL   H11531927   7.394   7.486   1.665 -0.1102 -0.5209 -1.1365
   67MOL   H11631928   7.545   7.704   1.683 -0.5715 -2.2603  1.6163
   67MOL   H11731929   7.666   7.614   1.622  0.3306 -0.3077 -1.1028
   67MOL   H11831930   7.465   7.733   1.222  0.3086  0.2516  1.2216
   67MOL   H11931931   7.505   7.559   1.245 -3.1482  0.7714 -0.5561
   67MOL   H12031932   7.757   7.633   1.187  0.7675  0.5790 -0.8107
   67MOL   H12131933   7.655   7.595   1.065  0.2082 -0.7823  1.8538
   67MOL   O12231934   7.783   7.787   0.974  0.1078 -0.3404  0.3241
   67MOL   C12331935   7.837   0.028   0.916 -0.4463 -0.4911  0.7295
   67MOL   C12431936   0.050   7.871   0.789 -0.0230 -0.3843 -0.1246
   67MOL   C12531937   0.113   0.116   0.733 -0.6532 -0.0407  0.8195
   67MOL   C12631938   0.200   0.069   0.609 -0.8210  0.2720  0.2400
   67MOL   O12731939   0.305   7.856   0.645 -0.1470  0.6619  0.1595
   67MOL   C12831940   0.408   7.844   0.561 -0.7158  0.1906 -0.2934
   67MOL   O12931941   0.415   0.010   0.448 -0.0553 -0.0847  0.0806
   67MOL   C13031942   0.518   7.752   0.608 -0.0206 -0.6316  0.4105
   67MOL   C13131943   0.474   7.607   0.628 -0.3710  0.1488  0.4039
   67MOL   C13231944   0.585   7.506   0.607 -0.3387  0.2073  0.6128
   67MOL   O13331945   0.684   7.503   0.684  0.1798 -0.7286  0.5960
   67MOL   H13431946   7.768   0.110   0.894  0.4224  0.5845  1.9109
   67MOL   H13531947   0.028   0.076   0.989 -0.5220  1.4103 -0.4188
   67MOL   H13631948   7.874   7.805   0.718 -0.9199 -0.3413  0.4687
   67MOL   H13731949   0.131   7.812   0.834 -0.7338 -1.3589 -0.1075
   67MOL   H13831950   0.183   0.163   0.802 -2.0357  1.7870  0.9982
   67MOL   H13931951   0.052   0.200   0.701  0.2464 -0.0718 -1.0438
   67MOL   H14031952   0.137   0.012   0.541  0.5437 -2.2075  0.9443
   67MOL   H14131953   0.233   0.162   0.563  0.0476 -1.6654 -3.2632
   67MOL   H14231954   0.550   7.792   0.705 -1.0816  0.0849  0.4812
   67MOL   H14331955   0.598   7.762   0.536 -0.3964  0.2991  0.1122
   67MOL   H14431956   0.440   7.603   0.732  0.3607 -0.8557  0.6141
   67MOL   H14531957   0.388   7.583   0.566 -0.1227 -1.7028  0.7263
   67MOL   O14631958   0.562   7.415   0.510  0.0480  0.7830  0.1930
   67MOL   C14731959   0.649   7.303   0.501  0.1194 -0.0176  0.3924
   67MOL   C14831960   0.608   7.195   0.607 -0.4045 -0.4079  0.4096
   67MOL   C14931961   0.470   7.128   0.575 -0.1128 -0.4275  0.4390
   67MOL   C15031962   0.353   7.215   0.642 -0.0050 -0.4568  0.0089
   67MOL   O15131963   0.231   7.143   0.645  0.4745  0.0762  0.5077
   67MOL   C15231964   0.154   7.146   0.532 -0.5844 -0.4765  0.1570
   67MOL   O15331965   0.183   7.206   0.425  0.8867  0.6895  0.2470
   67MOL   C15431966   0.046   7.038   0.537 -0.2269  0.5127 -0.7718
   67MOL   C15531967   7.794   7.107   0.589 -0.6230 -0.5626 -0.0736
   67MOL   C15631968   7.708   7.168   0.484 -0.9154 -0.5168  0.3423
   67MOL   O15731969   7.747   7.181   0.370 -0.1116 -0.1458  0.1326
   67MOL   H15831970   0.636   7.267   0.399 -1.4128  1.0105  0.2125
   67MOL   H15931971   0.750   7.345   0.506  0.4589 -0.5492 -1.5438
   67MOL   H16031972   0.613   7.231   0.710  0.5767 -0.4315  0.3769
   67MOL   H16131973   0.687   7.121   0.600  1.6009  1.3798  2.9946
   67MOL   H16231974   0.466   7.030   0.623  0.2872 -0.5829  0.1566
   67MOL   H16331975   0.452   7.089   0.475 -0.2591 -0.5108  0.4967
   67MOL   H16431976   0.379   7.240   0.745 -1.0774  0.7475 -0.0062
   67MOL   H16531977   0.363   7.308   0.586 -1.0105 -0.0951  0.4153
   67MOL   H16631978   0.079   6.967   0.613  0.0023  0.5245 -0.8598
   67MOL   H16731979   0.027   7.004   0.436 -2.4228  0.8996 -0.5103
   67MOL   H16831980   7.739   7.033   0.647 -0.1677 -2.8106 -2.4463
   67MOL   H16931981   7.814   7.179   0.669  1.7299 -1.6957  0.4023
   67MOL   O17031982   7.595   7.229   0.527 -0.1588  0.5787 -0.2141
   67MOL   C17131983   7.503   7.277   0.432  0.2586 -0.1362 -0.0854
   67MOL   C17231984   7.380   7.185   0.416 -0.2396 -0.3653 -0.0462
   67MOL   C17331985   7.281   7.232   0.314 -0.2915  0.5920 -0.9039
   67MOL   C17431986   7.176   7.330   0.372  0.0506 -0.4748 -0.8023
   67MOL   O17531987   7.236   7.462   0.363  0.7564  0.5133 -0.3863
   67MOL   C17631988   7.248   7.542   0.473 -0.0363 -0.0299  0.4116
   67MOL   O17731989   7.235   7.514   0.595 -0.1834  0.1496  0.2472
   67MOL   C17831990   7.290   7.685   0.428  0.2532 -0.0344  0.1325
   67MOL   C17931991   7.207   7.800   0.487 -0.0355  0.2245  0.8920
   67MOL   C18031992   7.105   7.859   0.391 -0.2156  0.1081 -0.0289
   67MOL   O18131993   7.125   7.865   0.272 -0.6176  0.2742  0.3921
   67MOL   H18231994   7.459   7.370   0.466  0.2055  0.2017 -1.0561
   67MOL   H18331995   7.554   7.301   0.338 -0.6142  0.4576 -0.4077
   67MOL   H18431996   7.339   7.161   0.514  0.6246  3.2580  1.2486
   67MOL   H18531997   7.419   7.089   0.381  1.1715  0.4206 -0.6788
   67MOL   H18631998   7.217   7.145   0.300  0.5906 -0.6133  2.1423
   67MOL   H18731999   7.310   7.269   0.216 -2.8292 -1.0381 -2.3270
   67MOL   H18832000   7.090   7.339   0.305 -0.9974  0.6333  0.6685
   67MOL   H18932001   7.149   7.315   0.476  0.8967  0.4057 -0.4458
   67MOL   H19032002   7.285   7.694   0.319 -0.2972  2.2230  0.3332
   67MOL   H19132003   7.397   7.697   0.447 -0.0331 -0.9741  2.4463
   67MOL   H19232004   7.156   7.762   0.576  1.7328 -2.2959  0.8968
   67MOL   H19332005   7.268   0.013   0.510  2.2496 -0.5985 -1.7408
   67MOL   O19432006   7.002   0.029   0.463  0.6511  0.0767  0.7620
   67MOL   C19532007   6.881   0.071   0.409  0.7102  0.3117  0.5607
   67MOL   C19632008   6.762   0.025   0.490  0.4701 -0.3161  0.3361
   67MOL   C19732009   6.740   7.750   0.517  0.0430  0.3906  0.7684
   67MOL   C19832010   6.750   7.646   0.401 -0.2957 -0.1577 -0.3790
   67MOL   O19932011   6.706   7.526   0.453  0.1478  0.1544 -0.3557
   67MOL   C20032012   6.786   7.423   0.471  0.0248 -0.2055 -0.2730
   67MOL   O20132013   6.909   7.438   0.459  0.4247  0.3352  0.3138
   67MOL   C20232014   6.709   7.291   0.494  0.0620 -0.5622 -1.0829
   67MOL   C20332015   6.597   7.294   0.596  0.2429  0.1658  0.4810
   67MOL   C20432016   6.656   7.287   0.738 -0.4522  0.6169 -0.0327
   67MOL   O20532017   6.609   7.210   0.821 -0.3173  0.0503  0.7201
   67MOL   H20632018   6.862   0.178   0.401  0.1390  0.1155 -1.0124
   67MOL   H20732019   6.861   0.018   0.315 -0.3274 -0.6978  1.3246
   67MOL   H20832020   6.671   0.048   0.435  0.5801 -1.0132 -0.1516
   67MOL   H20932021   6.750   0.080   0.583 -0.3633 -0.6937  0.4579
   67MOL   H21032022   6.646   7.746   0.572  1.6798  0.2437  3.6706
   67MOL   H21132023   6.810   7.729   0.597  1.3144 -0.2175 -0.4818
   67MOL   H21232024   6.687   7.667   0.315  2.4297 -0.9555 -2.6640
   67MOL   H21332025   6.844   7.627   0.349 -1.6720 -2.5394 -2.0929
   67MOL   H21432026   6.778   7.218   0.535  1.3787  2.0729  1.5587
   67MOL   H21532027   6.660   7.257   0.402  0.1859 -2.0067 -0.6270
   67MOL   H21632028   6.527   7.376   0.578  2.4339  1.6298 -1.6235
   67MOL   H21732029   6.532   7.210   0.573  2.3360 -0.5118 -3.4365
   67MOL   O21832030   6.745   7.374   0.759 -0.0058 -0.5287  0.3506
   67MOL   C21932031   6.802   7.386   0.893  0.2102 -0.8462 -0.1757
   67MOL   C22032032   6.928   7.301   0.896 -0.2379 -0.5973  0.6311
   67MOL   C22132033   7.034   7.314   0.782  0.2688  0.7659 -0.3329
   67MOL   C22232034   7.159   7.233   0.811  0.1996  0.7172  0.1763
   67MOL   O22332035   7.133   7.090   0.784  0.0363  0.0453  0.1120
   67MOL   C22432036   7.241   7.017   0.800  0.5664  1.0897 -0.3203
   67MOL   O22532037   7.354   7.059   0.835  0.1275  0.0621  0.2878
   67MOL   C22632038   7.211   6.873   0.759  0.6577  0.3445 -0.2116
   67MOL   C22732039   7.276   6.845   0.616  0.4860  0.5889  0.4676
   67MOL   C22832040   7.247   6.698   0.584  0.2001 -0.4440  0.0380
   67MOL   O22932041   7.323   6.604   0.629 -0.4015  0.1558 -0.5839
   67MOL   H23032042   6.833   7.489   0.910  0.7843 -1.1807  0.8355
   67MOL   H23132043   6.731   7.355   0.969 -1.5007 -0.1191 -1.4386
   67MOL   H23232044   6.896   7.197   0.895 -2.3258  0.0241 -0.2721
   67MOL   H23332045   6.985   7.326   0.986  4.4913  2.1630 -2.8515
   67MOL   H23432046   7.065   7.419   0.789  1.3380  0.7171 -3.3796
   67MOL   H23532047   6.996   7.303   0.680 -2.1338 -1.1928  0.7393
   67MOL   H23632048   7.243   7.270   0.753  0.7157  0.3561  0.6941
   67MOL   H23732049   7.193   7.253   0.912 -1.8106  2.1171  0.6014
   67MOL   H23832050   7.103   6.860   0.755  0.6800 -0.3473  1.3783
   67MOL   H23932051   7.265   6.813   0.832  1.9049 -0.3020 -1.6189
   67MOL   H24032052   7.233   6.906   0.537 -0.9180 -2.9388 -1.5786
   67MOL   H24132053   7.384   6.863   0.625  0.8894 -0.2375 -2.2944
   67MOL   O24232054   7.143   6.685   0.502  0.0872 -0.1141 -0.1877
   67MOL   C24332055   7.113   6.552   0.457 -0.4998  0.0442 -0.4603
   67MOL   C24432056   6.987   6.508   0.537  0.0232  0.4008 -0.2070
   67MOL   C24532057   7.006   6.501   0.685  0.1884  0.3536  0.5448
   67MOL   C24632058   6.906   6.419   0.776  0.2515 -0.6055 -0.3817
   67MOL   O24732059   6.778   6.478   0.790  0.2719  0.1769 -0.2045
   67MOL   C24832060   6.679   6.397   0.827 -0.2291 -0.0416 -0.5940
   67MOL   O24932061   6.688   6.275   0.842  0.2736 -0.3907 -0.1798
   67MOL   C25032062   6.548   6.469   0.846 -0.0905  0.9237 -0.1203
   67MOL   C25132063   6.424   6.379   0.838 -0.8669  0.5008 -0.1558
   67MOL   C25232064   6.329   6.417   0.723 -0.3796 -0.1104  0.6872
   67MOL   O25332065   6.349   6.498   0.637  0.0979  0.1962 -0.0883
   67MOL   H25432066   7.096   6.569   0.351  1.9864  2.3581 -0.5297
   67MOL   H25532067   7.189   6.476   0.477 -1.6735 -1.5730 -2.0195
   67MOL   H25632068   6.971   6.410   0.492 -2.3290  0.6974 -0.1134
   67MOL   H25732069   6.904   6.573   0.508  0.6597  1.0819 -0.5096
   67MOL   H25832070   7.011   6.600   0.731  2.2828  0.6154 -0.1675
   67MOL   H25932071   7.103   6.459   0.713 -0.5519 -0.8575  1.3408
   67MOL   H26032072   6.913   6.319   0.733  2.6877 -1.4119  1.7725
   67MOL   H26132073   6.957   6.401   0.870  0.8530  0.0016 -0.5813
   67MOL   H26232074   6.531   6.556   0.783  0.1416  0.3675 -0.9550
   67MOL   H26332075   6.559   6.505   0.948 -1.8603  0.8466  0.0998
   67MOL   H26432076   6.447   6.275   0.817 -0.8318  0.4947 -0.0886
   67MOL   H26532077   6.374   6.400   0.933  1.9673  0.6091  1.3410
   67MOL   O26632078   6.222   6.334   0.725  0.0047 -0.4599 -0.3516
   67MOL   C26732079   6.122   6.366   0.638 -0.7075 -0.5406 -0.2734
   67MOL   C26832080   6.017   6.266   0.672 -0.3691  0.6626 -0.0210
   67MOL   C26932081   5.881   6.277   0.607  0.1300 -0.0711  0.1067
   67MOL   C27032082   5.774   6.188   0.662 -0.0962  0.2755 -0.3523
   67MOL   O27132083   5.817   6.051   0.647 -0.2586 -0.1627 -0.4285
   67MOL   C27232084   5.750   5.961   0.564  0.4850 -0.1130 -0.6984
   67MOL   O27332085   5.644   5.976   0.505  0.3128 -0.0643  0.1523
   67MOL   C27432086   5.820   5.827   0.563  0.0876 -1.1069 -0.0030
   67MOL   C27532087   5.717   5.719   0.621  0.5290  0.1850 -0.3393
   67MOL   C27632088   5.646   5.636   0.510 -0.3200 -0.3761  0.1657
   67MOL   O27732089   5.690   5.627   0.397  0.0320 -0.1330  0.2835
   67MOL   H27832090   6.081   6.466   0.621  2.7125  1.1632  1.0667
   67MOL   H27932091   6.161   6.344   0.538  2.2778 -2.1442  1.1917
   67MOL   H28032092   6.008   6.289   0.778 -0.9023  2.8852 -0.5185
   67MOL   H28132093   6.054   6.165   0.653 -1.4746  0.0959  0.7649
   67MOL   H28232094   5.879   6.280   0.498 -1.6661  1.2869  0.1605
   67MOL   H28332095   5.845   6.375   0.639  0.1165 -1.1701  3.7413
   67MOL   H28432096   5.775   6.202   0.770  2.3314  2.8690 -0.6333
   67MOL   H28532097   5.676   6.211   0.620  0.0274  0.8187 -0.3537
   67MOL   H28632098   5.907   5.850   0.624  0.3645  2.4238 -1.6228
   67MOL   H28732099   5.853   5.798   0.463 -0.7649  1.6822 -1.1520
   67MOL   H28832100   5.772   5.651   0.687  1.8102  2.1329  0.6454
   67MOL   H28932101   5.644   5.768   0.685  0.9195 -0.3174  0.4992
   67MOL   O29032102   5.535   5.584   0.551  0.2300  0.3656 -0.0580
   67MOL   C29132103   5.453   5.515   0.462  0.4434  0.8366  0.0157
   67MOL   C29232104   5.353   5.417   0.531 -0.1227  0.3965  0.5740
   67MOL   C29332105   5.277   5.488   0.641 -0.0694 -0.0136  0.0790
   67MOL   C29432106   5.164   5.405   0.697  0.1093  0.1067 -0.2488
   67MOL   O29532107   5.224   5.295   0.753  0.7303  0.3796 -0.4567
   67MOL   C29632108   5.156   5.169   0.751  0.4548  0.0190  0.2514
   67MOL   O29732109   5.055   5.142   0.687 -0.2752 -0.4283 -0.4862
   67MOL   C29832110   5.223   5.061   0.840  0.1747 -0.4429  0.1846
   67MOL   C29932111   5.183   4.918   0.804  0.1498  0.2059 -0.3680
   67MOL   C30032112   5.256   4.864   0.677  0.5768  0.1509 -0.4271
   67MOL   O30132113   5.378   4.839   0.676 -0.3588 -0.3480  0.4960
   67MOL   H30232114   5.388   5.589   0.417 -0.3312 -1.3036 -2.4802
   67MOL   H30332115   5.500   5.460   0.381  0.0358 -0.6580  0.7758
   67MOL   H30432116   5.407   5.332   0.571 -2.1815 -0.8244  0.8477
   67MOL   H30532117   5.290   5.372   0.454  1.0292  1.0882 -0.7848
   67MOL   H30632118   5.247   5.589   0.611 -0.0723  0.0847  0.4100
   67MOL   H30732119   5.347   5.510   0.721  0.5698  0.1651 -0.5225
   67MOL   H30832120   5.109   5.447   0.781  0.6878  0.3145  0.0316
   67MOL   H30932121   5.095   5.389   0.615 -0.0919 -0.6882  0.0679
   67MOL   H31032122   5.184   5.088   0.938 -0.8023 -0.6383 -0.1469
   67MOL   H31132123   5.331   5.076   0.842 -0.0410  1.7385 -1.9641
   67MOL   H31232124   5.219   4.856   0.887  0.4702  1.2256  0.2686
   67MOL   H31332125   5.076   4.904   0.791 -0.2783 -0.8013  3.4643
   67MOL   O31432126   5.160   4.844   0.572 -0.1583  0.2792  0.1447
   67MOL   C31532127   5.204   4.794   0.443 -0.6730  0.8539  0.4914
   67MOL   C31632128   5.295   4.894   0.364  0.1165 -0.3759  0.6844
   67MOL   C31732129   5.361   4.830   0.242 -0.4586  0.2243 -0.3574
   67MOL   C31832130   5.441   4.933   0.156  0.8342 -0.9696  0.6927
   67MOL   O31932131   5.364   5.019   0.075  0.1974 -0.8618 -0.4331
   67MOL   C32032132   5.368   5.151   0.090 -0.0402 -0.0099  0.2352
   67MOL   O32132133   5.420   5.218   0.186 -0.0569  0.0461  0.4593
   67MOL   C32232134   5.293   5.218   7.855 -0.4856 -0.2462 -0.3354
   67MOL   C32332135   5.302   5.372   7.855 -0.1407  0.0837 -0.0206
   67MOL   C32432136   5.401   5.424   7.746 -0.4610  0.0250  0.3404
   67MOL   O32532137   5.454   5.350   7.663  0.4038 -0.3712 -0.0756
   67MOL   H32632138   5.256   4.700   0.463 -1.8043  0.1552  0.2004
   67MOL   H32732139   5.121   4.761   0.380  2.0270  0.5958 -3.1378
   67MOL   H32832140   5.376   4.929   0.428  1.4222 -2.1384  0.0356
   67MOL   H32932141   5.245   4.986   0.332  2.5252 -0.5555 -4.0806
   67MOL   H33032142   5.276   4.796   0.183 -0.1794  1.2587 -1.3638
   67MOL   H33132143   5.400   4.729   0.257 -0.3712  0.5339  1.6015
   67MOL   H33232144   5.509   4.986   0.223  1.3973 -1.0599  0.1975
   67MOL   H33332145   5.515   4.883   0.093  1.5817 -0.7813  1.4125
   67MOL   H33432146   5.186   5.201   7.865 -0.4623 -0.4175 -0.3664
   67MOL   H33532147   5.315   5.166   7.761 -1.1764 -1.1168 -0.0286
   67MOL   H33632148   5.207   5.419   7.830  0.1676 -0.3804 -2.1433
   67MOL   H33732149   5.332   5.416   0.075 -1.1038 -3.2361  1.9312
   67MOL   O33832150   5.438   5.557   7.764  0.1126  0.2343  0.0181
   67MOL   C33932151   5.555   5.600   7.699 -0.3953 -0.6807  0.1889
   67MOL   C34032152   5.665   5.607   7.807  0.6950  0.2710  0.5220
   67MOL   C34132153   5.643   5.719   0.034  0.1619  0.9097 -0.6292
   67MOL   C34232154   5.767   5.759   0.117  0.4751 -0.1779 -0.7548
   67MOL   O34332155   5.854   5.815   0.022 -0.2559 -0.9040 -0.2835
   67MOL   C34432156   5.965   5.756   7.851  0.3986 -0.0773 -0.5748
   67MOL   O34532157   6.009   5.656   0.028 -0.1719  0.4171 -0.3968
   67MOL   C34632158   6.031   5.826   7.738 -0.3563 -0.0648 -0.4126
   67MOL   C34732159   5.937   5.862   7.621 -0.3234  1.0868  0.0450
   67MOL   C34832160   6.010   5.910   7.500 -0.6417  0.1955  0.3109
   67MOL   O34932161   6.079   5.840   7.426  0.2943  0.3056  0.1574
   67MOL   H35032162   5.578   5.548   7.606 -0.4771  1.5921 -1.1190
   67MOL   H35132163   5.533   5.702   7.669  0.8668  0.4191  2.8466
   67MOL   H35232164   5.751   5.625   7.742  0.2002  0.5756 -0.0525
   67MOL   H35332165   5.687   5.506   7.842 -3.2285 -1.9633 -2.9931
   67MOL   H35432166   5.561   5.685   0.098  2.3624 -0.4008  1.5778
   67MOL   H35532167   5.608   5.812   7.864  0.4209  1.7633  0.8939
   67MOL   H35632168   5.749   5.837   0.191 -1.7112 -0.4109 -1.0215
   67MOL   H35732169   5.803   5.672   0.172  0.3465 -0.0884 -0.5297
   67MOL   H35832170   6.104   5.756   7.698 -0.5690  0.3483 -1.5580
   67MOL   H35932171   6.092   5.908   7.776  0.9826 -1.1433 -0.2110
   67MOL   H36032172   5.885   5.783   7.567  2.1324 -1.8818  1.8589
   67MOL   H36132173   5.861   5.937   7.645  0.2237  1.5842  0.2062
   67MOL   O36232174   5.986   6.045   7.484 -0.2678 -0.3979  0.5559
   67MOL   C36332175   6.038   6.113   7.371  0.3023 -0.3621  0.8864
   67MOL   C36432176   6.019   6.268   7.394 -0.4366 -0.3010  1.0438
   67MOL   C36532177   6.059   6.340   7.263  0.4370 -0.3831 -0.1157
   67MOL   C36632178   6.022   6.490   7.274 -0.0368 -0.2710 -0.3180
   67MOL   O36732179   6.132   6.549   7.342  0.1208 -1.2613  0.1504
   67MOL   C36832180   6.106   6.629   7.448 -0.6541 -0.6532  0.0129
   67MOL   O36932181   5.994   6.676   7.476  0.2577  0.1798  0.1083
   67MOL   C37032182   6.232   6.646   7.527  0.2536  0.4677 -0.3766
   67MOL   C37132183   6.235   6.567   7.651 -0.2140  0.4122 -0.4457
   67MOL   C37232184   6.189   6.640   7.773  0.0549  0.0747 -0.2709
   67MOL   O37332185   6.268   6.679   7.853 -0.5499 -0.0025  0.0088
   67MOL   H37432186   6.144   6.093   7.352  0.8483  1.8201  1.4943
   67MOL   H37532187   5.983   6.076   7.285  0.0626 -1.2817  1.4297
   67MOL   H37632188   6.072   6.291   7.486  2.1194 -1.9045  0.0225
   67MOL   H37732189   5.917   6.300   7.418 -0.0138  1.5433  0.4038
   67MOL   H37832190   6.000   6.298   7.181  0.4285  1.6262 -1.1588
   67MOL   H37932191   6.166   6.335   7.243  0.4746  0.7052 -0.2149
   67MOL   H38032192   6.029   6.537   7.175  2.2873 -2.6473 -1.3507
   67MOL   H38132193   5.924   6.513   7.315 -0.4717 -1.3923 -0.7096
   67MOL   H38232194   6.236   6.749   7.560 -1.0397  0.2073  0.6644
   67MOL   H38332195   6.320   6.625   7.466 -0.3072  1.1648 -1.4380
   67MOL   H38432196   6.181   6.473   7.647 -0.5713  0.5279  1.0224
   67MOL   H38532197   6.336   6.540   7.683  0.0546  0.3691 -1.3368
   67MOL   O38632198   6.055   6.653   7.781 -0.0459 -0.3162  0.2409
   67MOL   C38732199   5.987   6.736   0.006  0.6745  0.2675 -0.5109
   67MOL   C38832200   5.960   6.873   7.815  0.0046  0.1248  0.1803
   67MOL   C38932201   5.904   6.968   0.047 -0.1480 -0.8672  0.6570
   67MOL   C39032202   5.756   6.961   0.073  0.2308  0.7661 -0.1843
   67MOL   O39132203   5.708   6.832   0.112  0.2246 -0.0672  0.0996
   67MOL   C39232204   5.717   6.793   0.232  0.0762 -0.2607 -0.8073
   67MOL   O39332205   5.733   6.864   0.330 -0.3117  0.0209 -0.8498
   67MOL   C39432206   5.675   6.644   0.247  0.4854 -0.0523  1.0302
   67MOL   C39532207   5.588   6.617   0.373  0.2221 -0.5869 -0.7715
   67MOL   C39632208   5.603   6.468   0.410 -0.5771  0.7230  0.1169
   67MOL   O39732209   5.643   6.429   0.521 -0.2186  0.2055  0.0459
   67MOL   H39832210   5.908   6.677   0.054  2.2137 -1.2080  0.2677
   67MOL   H39932211   6.056   6.764   0.085 -0.7870  0.5714  0.6933
   67MOL   H40032212   5.903   6.855   7.724  0.3269  0.5307 -0.1025
   67MOL   H40132213   6.063   6.905   7.798  0.6602 -1.4812  1.0119
   67MOL   H40232214   5.928   7.072   0.026 -0.2205 -0.5679  2.0423
   67MOL   H40332215   5.958   6.951   0.140  1.2852  2.6562  0.5514
   67MOL   H40432216   5.730   7.035   0.149 -1.8313 -1.1766  1.0604
   67MOL   H40532217   5.696   6.990   7.862 -2.1608 -0.7323  0.9321
   67MOL   H40632218   5.768   6.587   0.252  1.1372  0.8083 -0.9359
   67MOL   H40732219   5.624   6.617   0.155  2.0307  1.2174 -0.2162
   67MOL   H40832220   5.614   6.663   0.468  0.8997 -1.3380 -0.5929
   67MOL   H40932221   5.483   6.644   0.360 -0.1261  0.2927  3.2707
   67MOL   O41032222   5.559   6.382   0.320 -0.6120  0.4387 -0.2260
   67MOL   C41132223   5.562   6.245   0.351 -0.1700 -0.0546  0.1785
   67MOL   C41232224   5.480   6.179   0.232  0.1422 -0.1341  0.3963
   67MOL   C41332225   5.567   6.146   0.109  0.1257 -0.5857  0.2078
   67MOL   C41432226   5.496   6.088   7.865  0.2882 -0.4018  0.4162
   67MOL   O41532227   5.404   6.186   7.813  1.0084 -0.3322  0.7771
   67MOL   C41632228   5.337   6.161   7.700  0.3304 -0.0859 -0.5906
   67MOL   O41732229   5.330   6.052   7.648  0.1925  0.7692 -0.1112
   67MOL   C41832230   5.262   6.285   7.645 -0.0387 -0.0043 -0.3263
   67MOL   C41932231   5.313   6.350   7.516 -0.6312  0.0436 -0.3775
   67MOL   C42032232   5.272   6.498   7.505 -0.7517 -0.5032  0.2908
   67MOL   O42132233   5.363   6.584   7.501 -0.2298 -0.2827  0.4126
   67MOL   H42232234   5.665   6.208   0.356  0.9080  2.9405  1.4030
   67MOL   H42332235   5.521   6.229   0.451 -1.2447  1.0822 -0.0771
   67MOL   H42432236   5.395   6.238   0.199  0.9334 -0.3812 -2.2067
   67MOL   H42532237   5.440   6.083   0.266 -1.7063  0.3431 -0.3612
   67MOL   H42632238   5.643   6.072   0.135  1.9725  0.3569 -2.3970
   67MOL   H42732239   5.629   6.233   0.090 -0.9579  0.0866 -0.2624
   67MOL   H42832240   5.559   6.058   7.781  1.4879  1.7206  0.5066
   67MOL   H42932241   5.444   5.998   0.022 -1.2292 -1.6744 -5.1100
   67MOL   H43032242   5.263   6.366   7.719 -2.1327 -0.5860  0.3942
   67MOL   H43132243   5.156   6.266   7.628 -0.1755  0.4409  0.0044
   67MOL   H43232244   5.421   6.342   7.529 -0.4136 -0.1873 -2.3284
   67MOL   H43332245   5.289   6.293   7.427  2.2477 -0.9608 -0.5694
   67MOL   O43432246   5.144   6.512   7.510 -0.1838 -0.2695 -0.3491
   67MOL   C43532247   5.083   6.644   7.525  0.4294 -0.2751  1.2998
   67MOL   C43632248   4.933   6.654   7.487  0.0391 -0.0679 -0.2093
   67MOL   C43732249   4.831   6.582   7.579 -0.5936  0.2391 -0.4030
   67MOL   C43832250   4.691   6.576   7.522  0.1163  0.9591 -0.2645
   67MOL   O43932251   4.652   6.707   7.501  0.5383 -0.4652 -0.1246
   67MOL   C44032252   4.570   6.761   7.589  0.4384  0.0340  0.1221
   67MOL   O44132253   4.523   6.705   7.689  0.2819  0.0723 -0.0215
   67MOL   C44232254   4.517   6.892   7.549  0.3232  0.6079  0.0316
   67MOL   C44332255   4.447   6.960   7.662  0.1520 -0.0225  0.6084
   67MOL   C44432256   4.326   7.043   7.620  0.9141  0.4427 -0.1732
   67MOL   O44532257   4.249   7.007   7.530 -0.0543  0.0336  0.2786
   67MOL   H44632258   5.107   6.683   7.624  1.6150  0.6342  0.6688
   67MOL   H44732259   5.132   6.712   7.455  0.1008 -0.3997  0.9447
   67MOL   H44832260   4.917   6.625   7.383 -0.7417 -0.4873  0.0228
   67MOL   H44932261   4.918   6.760   7.471  0.8590  0.6426  3.2841
   67MOL   H45032262   4.833   6.630   7.677  0.3599  1.3346 -0.9369
   67MOL   H45132263   4.865   6.479   7.593  0.1352  0.5769  0.4211
   67MOL   H45232264   4.682   6.517   7.431  1.7957  0.7701 -0.3106
   67MOL   H45332265   4.627   6.516   7.587  1.1101  0.8125  0.5912
   67MOL   H45432266   4.447   6.875   7.468 -0.8628 -0.0259  1.1738
   67MOL   H45532267   4.601   6.956   7.521  0.1134  0.5277 -0.7758
   67MOL   H45632268   4.424   6.899   7.750  1.1583  1.0189  1.6102
   67MOL   H45732269   4.522   7.033   7.693  0.7965 -0.9677  1.3131
   67MOL   O45832270   4.324   7.164   7.679  0.5455  0.3566  0.4994
   67MOL   C45932271   4.237   7.264   7.644  0.6726  0.2691 -0.2587
   67MOL   C46032272   4.164   7.322   7.762 -0.2940  0.7345 -0.2482
   67MOL   C46132273   4.080   7.219   7.845 -0.2674 -0.6596  0.1842
   67MOL   C46232274   4.068   7.276   0.116  0.8368  0.0129 -0.6353
   67MOL   O46332275   4.002   7.179   0.187  0.4852  0.1281 -0.7757
   67MOL   C46432276   4.078   7.095   0.261  0.3592  0.3205 -0.3382
   67MOL   O46532277   4.197   7.093   0.273  0.0153  0.0331 -0.1296
   67MOL   C46632278   3.997   6.984   0.327 -0.6395 -0.3989  0.7146
   67MOL   C46732279   3.963   6.877   0.220  0.0183 -0.0740  0.9252
   67MOL   C46832280   3.810   6.856   0.210  0.0294  0.3708 -0.4172
   67MOL   O46932281   3.750   6.815   0.308 -0.2751  0.4486  0.0585
   67MOL   H47032282   4.292   7.340   7.587  2.4406 -0.5657  0.2856
   67MOL   H47132283   4.161   7.245   7.568  0.3342  2.2714 -0.4425
   67MOL   H47232284   4.094   7.404   7.739 -1.4974 -0.2355 -0.0861
   67MOL   H47332285   4.241   7.367   7.825 -1.8098  0.1424  2.0941
   67MOL   H47432286   4.144   7.131   7.848  0.7264  0.0096 -0.8249
   67MOL   H47532287   3.982   7.192   7.806 -0.1513 -1.0197  0.1431
   67MOL   H47632288   4.164   7.301   0.162 -0.0418 -0.4836  1.5653
   67MOL   H47732289   4.009   7.367   0.123  1.4655  0.5129 -1.7526
   67MOL   H47832290   3.915   7.036   0.377 -1.2578 -0.0389 -0.6582
   67MOL   H47932291   4.056   6.931   0.402  0.5854 -1.3076 -0.8641
   67MOL   H48032292   3.984   6.922   0.123 -0.1755  0.5571  1.1737
   67MOL   H48132293   4.010   6.779   0.231 -1.3276 -1.1224 -1.9077
   67MOL   H48232294   3.763   6.860   0.112 -1.1981  0.2036  0.1506
   68MOL     O132295   7.262   3.233   4.704 -0.0111  0.3961 -0.4783
   68MOL     C232296   7.211   3.149   4.599  0.2480 -0.6922 -0.0543
   68MOL     C332297   7.190   3.013   4.659 -0.4628  0.3943  0.2867
   68MOL     C432298   7.161   2.902   4.569 -0.2450  0.3705 -0.1768
   68MOL     C532299   7.123   2.779   4.648 -0.3804  0.2397  0.5941
   68MOL     O632300   6.980   2.779   4.667  0.2748  0.0586  0.1895
   68MOL     C732301   6.920   2.666   4.708 -0.3977 -0.2733 -0.2890
   68MOL     O832302   6.979   2.560   4.724 -0.3501 -0.0476  0.5198
   68MOL     C932303   6.768   2.681   4.719 -0.6232  0.1887 -0.4458
   68MOL    C1032304   6.716   2.756   4.839 -0.3345 -0.3885 -0.4834
   68MOL    C1132305   6.660   2.663   4.953 -0.2284  0.0359 -0.0314
   68MOL    O1232306   6.631   2.546   4.937  0.3129  0.2092 -0.1377
   68MOL    H1332307   7.117   3.194   4.567  0.6858  0.7614  0.6753
   68MOL    H1432308   7.289   3.160   4.524 -0.4960  0.0476 -0.7427
   68MOL    H1532309   7.119   3.026   4.741 -1.0222 -1.7711  0.1749
   68MOL    H1632310   7.276   2.983   4.719 -0.5885  1.5147  1.0557
   68MOL    H1732311   7.257   2.881   4.521 -0.0313  0.9093  0.0030
   68MOL    H1832312   7.082   2.915   4.495 -0.5291 -0.3905 -0.0119
   68MOL    H1932313   7.152   2.686   4.599  2.8329  0.8733  1.2000
   68MOL    H2032314   7.171   2.789   4.745  0.0640 -0.5068  0.4546
   68MOL    H2132315   6.720   2.583   4.721 -2.7695  1.1895 -1.4355
   68MOL    H2232316   6.726   2.730   4.631 -2.3193  0.9159  0.7441
   68MOL    H2332317   6.797   2.821   4.872 -1.0340 -1.3435  3.3830
   68MOL    H2432318   6.637   2.827   4.814 -1.5356 -0.7767  1.9952
   68MOL    H2532319   7.275   3.320   4.668 -0.4582  0.5636 -0.2332
   68MOL    O2632320   6.632   2.729   5.064 -0.8631 -0.1960 -0.3405
   68MOL    C2732321   6.599   2.664   5.181 -0.0583  0.1339  0.5959
   68MOL    C2832322   6.453   2.613   5.185 -0.1253 -0.0044  0.2335
   68MOL    C2932323   6.360   2.733   5.174  0.0698 -0.3590 -0.4726
   68MOL    C3032324   6.382   2.852   5.271 -0.0935  0.3843 -0.1141
   68MOL    O3132325   6.368   2.818   5.409  0.3482  0.0660 -0.4407
   68MOL    C3232326   6.250   2.798   5.455 -0.0796  0.0872 -0.1486
   68MOL    O3332327   6.149   2.800   5.387 -0.1240 -0.5178  0.2446
   68MOL    C3432328   6.243   2.764   5.607 -0.4603 -0.5544 -0.0968
   68MOL    C3532329   6.301   2.869   5.709  0.4918 -0.4107 -0.0560
   68MOL    C3632330   6.195   2.977   5.740  0.3069  0.1592 -0.1434
   68MOL    O3732331   6.202   3.089   5.691 -0.0212 -0.5555 -0.3824
   68MOL    H3832332   6.669   2.581   5.196  1.0544  0.3723 -2.9064
   68MOL    H3932333   6.635   2.723   5.266  0.3987  0.3264  0.2717
   68MOL    H4032334   6.429   2.557   5.276 -0.0964 -0.3454  0.0311
   68MOL    H4132335   6.433   2.540   5.107  2.6072  1.2383 -1.7069
   68MOL    H4232336   6.264   2.682   5.178  0.4886 -1.1800 -0.6417
   68MOL    H4332337   6.361   2.760   5.069  1.3464  0.8749 -0.1572
   68MOL    H4432338   6.484   2.888   5.259 -0.6106  2.0914  0.4983
   68MOL    H4532339   6.304   2.926   5.253 -1.2634  0.0942  3.4612
   68MOL    H4632340   6.302   2.673   5.618  1.5254  0.6399 -0.7317
   68MOL    H4732341   6.136   2.746   5.616 -0.5420  0.7322  1.7440
   68MOL    H4832342   6.315   2.829   5.810  3.0931  1.6604  0.4443
   68MOL    H4932343   6.394   2.917   5.683  0.5297 -0.4329  0.0380
   68MOL    O5032344   6.103   2.929   5.831  0.4410 -0.0286  0.2244
   68MOL    C5132345   6.010   3.018   5.890  0.1207  0.3283 -0.5024
   68MOL    C5232346   5.905   3.076   5.790 -0.4698  0.5871  0.4021
   68MOL    C5332347   5.841   2.960   5.713 -0.0538 -0.2894 -0.6904
   68MOL    C5432348   5.710   2.996   5.647  0.1737  0.1149 -0.3827
   68MOL    O5532349   5.645   2.884   5.591  0.3712  0.1220  0.2493
   68MOL    C5632350   5.562   2.909   5.490  0.3522 -0.1928 -0.8073
   68MOL    O5732351   5.537   3.017   5.435 -0.0489 -0.1012 -0.0095
   68MOL    C5832352   5.503   2.779   5.437  0.5175 -0.1093  0.0558
   68MOL    C5932353   5.481   2.775   5.284  0.0985 -0.2735  0.1565
   68MOL    C6032354   5.600   2.723   5.198 -0.1648 -0.5874 -0.5043
   68MOL    O6132355   5.576   2.632   5.117 -0.8318  0.3043 -0.0854
   68MOL    H6232356   5.961   2.965   5.972  0.4360  1.9896  0.7869
   68MOL    H6332357   6.070   3.098   5.933 -0.0305 -1.3853  3.0856
   68MOL    H6432358   5.958   3.146   5.726  0.7160 -0.3562  0.3570
   68MOL    H6532359   5.826   3.126   5.848 -1.2882 -1.0063  0.6880
   68MOL    H6632360   5.818   2.881   5.784  1.9319 -0.3840 -0.1053
   68MOL    H6732361   5.906   2.917   5.636  0.8396 -1.9795  0.9661
   68MOL    H6832362   5.649   3.043   5.724  1.8438 -0.3922  1.2940
   68MOL    H6932363   5.731   3.068   5.568  0.3258 -0.1616 -0.5946
   68MOL    H7032364   5.408   2.767   5.491  0.3188 -0.3044 -0.3363
   68MOL    H7132365   5.568   2.700   5.475  1.6320  1.2142  0.9509
   68MOL    H7232366   5.397   2.711   5.256 -0.5351  1.1363 -1.1864
   68MOL    H7332367   5.456   2.880   5.270 -1.5327 -0.4568  1.5276
   68MOL    O7432368   5.720   2.778   5.224  0.5215 -0.0616 -0.1481
   68MOL    C7532369   5.831   2.736   5.145  0.1386 -0.5167 -0.7063
   68MOL    C7632370   5.918   2.855   5.097  0.3700 -0.4081 -0.0243
   68MOL    C7732371   6.023   2.784   4.996 -0.3674  0.4643 -0.5395
   68MOL    C7832372   6.111   2.895   4.927  0.1450  1.0607 -0.0129
   68MOL    O7932373   6.205   2.838   4.830 -0.1163  0.4788  0.8625
   68MOL    C8032374   6.218   2.907   4.717  0.3037 -0.2861  0.5196
   68MOL    O8132375   6.179   3.022   4.695 -0.8829 -0.6312  0.2438
   68MOL    C8232376   6.294   2.827   4.611 -0.2860  0.1552 -0.3161
   68MOL    C8332377   6.432   2.891   4.570 -0.0551 -0.1994  0.5815
   68MOL    C8432378   6.470   2.886   4.424  0.0008 -0.7833 -0.4536
   68MOL    O8532379   6.587   2.886   4.385 -0.3977 -0.0282 -0.9447
   68MOL    H8632380   5.901   2.681   5.208 -0.4315 -1.4021 -0.8436
   68MOL    H8732381   5.792   2.686   5.056  0.6943 -1.7402 -0.2638
   68MOL    H8832382   5.966   2.906   5.181 -0.4096  1.5112 -0.7127
   68MOL    H8932383   5.858   2.935   5.054 -0.4104  0.2303  2.1525
   68MOL    H9032384   5.965   2.727   4.923  1.9522 -0.9221 -1.3379
   68MOL    H9132385   6.089   2.719   5.053 -1.1614  0.2882  0.1999
   68MOL    H9232386   6.047   2.970   4.882 -2.2154 -1.6170 -1.2913
   68MOL    H9332387   6.169   2.951   5.001 -0.0795  0.2158  0.8165
   68MOL    H9432388   6.234   2.802   4.523 -2.2364 -1.6265  1.4639
   68MOL    H9532389   6.310   2.725   4.645 -0.1472 -0.4221 -2.0776
   68MOL    H9632390   6.433   3.000   4.581 -1.6299  0.3335 -3.4403
   68MOL    H9732391   6.510   2.842   4.628  1.2130  0.0189 -0.8918
   68MOL    O9832392   6.369   2.884   4.335 -0.0071  0.0379  0.3132
   68MOL    C9932393   6.404   2.888   4.201 -0.4549 -0.3138 -0.1810
   68MOL   C10032394   6.396   2.749   4.131  0.1024  0.2811 -0.0064
   68MOL   C10132395   6.268   2.680   4.167  0.5922 -0.0340 -0.3756
   68MOL   C10232396   6.263   2.538   4.118 -0.1172 -0.3830 -0.6343
   68MOL   O10332397   6.273   2.537   3.975 -0.0897  0.6620  0.2571
   68MOL   C10432398   6.297   2.420   3.916 -0.0306 -0.2101  0.2928
   68MOL   O10532399   6.297   2.305   3.965  0.1206  0.0785 -0.4605
   68MOL   C10632400   6.321   2.438   3.765 -0.0499  0.3732 -0.0270
   68MOL   C10732401   6.189   2.469   3.690  0.1773 -0.0921 -1.2568
   68MOL   C10832402   6.163   2.370   3.576  0.3756 -0.7688 -0.3233
   68MOL   O10932403   6.094   2.262   3.596  0.0782  0.2033  0.0927
   68MOL   H11032404   6.326   2.951   4.159 -0.2115  0.9141  1.1543
   68MOL   H11132405   6.499   2.938   4.179 -0.2545 -1.1417 -1.2142
   68MOL   H11232406   6.476   2.679   4.152 -0.3352 -0.7052 -1.5264
   68MOL   H11332407   6.385   2.765   4.023 -1.2138 -1.7724 -0.1958
   68MOL   H11432408   6.184   2.736   4.125 -0.3446 -2.1441 -1.3633
   68MOL   H11532409   6.255   2.668   4.275 -1.0384  1.1628 -0.4134
   68MOL   H11632410   6.347   2.477   4.150  1.2901  1.2790 -1.0970
   68MOL   H11732411   6.161   2.504   4.136 -0.3475  1.3586  1.4983
   68MOL   H11832412   6.366   2.342   3.739  0.8340  0.5251  0.9280
   68MOL   H11932413   6.395   2.515   3.745  1.6727 -1.0086  0.8849
   68MOL   H12032414   6.102   2.464   3.756  1.1304 -1.8594 -0.0681
   68MOL   H12132415   6.202   2.567   3.645  0.1526  1.2984  1.6474
   68MOL   O12232416   6.220   2.402   3.456 -0.4192  0.1004  0.2268
   68MOL   C12332417   6.192   2.323   3.341  0.0693 -0.1061 -0.2125
   68MOL   C12432418   6.142   2.414   3.223 -0.0930  0.0521  0.2396
   68MOL   C12532419   6.243   2.535   3.204  0.6008 -0.2298 -0.5504
   68MOL   C12632420   6.208   2.626   3.090 -0.4960  0.0433 -0.2658
   68MOL   O12732421   6.076   2.679   3.102 -0.3488  0.1812  0.1461
   68MOL   C12832422   6.038   2.769   3.014 -0.4465  0.4378  0.4075
   68MOL   O12932423   6.115   2.815   2.925  0.5026  0.0578  0.0912
   68MOL   C13032424   5.891   2.799   3.035 -0.4797  0.0847  0.1420
   68MOL   C13132425   5.815   2.826   2.904 -0.5841 -0.7363  0.2987
   68MOL   C13232426   5.669   2.783   2.910 -0.6253 -0.4217 -0.2550
   68MOL   O13332427   5.629   2.690   2.842  0.2283  0.2259  0.2365
   68MOL   H13432428   6.293   2.283   3.341  0.6408  1.2935  0.0372
   68MOL   H13532429   6.119   2.244   3.357 -2.5366  2.2802  0.0573
   68MOL   H13632430   6.046   2.452   3.259  0.1083  0.3150  0.5050
   68MOL   H13732431   6.131   2.363   3.128  0.8841 -4.1698  2.2682
   68MOL   H13832432   6.344   2.495   3.193  0.8400  0.2547 -0.0906
   68MOL   H13932433   6.248   2.594   3.295  1.5350 -0.2793 -0.5628
   68MOL   H14032434   6.272   2.715   3.088 -0.6767  0.1815  0.1622
   68MOL   H14132435   6.213   2.587   2.988 -4.8494 -0.0618 -0.5522
   68MOL   H14232436   5.882   2.873   3.115  3.7595  0.4551  0.4403
   68MOL   H14332437   5.854   2.707   3.078  1.6495 -0.0723  1.7184
   68MOL   H14432438   5.818   2.934   2.891 -0.2535 -0.7648  0.1436
   68MOL   H14532439   5.857   2.766   2.823  0.4558  0.7179 -0.2586
   68MOL   O14632440   5.599   2.854   2.999 -0.0494  0.6962 -0.1126
   68MOL   C14732441   5.456   2.836   2.994  0.4310  0.2708  0.1619
   68MOL   C14832442   5.414   2.719   3.089  0.1440 -0.3735 -0.6897
   68MOL   C14932443   5.262   2.694   3.099 -0.0856 -0.4457 -0.7365
   68MOL   C15032444   5.223   2.611   3.225  0.3440  0.1024  0.4469
   68MOL   O15132445   5.283   2.486   3.218 -0.4450  0.1872 -0.3673
   68MOL   C15232446   5.335   2.432   3.327  0.2954 -0.2492 -0.2280
   68MOL   O15332447   5.351   2.496   3.435 -0.6347 -0.3605 -0.3491
   68MOL   C15432448   5.385   2.290   3.310 -0.0268  0.0742  0.2095
   68MOL   C15532449   5.474   2.287   3.183  0.0041  0.1093  0.5797
   68MOL   C15632450   5.623   2.289   3.217 -0.3774  0.5560 -0.0181
   68MOL   O15732451   5.670   2.273   3.331 -0.1315  0.3132 -0.4813
   68MOL   H15832452   5.397   2.922   3.025 -1.4204 -0.1504 -2.0394
   68MOL   H15932453   5.415   2.814   2.895  1.2238 -0.7295  0.0453
   68MOL   H16032454   5.456   2.750   3.185  2.8264  0.1015 -1.9706
   68MOL   H16132455   5.459   2.625   3.058 -0.5475 -0.6995 -0.7127
   68MOL   H16232456   5.235   2.638   3.009 -1.0735  0.1933 -0.8535
   68MOL   H16332457   5.203   2.786   3.091 -1.4871 -1.3046 -0.4852
   68MOL   H16432458   5.242   2.662   3.320 -2.0681  1.6131  0.1932
   68MOL   H16532459   5.114   2.601   3.230  0.3651 -0.7969 -0.6088
   68MOL   H16632460   5.301   2.222   3.294 -0.5321  1.0001 -1.1789
   68MOL   H16732461   5.432   2.256   3.402  1.9998  1.0148 -0.4330
   68MOL   H16832462   5.442   2.192   3.139 -1.1760  0.1853  1.2405
   68MOL   H16932463   5.458   2.374   3.120 -0.2113  1.7805  2.8727
   68MOL   O17032464   5.690   2.295   3.098  0.4967 -0.0011  0.1410
   68MOL   C17132465   5.830   2.267   3.098  0.3503  0.0145  0.1500
   68MOL   C17232466   5.885   2.304   2.953  0.1016 -0.8799 -0.0583
   68MOL   C17332467   5.892   2.457   2.930 -0.0367 -0.2500  0.2436
   68MOL   C17432468   5.967   2.481   2.805 -0.1365  0.0455  0.5030
   68MOL   O17532469   5.877   2.473   2.692 -0.0588  0.1045  0.2456
   68MOL   C17632470   5.896   2.392   2.595  0.0690  0.1276 -0.0270
   68MOL   O17732471   5.983   2.309   2.588  0.9279 -0.0109  0.3213
   68MOL   C17832472   5.788   2.407   2.488 -0.1965 -0.6478 -0.2208
   68MOL   C17932473   5.747   2.550   2.462  0.0743 -0.9675  0.5324
   68MOL   C18032474   5.702   2.577   2.323 -0.0967 -0.0733  0.2099
   68MOL   O18132475   5.586   2.622   2.300  0.2044  0.2065 -0.5009
   68MOL   H18232476   5.886   2.342   3.153 -0.9146  0.8372  0.3309
   68MOL   H18332477   5.859   2.169   3.136 -0.1946  0.3368  1.3881
   68MOL   H18432478   5.822   2.251   2.881 -0.5204 -2.6549  1.7551
   68MOL   H18532479   5.986   2.263   2.947 -0.2955 -2.0813  1.3626
   68MOL   H18632480   5.951   2.500   3.011  2.5378 -1.5216 -0.9189
   68MOL   H18732481   5.799   2.515   2.929  0.3933  0.4947  1.6277
   68MOL   H18832482   6.019   2.577   2.809  2.5300 -1.3388  0.0785
   68MOL   H18932483   6.045   2.408   2.786 -0.5083 -0.0375 -0.8058
   68MOL   H19032484   5.699   2.348   2.509  0.8222 -1.4498  2.0245
   68MOL   H19132485   5.832   2.357   2.401 -0.1810 -1.4740  0.2566
   68MOL   H19232486   5.666   2.575   2.531 -0.2674 -1.4618  0.3063
   68MOL   H19332487   5.829   2.621   2.477  0.0190 -0.7229 -0.2840
   68MOL   O19432488   5.802   2.557   2.233 -0.2732 -0.4460 -0.4956
   68MOL   C19532489   5.777   2.585   2.098 -0.5242  0.3704 -0.0927
   68MOL   C19632490   5.737   2.729   2.060 -0.0064 -0.1608 -0.5968
   68MOL   C19732491   5.860   2.823   2.083  0.5657  0.6281  0.5652
   68MOL   C19832492   5.825   2.971   2.088  0.5496  0.4533  0.1527
   68MOL   O19932493   5.754   3.010   2.207 -0.9694  0.1144  0.0289
   68MOL   C20032494   5.817   3.031   2.321  0.0956 -0.1241  0.3344
   68MOL   O20132495   5.940   3.046   2.339 -0.0779 -0.0425 -0.2126
   68MOL   C20232496   5.725   3.038   2.447  0.1615  0.6738  0.1433
   68MOL   C20332497   5.662   2.903   2.475  0.6758  0.3293 -0.1076
   68MOL   C20432498   5.507   2.906   2.444 -0.1758  0.5786 -0.8385
   68MOL   O20532499   5.432   2.863   2.530  0.3877 -0.1672 -0.2056
   68MOL   H20632500   5.878   2.575   2.059 -0.7833 -1.1002 -0.4316
   68MOL   H20732501   5.713   2.511   2.050  0.4586  0.5770 -1.7693
   68MOL   H20832502   5.659   2.769   2.125 -0.2222 -0.0658 -0.9116
   68MOL   H20932503   5.688   2.729   1.962  0.5693  2.1558 -0.9220
   68MOL   H21032504   5.939   2.805   2.011 -0.8037  0.0500 -0.8377
   68MOL   H21132505   5.914   2.805   2.176 -0.5519  0.6170  1.2271
   68MOL   H21232506   5.918   3.022   2.067  2.1001 -2.2605  0.1217
   68MOL   H21332507   5.771   2.985   1.995  3.0632  2.9952 -1.0021
   68MOL   H21432508   5.649   3.115   2.437 -0.6924 -0.2745 -0.8347
   68MOL   H21532509   5.783   3.053   2.538  0.7104 -0.6210  0.0254
   68MOL   H21632510   5.712   2.822   2.422  0.5281  1.3379 -1.8321
   68MOL   H21732511   5.665   2.875   2.580  0.0168  1.1348  0.1317
   68MOL   O21832512   5.465   2.970   2.337  0.2259  0.1223 -0.0022
   68MOL   C21932513   5.325   3.003   2.312 -0.9557 -0.2907  0.1052
   68MOL   C22032514   5.260   2.890   2.239  0.7118  0.0445  0.3324
   68MOL   C22132515   5.326   2.865   2.103  0.6168 -0.2072  0.5072
   68MOL   C22232516   5.261   2.745   2.023  0.4817 -0.0498 -0.0361
   68MOL   O22332517   5.294   2.623   2.081 -0.1459 -0.0348  0.4496
   68MOL   C22432518   5.384   2.551   2.011  0.4165  0.2157  0.4560
   68MOL   O22532519   5.431   2.579   1.902 -0.4160 -0.1650  0.5409
   68MOL   C22632520   5.425   2.423   2.080 -0.4014 -0.5006 -0.2147
   68MOL   C22732521   5.432   2.301   1.978  0.0569  0.1311  0.1519
   68MOL   C22832522   5.356   2.184   2.027 -0.9481 -0.5087  0.1749
   68MOL   O22932523   5.250   2.194   2.086 -0.1849  0.3910  0.3479
   68MOL   H23032524   5.266   3.014   2.403 -2.0856  0.2372 -0.6832
   68MOL   H23132525   5.311   3.092   2.251  0.5330 -0.2459 -0.1925
   68MOL   H23232526   5.156   2.918   2.224  0.1521 -1.1733  1.8154
   68MOL   H23332527   5.258   2.802   2.304 -2.3644 -0.4774 -0.4046
   68MOL   H23432528   5.429   2.831   2.102 -0.2053 -2.8486 -0.7076
   68MOL   H23532529   5.305   2.954   2.044  0.5778 -0.2988  0.3817
   68MOL   H23632530   5.153   2.748   2.006  0.1630  0.4623  1.8945
   68MOL   H23732531   5.298   2.766   1.923 -0.3177 -0.5028 -0.4318
   68MOL   H23832532   5.350   2.390   2.152 -1.4012 -0.8280 -1.3804
   68MOL   H23932533   5.515   2.435   2.139 -1.1740 -0.5272  0.9862
   68MOL   H24032534   5.373   2.329   1.891 -0.2806  1.3897  0.7675
   68MOL   H24132535   5.534   2.284   1.943  0.2273 -0.2376  0.8148
   68MOL   O24232536   5.415   2.070   1.986  0.2298 -0.8558 -0.6704
   68MOL   C24332537   5.371   1.942   2.017  0.5450 -0.0657  0.1019
   68MOL   C24432538   5.388   1.870   1.881  0.1541 -0.7159 -0.1775
   68MOL   C24532539   5.368   1.722   1.883 -0.5916 -0.3689 -0.0562
   68MOL   C24632540   5.438   1.648   1.767 -0.5463  0.5495  0.2161
   68MOL   O24732541   5.371   1.667   1.642  0.0901 -0.2823  0.1688
   68MOL   C24832542   5.405   1.617   1.526  0.1260 -0.2568 -0.1714
   68MOL   O24932543   5.509   1.555   1.512 -0.2645 -0.2382 -0.0296
   68MOL   C25032544   5.298   1.638   1.418 -0.5876  0.2199  0.2929
   68MOL   C25132545   5.157   1.657   1.486 -0.0344 -0.5069  0.5826
   68MOL   C25232546   5.098   1.792   1.453 -0.2940  0.0155  0.2394
   68MOL   O25332547   5.078   1.882   1.540  0.1995  0.1961 -0.0127
   68MOL   H25432548   5.441   1.896   2.087  0.3365 -1.3793 -0.5328
   68MOL   H25532549   5.267   1.944   2.051 -0.2567 -1.4076 -2.1406
   68MOL   H25632550   5.487   1.897   1.846  1.0798  0.3098  3.0617
   68MOL   H25732551   5.327   1.916   1.803  0.3692 -0.1709 -0.0269
   68MOL   H25832552   5.263   1.692   1.888 -0.6224 -0.1211  1.1101
   68MOL   H25932553   5.418   1.684   1.972 -0.7427 -0.4393 -0.0005
   68MOL   H26032554   5.546   1.660   1.754 -0.6188 -1.0402 -2.1306
   68MOL   H26132555   5.431   1.542   1.792  0.0321  0.9503  2.1497
   68MOL   H26232556   5.309   1.569   1.335  1.6949 -0.5084  1.1567
   68MOL   H26332557   5.329   1.733   1.376  1.1508 -0.6734 -0.4872
   68MOL   H26432558   5.095   1.574   1.455 -0.7698 -0.2134  1.2450
   68MOL   H26532559   5.150   1.645   1.594  0.8414  0.2421  0.7335
   68MOL   O26632560   5.076   1.819   1.325 -0.3699  0.8498  0.0820
   68MOL   C26732561   5.033   1.951   1.277  0.3401 -0.1113  0.2982
   68MOL   C26832562   5.152   2.050   1.258 -0.0084 -0.3921  0.3826
   68MOL   C26932563   5.078   2.194   1.246  0.4750 -0.6044  0.2469
   68MOL   C27032564   5.180   2.296   1.218 -0.1307 -0.4632 -0.3028
   68MOL   O27132565   5.263   2.263   1.112  0.0609 -0.3818 -0.6352
   68MOL   C27232566   5.215   2.271   0.985 -0.3972  0.0129 -0.2655
   68MOL   O27332567   5.106   2.314   0.948 -0.5859  0.2430 -0.0653
   68MOL   C27432568   5.314   2.219   0.880  0.2290  0.1611  0.0939
   68MOL   C27532569   5.255   2.093   0.818 -0.2761  0.1108  0.6852
   68MOL   C27632570   5.178   2.106   0.688 -0.3061 -0.1234  0.0493
   68MOL   O27732571   5.114   2.012   0.635  0.3280 -0.3796 -0.1736
   68MOL   H27832572   4.974   1.938   1.187  0.5291 -1.6348  0.3795
   68MOL   H27932573   4.952   1.979   1.344 -1.2616  0.1317 -1.7259
   68MOL   H28032574   5.207   2.024   1.168  2.8349  1.5360  1.4908
   68MOL   H28132575   5.221   2.049   1.342  0.1727  2.6507  0.3358
   68MOL   H28232576   5.015   2.224   1.330 -1.2605 -3.4554  0.0272
   68MOL   H28332577   5.017   2.173   1.157  0.8023 -1.6039  0.2615
   68MOL   H28432578   5.128   2.389   1.196  1.4046  0.5481  0.2307
   68MOL   H28532579   5.243   2.321   1.304  2.6668 -0.1305 -2.4083
   68MOL   H28632580   5.405   2.192   0.933  1.4669  0.8468 -1.6407
   68MOL   H28732581   5.344   2.299   0.813  0.3889  0.0180 -0.0055
   68MOL   H28832582   5.338   2.029   0.788 -0.8232 -0.0372 -0.5716
   68MOL   H28932583   5.201   2.049   0.901 -1.2509  1.8527  0.9852
   68MOL   O29032584   5.193   2.224   0.631 -0.4051  0.4756  0.6825
   68MOL   C29132585   5.137   2.253   0.496  0.2553  0.3547 -0.1712
   68MOL   C29232586   5.003   2.334   0.500 -0.5704  0.0833 -0.0783
   68MOL   C29332587   4.902   2.248   0.570  0.0237  0.5788  0.1878
   68MOL   C29432588   4.780   2.336   0.598 -0.0288 -0.1173 -0.8612
   68MOL   O29532589   4.674   2.264   0.654  0.2777  0.1606 -0.4329
   68MOL   C29632590   4.550   2.263   0.591 -0.2824 -0.1113  0.0103
   68MOL   O29732591   4.523   2.326   0.492  0.5430 -0.3943  0.2662
   68MOL   C29832592   4.447   2.177   0.670  0.4200 -0.1174 -0.4796
   68MOL   C29932593   4.306   2.189   0.608 -0.3568 -0.4204  0.7203
   68MOL   C30032594   4.200   2.097   0.670 -0.5271  0.3402  0.5046
   68MOL   O30132595   4.097   2.140   0.706  0.0370 -0.0954  0.0073
   68MOL   H30232596   5.211   2.318   0.449  0.2181  2.1108  2.0896
   68MOL   H30332597   5.131   2.166   0.430  0.0528  1.0557 -1.0799
   68MOL   H30432598   4.971   2.363   0.400 -0.0830 -0.1753 -0.3083
   68MOL   H30532599   5.020   2.428   0.553 -1.0008  1.1860 -1.8428
   68MOL   H30632600   4.928   2.205   0.667  0.8046  3.0126  1.0791
   68MOL   H30732601   4.880   2.164   0.504  0.0093  0.9137 -0.2270
   68MOL   H30832602   4.810   2.414   0.668 -0.3801 -0.8276  0.0964
   68MOL   H30932603   4.748   2.394   0.512 -1.2748  1.2319  0.4912
   68MOL   H31032604   4.451   2.207   0.774 -0.2108 -0.0173 -0.4782
   68MOL   H31132605   4.479   2.073   0.665  0.8858  0.0060 -0.0801
   68MOL   H31232606   4.293   2.297   0.625  3.3442  0.0668  0.7576
   68MOL   H31332607   4.309   2.174   0.501  2.4226  0.2286  0.6654
   68MOL   O31432608   4.230   1.954   0.658  0.4616  0.3294 -0.2726
   68MOL   C31532609   4.121   1.869   0.692 -0.2532 -0.0622 -0.1156
   68MOL   C31632610   4.165   1.721   0.685  0.7649 -0.0474 -0.1682
   68MOL   C31732611   4.044   1.626   0.714 -0.4974  0.1550 -0.0720
   68MOL   C31832612   3.960   1.616   0.589  0.5472 -0.6236 -0.9338
   68MOL   O31932613   3.866   1.518   0.618 -0.2017 -0.2178 -0.5884
   68MOL   C32032614   3.786   1.481   0.526 -0.3596 -0.5909  1.1555
   68MOL   O32132615   3.773   1.536   0.413  0.2511 -0.5524 -0.4349
   68MOL   C32232616   3.703   1.362   0.564 -0.6509 -0.2048 -0.1519
   68MOL   C32332617   3.568   1.370   0.505 -0.2520 -0.6686 -0.0908
   68MOL   C32432618   3.526   1.256   0.414 -0.1239 -0.1782 -0.0251
   68MOL   O32532619   3.570   1.140   0.439  0.1168  0.5853  0.0636
   68MOL   H32632620   4.088   1.880   0.795 -0.7847 -0.1469 -0.2783
   68MOL   H32732621   4.039   1.880   0.622  0.4149  0.4470 -0.8249
   68MOL   H32832622   4.232   1.691   0.766  1.1123  2.3213  0.4698
   68MOL   H32932623   4.218   1.707   0.591 -1.2417 -1.3071 -1.1385
   68MOL   H33032624   3.988   1.671   0.796 -2.0867  1.3966 -1.7676
   68MOL   H33132625   4.089   1.534   0.751 -1.3817 -0.7458 -1.1907
   68MOL   H33232626   3.923   1.715   0.565  0.3659 -0.3710  0.3641
   68MOL   H33332627   4.026   1.585   0.508  3.4814 -0.6682  1.3744
   68MOL   H33432628   3.704   1.348   0.672 -0.2200  1.1062  0.0160
   68MOL   H33532629   3.758   1.273   0.534 -1.0798 -1.1485  1.8031
   68MOL   H33632630   3.490   1.381   0.580 -1.3022 -1.6431 -1.0164
   68MOL   H33732631   3.562   1.468   0.458 -0.0619  0.7179  2.7146
   68MOL   O33832632   3.437   1.299   0.320 -0.1726 -0.1058 -0.0617
   68MOL   C33932633   3.356   1.192   0.261 -0.0152  0.0188  0.4827
   68MOL   C34032634   3.248   1.254   0.155 -0.2181 -0.0017  0.3780
   68MOL   C34132635   3.148   1.149   0.095 -0.3925  1.0337  0.0605
   68MOL   C34232636   3.055   1.221   7.869 -0.2623 -0.4711 -0.4862
   68MOL   O34332637   2.956   1.130   7.828 -0.1815 -0.0900  0.6375
   68MOL   C34432638   2.871   1.167   7.734 -0.5279  0.0753  0.3334
   68MOL   O34532639   2.877   1.274   7.672 -0.0845 -0.0638  0.3296
   68MOL   C34632640   2.783   1.052   7.687 -0.8673 -0.2412 -0.4518
   68MOL   C34732641   2.634   1.096   7.679 -0.2276 -0.5425 -0.2915
   68MOL   C34832642   2.563   1.069   7.806 -0.2956 -0.3329  0.3629
   68MOL   O34932643   2.469   0.993   7.809 -0.5265 -0.2036  0.0035
   68MOL   H35032644   3.412   1.117   0.205 -0.3457  0.7144 -0.8257
   68MOL   H35132645   3.304   1.137   0.339  0.4974  0.6597  1.2776
   68MOL   H35232646   3.297   1.302   0.070  1.1447  0.4418  1.4019
   68MOL   H35332647   3.186   1.325   0.209 -1.3466 -1.0976  0.5446
   68MOL   H35432648   3.099   1.091   0.172  1.7175 -0.1716  0.5154
   68MOL   H35532649   3.210   1.088   0.029 -1.7812 -0.2388 -0.0689
   68MOL   H35632650   3.000   1.303   0.043 -2.3412 -1.1039 -1.7163
   68MOL   H35732651   3.107   1.253   7.779  1.2013 -0.7053  0.2555
   68MOL   H35832652   2.786   0.965   7.753  1.2982 -0.6971 -1.1183
   68MOL   H35932653   2.819   1.013   7.592 -0.6874 -0.2589 -0.3772
   68MOL   H36032654   2.641   1.197   7.638  2.1728  0.4641  2.4624
   68MOL   H36132655   2.585   1.043   7.597 -0.5513 -0.6339 -0.0396
   68MOL   O36232656   2.610   1.138   0.031 -0.1136 -0.3033 -0.0823
   68MOL   C36332657   2.569   1.121   0.167  0.3340 -0.1959  0.4630
   68MOL   C36432658   2.628   0.994   0.237 -0.0204 -0.5077  0.3813
   68MOL   C36532659   2.784   0.991   0.238  0.4983  0.1077  0.1799
   68MOL   C36632660   2.839   0.875   0.309  0.8723 -0.6815 -0.1317
   68MOL   O36732661   2.800   0.757   0.243 -0.5007 -0.2068 -0.3678
   68MOL   C36832662   2.857   0.640   0.278  0.4032 -0.6049  0.4827
   68MOL   O36932663   2.932   0.615   0.375 -0.3398 -0.5378  0.1818
   68MOL   C37032664   2.809   0.525   0.188 -0.0105  0.3166 -0.2367
   68MOL   C37132665   2.752   0.415   0.271  0.1760 -0.5425  0.2222
   68MOL   C37232666   2.751   0.283   0.199  0.0262  0.1313  0.4007
   68MOL   O37332667   2.777   0.178   0.258 -0.2121 -0.1724  0.0988
   68MOL   H37432668   2.610   1.205   0.224  1.3208 -0.1398 -0.3185
   68MOL   H37532669   2.461   1.123   0.185  0.3073  0.2656  0.2512
   68MOL   H37632670   2.579   0.908   0.193 -1.0538  0.8061 -1.0441
   68MOL   H37732671   2.579   0.995   0.334  1.0683 -2.2387  0.9815
   68MOL   H37832672   2.828   1.080   0.283 -0.7430  1.2783 -0.9043
   68MOL   H37932673   2.813   0.989   0.133 -1.1824 -2.0704 -0.2933
   68MOL   H38032674   2.947   0.882   0.304  0.7976 -0.3055 -1.2567
   68MOL   H38132675   2.807   0.871   0.414 -0.2095  1.7690 -0.3432
   68MOL   H38232676   2.893   0.489   0.128 -0.3372  1.4133 -1.3857
   68MOL   H38332677   2.734   0.567   0.120 -0.9386  0.7295  1.0306
   68MOL   H38432678   2.807   0.419   0.365  0.1452 -2.8254  0.3667
   68MOL   H38532679   2.652   0.437   0.307  1.1411  0.1228  2.5498
   68MOL   O38632680   2.707   0.295   0.067  0.0085 -1.0516  0.6063
   68MOL   C38732681   2.686   0.177   7.870  0.1096 -0.4983 -0.0879
   68MOL   C38832682   2.666   0.222   7.726 -0.5021  0.4350  0.2937
   68MOL   C38932683   2.769   0.327   7.693 -0.1988  0.1219 -0.1660
   68MOL   C39032684   2.797   0.341   7.542  0.2053 -0.3266  0.3923
   68MOL   O39132685   2.669   0.368   7.471 -0.1226  0.1864  0.0744
   68MOL   C39232686   2.666   0.399   7.342 -0.3846 -0.3981 -0.4165
   68MOL   O39332687   2.761   0.425   7.269 -0.5860  0.2667  0.0733
   68MOL   C39432688   2.524   0.407   7.289  0.1473  0.3474 -0.6298
   68MOL   C39532689   2.512   0.416   7.135 -0.2478  0.3413  0.4024
   68MOL   C39632690   2.414   0.518   7.072 -0.1392  0.1547  0.2086
   68MOL   O39732691   2.452   0.623   7.021 -0.4595  0.3094  0.5430
   68MOL   H39832692   2.768   0.105   7.874  0.2616 -0.2990  0.4204
   68MOL   H39932693   2.593   0.128   0.025  0.5473 -1.3538 -0.1036
   68MOL   H40032694   2.570   0.269   7.705 -0.6374  1.4396  2.9601
   68MOL   H40132695   2.674   0.136   7.660 -2.4355 -1.6755  2.6724
   68MOL   H40232696   2.860   0.309   7.749 -0.0801 -0.3149 -0.4946
   68MOL   H40332697   2.746   0.427   7.730  2.0794  0.0061  1.6357
   68MOL   H40432698   2.872   0.416   7.517 -2.1615  2.0925  0.3120
   68MOL   H40532699   2.838   0.252   7.495 -0.2435  0.0721 -0.7868
   68MOL   H40632700   2.471   0.497   7.319 -0.4202  0.4546 -1.9270
   68MOL   H40732701   2.468   0.322   7.327 -0.0557  0.8300  0.1626
   68MOL   H40832702   2.608   0.421   7.084 -0.9897 -0.0335 -1.0421
   68MOL   H40932703   2.473   0.320   7.101  2.3674 -0.8563  0.6918
   68MOL   O41032704   2.282   0.480   7.093 -0.1279  0.5120  1.4127
   68MOL   C41132705   2.185   0.577   7.057  0.3202  0.2678 -0.0053
   68MOL   C41232706   2.128   0.643   7.187 -0.4194  0.5140 -0.2922
   68MOL   C41332707   2.054   0.550   7.277 -0.5906  0.5074  0.1453
   68MOL   C41432708   1.914   0.502   7.226  0.5806 -0.1556  0.9949
   68MOL   O41532709   1.820   0.597   7.259  0.1087 -0.5160 -0.3298
   68MOL   C41632710   1.713   0.621   7.184 -0.2192  0.3197 -0.0123
   68MOL   O41732711   1.686   0.561   7.078  0.0069  0.2032  0.1381
   68MOL   C41832712   1.610   0.729   7.238 -0.6558  0.2791 -1.3200
   68MOL   C41932713   1.678   0.857   7.297 -0.0582 -0.0969  0.4363
   68MOL   C42032714   1.711   0.947   7.177  0.1694  0.0033 -0.3465
   68MOL   O42132715   1.821   0.944   7.129  0.3262  0.1502  0.7390
   68MOL   H42232716   2.222   0.661   6.998 -0.3091  2.0982  2.1071
   68MOL   H42332717   2.114   0.527   6.991  1.5163 -2.0092  0.3802
   68MOL   H42432718   2.068   0.730   7.159 -0.1755  1.3385  1.6750
   68MOL   H42532719   2.213   0.687   7.240 -0.0611 -0.0910 -0.3670
   68MOL   H42632720   2.051   0.600   7.374  0.3635 -0.3810  0.6418
   68MOL   H42732721   2.114   0.461   7.294 -2.1404 -0.8108 -1.2302
   68MOL   H42832722   1.933   0.478   7.122 -3.0095  1.6321 -0.1525
   68MOL   H42932723   1.893   0.409   7.280  0.7401 -0.6480  0.2044
   68MOL   H43032724   1.551   0.683   7.318 -1.4142  1.4926 -1.1659
   68MOL   H43132725   1.543   0.759   7.158 -1.2452 -0.2102 -1.0196
   68MOL   H43232726   1.630   0.903   7.384 -0.8993 -0.6914  0.2947
   68MOL   H43332727   1.774   0.828   7.341  0.2475  1.6671  0.9688
   68MOL   O43432728   1.601   1.011   7.129 -0.0937  0.1833 -0.0414
   68MOL   C43532729   1.600   1.072   6.995 -0.3437 -0.2056  0.4871
   68MOL   C43632730   1.453   1.075   6.963 -0.1336  0.2655 -0.5211
   68MOL   C43732731   1.421   0.991   6.832  0.3117 -0.4111 -0.0880
   68MOL   C43832732   1.475   0.848   6.826  0.6025  0.2401  0.2213
   68MOL   O43932733   1.447   0.790   6.701 -0.4547  0.4675  0.1951
   68MOL   C44032734   1.537   0.785   6.604  0.5156  0.1427  1.0356
   68MOL   O44132735   1.650   0.835   6.602 -0.1661 -0.3871  0.4809
   68MOL   C44232736   1.484   0.712   6.484  0.7671  0.4067  0.1602
   68MOL   C44332737   1.473   0.557   6.501 -0.2064 -0.4414 -0.1923
   68MOL   C44432738   1.337   0.501   6.517  0.1765 -0.4414  0.1808
   68MOL   O44532739   1.248   0.569   6.575 -0.0518 -0.0868 -0.0417
   68MOL   H44632740   1.642   1.172   7.007 -0.3188  0.1956 -2.4689
   68MOL   H44732741   1.663   1.037   6.913 -0.1774  3.0130 -0.8467
   68MOL   H44832742   1.414   1.174   6.940 -1.2960 -0.0455  0.1096
   68MOL   H44932743   1.396   1.037   7.048  0.1981  1.9912  0.5051
   68MOL   H45032744   1.478   1.044   6.756  2.3707 -0.4507  1.3990
   68MOL   H45132745   1.314   0.979   6.810  0.2559  0.2041 -0.1439
   68MOL   H45232746   1.584   0.855   6.831  0.6906  2.4170 -3.0194
   68MOL   H45332747   1.441   0.788   6.910  1.3308 -2.5473 -1.3866
   68MOL   H45432748   1.533   0.726   6.388 -1.0064 -1.9414 -1.1381
   68MOL   H45532749   1.380   0.743   6.468  0.8905 -0.0082 -1.4639
   68MOL   H45632750   1.518   0.518   6.409 -1.1936  1.5111 -1.5335
   68MOL   H45732751   1.530   0.533   6.591  0.1981  1.7737  0.1525
   68MOL   O45832752   1.318   0.388   6.449  0.7374 -0.1170 -0.3509
   68MOL   C45932753   1.189   0.331   6.445  0.3647 -0.1282  0.4468
   68MOL   C46032754   1.202   0.186   6.419  0.2848  0.5380 -0.0187
   68MOL   C46132755   1.237   0.111   6.550 -0.2039  0.5917  0.4075
   68MOL   C46232756   1.254   7.834   6.530 -0.4602 -0.8234  0.4076
   68MOL   O46332757   1.258   7.770   6.656  0.1677 -0.0190  0.4320
   68MOL   C46432758   1.269   7.633   6.650  0.2899  0.4980  0.6410
   68MOL   O46532759   1.299   7.565   6.550  0.1261 -0.1389 -0.3432
   68MOL   C46632760   1.266   7.576   6.795 -0.1697  0.2461  0.1834
   68MOL   C46732761   1.403   7.614   6.863 -0.2242 -0.2746 -0.1190
   68MOL   C46832762   1.401   7.716   6.978 -0.1945 -0.5194  0.6616
   68MOL   O46932763   1.312   7.799   6.976  0.2938  0.5440 -0.2024
   68MOL   H47032764   1.127   0.350   6.532 -1.9674 -0.2276 -1.1486
   68MOL   H47132765   1.127   0.377   6.367  0.9254 -2.0514 -1.1716
   68MOL   H47232766   1.262   0.164   6.331  0.1165  0.3536 -0.0874
   68MOL   H47332767   1.102   0.151   6.396 -0.7826  3.4785  0.0007
   68MOL   H47432768   1.174   0.142   6.633 -0.2203 -3.2333  1.9309
   68MOL   H47532769   1.339   0.136   6.580 -0.3751  1.2088  0.4912
   68MOL   H47632770   1.160   7.799   6.487 -1.1472  1.7446 -0.2404
   68MOL   H47732771   1.336   7.810   6.462 -0.0813 -2.1441  1.3031
   68MOL   H47832772   1.235   7.472   6.809 -1.7514  1.0211  2.7961
   68MOL   H47932773   1.190   7.624   6.857  1.6359  0.9736  1.8801
   68MOL   H48032774   1.444   7.520   6.900 -0.9538  0.5593  2.9131
   68MOL   H48132775   1.482   7.633   6.790  1.3374  0.5042  1.7156
   68MOL   H48232776   1.481   7.718   7.052 -0.4361  2.4202  0.8990
   69MOL     O132777   3.580   5.675   0.158  0.4595  0.0670 -0.4652
   69MOL     C232778   3.697   5.731   0.208 -0.1292  0.2131  1.0416
   69MOL     C332779   3.748   5.832   0.104  0.5690 -0.0492 -0.0537
   69MOL     C432780   3.846   5.937   0.153  0.4675 -0.0953 -0.1553
   69MOL     C532781   3.905   6.007   0.039 -0.6986 -0.2855 -0.2374
   69MOL     O632782   3.805   6.077   7.836 -0.2554  0.2409 -0.1401
   69MOL     C732783   3.834   6.155   7.734 -1.0234 -0.0030  0.5202
   69MOL     O832784   3.947   6.161   7.686  0.3636 -0.1290  0.2657
   69MOL     C932785   3.723   6.224   7.662 -0.3826  0.0336 -0.2947
   69MOL    C1032786   3.759   6.367   7.609  0.8300  0.0568  0.2895
   69MOL    C1132787   3.668   6.477   7.674 -0.2092  0.1705  0.1148
   69MOL    O1232788   3.591   6.542   7.605  0.3209 -0.6856 -0.1452
   69MOL    H1332789   3.665   5.786   0.296 -0.4345  1.0981  0.3802
   69MOL    H1432790   3.773   5.657   0.234 -0.4113 -0.6522 -0.4922
   69MOL    H1532791   3.665   5.878   0.050 -0.8885 -2.7603 -0.2114
   69MOL    H1632792   3.809   5.783   0.029 -0.7793  0.9602 -1.8682
   69MOL    H1732793   3.913   5.898   0.229  1.7101 -0.3969 -1.3856
   69MOL    H1832794   3.791   6.001   0.222 -0.7257  1.0751 -2.1258
   69MOL    H1932795   3.982   6.074   0.077  0.3828 -1.2994 -0.5965
   69MOL    H2032796   3.976   5.946   7.856  0.2696 -0.3604  0.9922
   69MOL    H2132797   3.643   6.228   7.737  0.1970  0.5254  0.3016
   69MOL    H2232798   3.691   6.145   7.594 -0.5575  0.2275 -0.4387
   69MOL    H2332799   3.866   6.386   7.619  1.0593  0.7325 -2.8091
   69MOL    H2432800   3.734   6.372   7.503  2.4053  0.8950 -0.0525
   69MOL    H2532801   3.590   5.637   0.072  1.8089 -0.2135 -0.2013
   69MOL    O2632802   3.689   6.491   7.810  0.5682 -0.2083 -0.1458
   69MOL    C2732803   3.617   6.593   0.002  0.4066  0.7033  0.4350
   69MOL    C2832804   3.476   6.541   0.038  0.5238  0.4798 -0.9042
   69MOL    C2932805   3.395   6.646   0.120  0.7987  0.1523  0.5319
   69MOL    C3032806   3.391   6.775   0.044 -0.3062  0.4630  0.2197
   69MOL    O3132807   3.346   6.747   7.791  0.1166  0.1409  0.3905
   69MOL    C3232808   3.384   6.819   7.679 -0.4608  0.2227 -0.4598
   69MOL    O3332809   3.447   6.923   7.682 -0.3784 -0.4268 -0.0063
   69MOL    C3432810   3.331   6.770   7.547 -0.1525  0.2533  0.1558
   69MOL    C3532811   3.434   6.789   7.433 -0.1368 -0.2033  0.6473
   69MOL    C3632812   3.378   6.868   7.312 -0.8611 -0.2597  0.5028
   69MOL    O3732813   3.399   6.989   7.301  0.2731 -0.1013  0.6386
   69MOL    H3832814   3.674   6.628   0.088  0.3209 -1.9898  1.6592
   69MOL    H3932815   3.602   6.680   7.813 -1.4682  0.2423  0.2192
   69MOL    H4032816   3.481   6.456   0.106  1.3119  1.4881  0.3291
   69MOL    H4132817   3.422   6.500   7.827 -1.3579  0.6646  0.1541
   69MOL    H4232818   3.446   6.669   0.213  0.5635  2.2921  0.1569
   69MOL    H4332819   3.295   6.605   0.137  0.7760 -0.9873 -2.0807
   69MOL    H4432820   3.322   6.845   0.092  0.6155  0.3610  1.7200
   69MOL    H4532821   3.491   6.818   0.042  0.9783 -2.2198  2.9629
   69MOL    H4632822   3.237   6.820   7.521 -1.0432 -1.3649  0.2237
   69MOL    H4732823   3.291   6.669   7.553 -1.8610  0.8611 -0.5100
   69MOL    H4832824   3.527   6.839   7.461  1.3932 -2.3415 -0.4976
   69MOL    H4932825   3.461   6.690   7.396 -0.2662  0.5946 -1.7031
   69MOL    O5032826   3.298   6.792   7.241  0.3546 -0.5235 -0.3448
   69MOL    C5132827   3.226   6.835   7.123  0.0933 -0.4894 -0.1536
   69MOL    C5232828   3.293   6.800   6.988  0.4934  0.4668  0.3412
   69MOL    C5332829   3.436   6.848   6.975  0.4234 -0.5308 -0.3442
   69MOL    C5432830   3.489   6.835   6.830  0.6082 -0.0917 -0.7202
   69MOL    O5532831   3.466   6.705   6.787  0.5714 -0.6365  0.5426
   69MOL    C5632832   3.572   6.637   6.752 -0.9711 -0.7533 -0.0342
   69MOL    O5732833   3.689   6.673   6.765 -0.0633  0.3204 -0.0758
   69MOL    C5832834   3.533   6.511   6.675 -0.0236  1.1003 -0.3172
   69MOL    C5932835   3.650   6.451   6.598  0.1947 -0.0948  0.8157
   69MOL    C6032836   3.659   6.496   6.454 -0.2152  0.2643 -0.9899
   69MOL    O6132837   3.593   6.590   6.411 -0.0373  0.4219 -0.3170
   69MOL    H6232838   3.131   6.783   7.130 -0.8803  1.3557  0.6456
   69MOL    H6332839   3.205   6.941   7.127  0.1151 -0.4473 -1.0547
   69MOL    H6432840   3.228   6.840   6.910  0.4894  0.9455  0.5854
   69MOL    H6532841   3.292   6.691   6.991  0.0746  0.4927  1.3420
   69MOL    H6632842   3.506   6.793   7.038 -1.8882 -1.1491  1.8093
   69MOL    H6732843   3.445   6.951   7.010  2.5887 -0.9242  0.3207
   69MOL    H6832844   3.447   6.902   6.756  0.1180 -0.3878 -0.7145
   69MOL    H6932845   3.590   6.870   6.852  0.8245 -1.1320 -0.0147
   69MOL    H7032846   3.442   6.526   6.618  0.4244  1.8119 -0.8519
   69MOL    H7132847   3.491   6.442   6.748 -1.0719 -1.1270 -2.9410
   69MOL    H7232848   3.740   6.458   6.658  1.0005  0.9965 -0.4898
   69MOL    H7332849   3.639   6.342   6.598 -0.0143 -0.0852 -0.5743
   69MOL    O7432850   3.752   6.428   6.389 -1.2179 -0.4289  0.0617
   69MOL    C7532851   3.778   6.459   6.246  1.3795 -0.7007  0.2139
   69MOL    C7632852   3.903   6.537   6.221 -0.1333  0.1531 -0.7324
   69MOL    C7732853   3.934   6.570   6.078  0.2732 -0.5486 -0.5966
   69MOL    C7832854   4.076   6.639   6.055  0.4426  0.0261 -0.1767
   69MOL    O7932855   4.105   6.667   5.920  0.1126 -0.8889 -0.3015
   69MOL    C8032856   4.129   6.792   5.883 -1.1550  0.3194  0.1629
   69MOL    O8132857   4.167   6.880   5.958  0.0333  0.5431  0.5739
   69MOL    C8232858   4.097   6.817   5.735 -0.4201 -0.0131 -0.0123
   69MOL    C8332859   4.063   6.968   5.705 -0.3964 -0.3878 -0.1224
   69MOL    C8432860   4.166   7.035   5.624 -0.1447  0.2853 -0.1719
   69MOL    O8532861   4.222   6.974   5.533  0.2044  0.0089  0.1376
   69MOL    H8632862   3.789   6.375   6.178  1.2143  0.2068 -0.9635
   69MOL    H8732863   3.698   6.523   6.208  2.4084  0.2736 -0.3468
   69MOL    H8832864   3.988   6.481   6.260 -1.2230 -1.0604 -0.0451
   69MOL    H8932865   3.905   6.634   6.271 -1.4976  0.9775 -2.2172
   69MOL    H9032866   3.854   6.635   6.043  3.3151  3.7919  0.1747
   69MOL    H9132867   3.927   6.479   6.018 -0.2244  0.5576 -2.2478
   69MOL    H9232868   4.092   6.726   6.118  0.2086  0.7116 -1.0423
   69MOL    H9332869   4.155   6.575   6.094 -0.1421 -0.2534  0.5480
   69MOL    H9432870   4.024   6.739   5.709 -1.1598  0.1821  1.3976
   69MOL    H9532871   4.191   6.786   5.689 -1.0915 -1.0566 -0.7150
   69MOL    H9632872   3.968   6.965   5.652 -0.0706  0.0488 -0.7469
   69MOL    H9732873   4.037   7.024   5.795 -1.8727  0.7695 -1.2449
   69MOL    O9832874   4.186   7.160   5.656  0.0452 -0.4125 -0.6211
   69MOL    C9932875   4.292   7.240   5.612  0.2937  0.5444 -0.8131
   69MOL   C10032876   4.412   7.210   5.704 -0.2864 -0.0935  0.2129
   69MOL   C10132877   4.372   7.234   5.856 -0.4947  0.2293 -0.0336
   69MOL   C10232878   4.487   7.228   5.958 -1.0033 -0.7067 -0.0047
   69MOL   O10332879   4.513   7.093   5.976  0.0174  0.8047 -0.0409
   69MOL   C10432880   4.610   7.038   5.894 -0.7601  0.0616 -0.3872
   69MOL   O10532881   4.699   7.098   5.827  0.4922 -0.6495  0.4928
   69MOL   C10632882   4.608   6.889   5.892 -0.2523 -0.8345  0.2366
   69MOL   C10732883   4.508   6.857   5.782  0.2135 -0.0325  0.0909
   69MOL   C10832884   4.515   6.713   5.753  0.6067 -0.4329 -0.6184
   69MOL   O10932885   4.561   6.668   5.652  0.2322 -0.2559  0.3075
   69MOL   H11032886   4.330   7.221   5.512  2.3387  1.6512 -0.2598
   69MOL   H11132887   4.275   7.346   5.626  1.0695  0.3755  1.6966
   69MOL   H11232888   4.501   7.267   5.677  0.9439 -1.0069  2.2460
   69MOL   H11332889   4.434   7.105   5.683 -1.0744 -0.6432  2.0075
   69MOL   H11432890   4.291   7.166   5.881  0.1515 -0.6638 -0.3240
   69MOL   H11532891   4.338   7.338   5.851 -0.2704  0.2521 -1.2704
   69MOL   H11632892   4.569   7.294   5.931 -1.6669  1.0773  2.2203
   69MOL   H11732893   4.448   7.266   6.052 -0.9736  3.6894 -1.6465
   69MOL   H11832894   4.573   6.841   5.984 -1.1723  0.7648  0.7388
   69MOL   H11932895   4.708   6.852   5.874 -0.4065 -0.3129 -1.8521
   69MOL   H12032896   4.417   6.874   5.839 -0.3176 -0.0295 -0.7448
   69MOL   H12132897   4.525   6.913   5.690  0.0210 -0.9333 -0.4932
   69MOL   O12232898   4.464   6.644   5.863 -0.0750  0.2642  0.6183
   69MOL   C12332899   4.471   6.497   5.863  0.1059 -0.5360  0.8424
   69MOL   C12432900   4.596   6.456   5.935  0.4639 -1.2598 -0.7624
   69MOL   C12532901   4.604   6.522   6.077 -0.3171  0.2241  0.1074
   69MOL   C12632902   4.674   6.426   6.175  0.6214 -0.4848  0.0899
   69MOL   O12732903   4.791   6.368   6.131 -0.4153 -0.4808 -0.1017
   69MOL   C12832904   4.913   6.418   6.169 -0.3798 -0.1233  0.3511
   69MOL   O12932905   4.926   6.516   6.246  0.0691  0.0515  0.5756
   69MOL   C13032906   5.032   6.340   6.105  0.9248  0.1575 -0.2298
   69MOL   C13132907   5.044   6.376   5.955 -0.6639 -0.5555 -0.1867
   69MOL   C13232908   4.966   6.289   5.865  0.3207 -0.4322  0.0300
   69MOL   O13332909   4.866   6.330   5.795  0.6266  0.1788  0.4333
   69MOL   H13432910   4.385   6.457   5.917 -0.4233  0.5537  0.8159
   69MOL   H13532911   4.465   6.446   5.766  0.4972  0.7430  0.1391
   69MOL   H13632912   4.680   6.494   5.878  0.9047 -0.8292  0.1736
   69MOL   H13732913   4.613   6.348   5.940  2.9130 -0.9131 -1.1724
   69MOL   H13832914   4.500   6.543   6.101 -0.0187  1.1937  0.5603
   69MOL   H13932915   4.663   6.612   6.063  1.1913 -0.8337 -0.4202
   69MOL   H14032916   4.692   6.477   6.269 -1.2713  1.3381 -0.5146
   69MOL   H14132917   4.604   6.345   6.197  0.0602 -0.0761 -0.1893
   69MOL   H14232918   5.023   6.233   6.123  0.7067  0.1792 -0.2077
   69MOL   H14332919   5.127   6.361   6.155  0.5226 -1.9551  1.4962
   69MOL   H14432920   5.031   6.484   5.944 -1.9629 -0.7882 -1.0830
   69MOL   H14532921   5.150   6.373   5.933 -0.6104  1.7895 -0.3615
   69MOL   O14632922   4.996   6.159   5.880 -0.0693 -0.6635  0.1872
   69MOL   C14732923   4.929   6.069   5.799  0.5434  0.2748 -0.5878
   69MOL   C14832924   5.001   5.934   5.789 -0.6352 -0.2795 -0.2133
   69MOL   C14932925   4.995   5.845   5.914 -0.1787 -0.6127 -0.0973
   69MOL   C15032926   5.067   5.713   5.903 -0.0158  0.0453 -0.1384
   69MOL   O15132927   5.203   5.723   5.861 -0.1692 -0.1674  0.0170
   69MOL   C15232928   5.241   5.679   5.736  0.2073  0.5222  0.0487
   69MOL   O15332929   5.171   5.633   5.650 -0.1260 -0.0030 -0.2153
   69MOL   C15432930   5.389   5.714   5.714  0.6675 -0.2868  0.1014
   69MOL   C15532931   5.426   5.714   5.562  0.0666 -0.4360  0.2789
   69MOL   C15632932   5.418   5.856   5.511 -0.0160 -0.0227  0.1072
   69MOL   O15732933   5.306   5.907   5.477 -0.2994 -0.4474 -0.6070
   69MOL   H15832934   4.826   6.059   5.833  0.3992 -0.0925 -1.1433
   69MOL   H15932935   4.921   6.110   5.698  1.6095  0.5478 -0.5709
   69MOL   H16032936   5.104   5.949   5.756 -1.0368  1.9713 -0.4904
   69MOL   H16132937   4.958   5.882   5.703 -2.3057  3.6261 -1.8471
   69MOL   H16232938   4.892   5.847   5.948 -0.1468  2.1609 -0.0631
   69MOL   H16332939   5.050   5.899   5.992 -0.9054 -0.6185  0.4215
   69MOL   H16432940   5.059   5.676   6.005  0.9558 -1.1391 -0.4854
   69MOL   H16532941   5.006   5.650   5.838  2.0335 -1.3988 -0.6922
   69MOL   H16632942   5.441   5.638   5.772  0.5126  0.3945  1.1615
   69MOL   H16732943   5.402   5.815   5.754 -1.2858 -0.1938  0.5659
   69MOL   H16832944   5.528   5.686   5.536 -0.3575 -1.0744 -0.7327
   69MOL   H16932945   5.368   5.653   5.493 -2.5098  0.4246  1.5975
   69MOL   O17032946   5.545   5.910   5.502  0.1066 -0.2167  0.5738
   69MOL   C17132947   5.558   6.036   5.433 -0.5428  0.0015  0.2030
   69MOL   C17232948   5.705   6.092   5.445 -0.0392  0.3487 -0.7865
   69MOL   C17332949   5.713   6.234   5.404  0.7611  0.2273  0.2176
   69MOL   C17432950   5.852   6.287   5.407 -0.5113  0.8228  0.2306
   69MOL   O17532951   5.847   6.422   5.346 -0.1792  0.2671 -0.5313
   69MOL   C17632952   5.969   6.478   5.334 -0.0927 -0.4710  0.8958
   69MOL   O17732953   6.079   6.420   5.342 -0.2577  0.1017  0.7988
   69MOL   C17832954   5.958   6.623   5.293 -0.1253 -1.0701 -0.1368
   69MOL   C17932955   6.092   6.701   5.303  1.0038 -0.9728 -1.0263
   69MOL   C18032956   6.074   6.815   5.398 -0.3284 -0.0767  0.1166
   69MOL   O18132957   6.100   6.931   5.359 -0.4588  0.1481 -0.2011
   69MOL   H18232958   5.537   6.026   5.326 -1.4439 -0.6664  0.4430
   69MOL   H18332959   5.490   6.104   5.484  1.5136  3.7286 -1.7641
   69MOL   H18432960   5.773   6.028   5.390  1.5075  0.5186  0.9160
   69MOL   H18532961   5.740   6.089   5.548  1.3744 -0.5789 -1.2839
   69MOL   H18632962   5.648   6.291   5.471  0.7568 -0.0810  0.4753
   69MOL   H18732963   5.669   6.238   5.304 -2.3865 -1.7176  1.4414
   69MOL   H18832964   5.884   6.299   5.511  1.7286  1.6954 -0.5312
   69MOL   H18932965   5.919   6.215   5.359  0.3999  0.5732  1.8443
   69MOL   H19032966   5.885   6.668   5.361  0.1662 -0.3375 -0.3107
   69MOL   H19132967   5.930   6.627   5.188  0.2335  0.7100 -0.1853
   69MOL   H19232968   6.170   6.635   5.341  0.7963 -0.9617 -0.5871
   69MOL   H19332969   6.125   6.734   5.204 -0.6561 -0.0213 -1.2908
   69MOL   O19432970   6.041   6.781   5.520  0.2386 -0.0924 -0.1789
   69MOL   C19532971   6.058   6.873   5.626  0.0028 -0.7580 -0.7107
   69MOL   C19632972   5.915   6.938   5.653  0.0981 -0.1630 -0.0636
   69MOL   C19732973   5.924   7.057   5.744 -1.3071  0.0732 -0.7394
   69MOL   C19832974   5.778   7.106   5.757  0.5108  0.0199 -0.5328
   69MOL   O19932975   5.704   7.023   5.841 -0.2120 -0.1462 -0.3507
   69MOL   C20032976   5.716   7.045   5.967 -0.2591 -0.1608  0.0770
   69MOL   O20132977   5.791   7.131   6.023 -0.0530  0.1527  0.3766
   69MOL   C20232978   5.630   6.947   6.055  0.0675 -0.5546 -0.3130
   69MOL   C20332979   5.725   6.842   6.120  0.0290  0.7538 -0.2843
   69MOL   C20432980   5.777   6.873   6.267 -0.1611  0.6644 -0.0903
   69MOL   O20532981   5.745   6.978   6.324  0.4776  0.1561 -0.2655
   69MOL   H20632982   6.087   6.827   5.721  0.9735 -1.1527 -1.1919
   69MOL   H20732983   6.135   6.945   5.596  0.0538  0.0902  1.4199
   69MOL   H20832984   5.857   6.854   5.691  0.7134 -0.5664 -0.0093
   69MOL   H20932985   5.879   6.971   5.555  0.0661  3.3210  1.0951
   69MOL   H21032986   5.987   7.140   5.711  0.0228 -1.4431 -2.1065
   69MOL   H21132987   5.966   7.028   5.840 -1.3802 -1.3233 -1.1127
   69MOL   H21232988   5.776   7.208   5.796  0.1520  0.1401 -0.8625
   69MOL   H21332989   5.736   7.109   5.657  0.2630 -3.3020 -0.5700
   69MOL   H21432990   5.554   6.906   5.989 -0.0629  0.4002 -0.7708
   69MOL   H21532991   5.576   7.007   6.128  1.6638 -0.9807  1.2395
   69MOL   H21632992   5.678   6.744   6.118  1.0153  0.2482  0.9243
   69MOL   H21732993   5.815   6.838   6.059 -0.4860 -0.9821 -0.9488
   69MOL   O21832994   5.864   6.775   6.295 -0.0185  0.1111 -0.4108
   69MOL   C21932995   5.930   6.776   6.418  0.5657  0.1495 -0.1912
   69MOL   C22032996   6.021   6.653   6.430  0.0695  0.1664  0.1076
   69MOL   C22132997   6.092   6.645   6.563 -0.2620  0.1561  0.0835
   69MOL   C22232998   6.164   6.507   6.572 -0.0992 -0.5477 -0.3503
   69MOL   O22332999   6.076   6.409   6.609  0.5147  0.4973 -0.0503
   69MOL   C22433000   6.122   6.285   6.622  0.2426 -0.3404 -0.4819
   69MOL   O22533001   6.240   6.253   6.615 -0.5629 -0.0492  0.5273
   69MOL   C22633002   6.016   6.185   6.652 -0.7572  0.4907 -0.4660
   69MOL   C22733003   5.921   6.169   6.536  0.3480 -0.7470 -0.3824
   69MOL   C22833004   5.793   6.250   6.549 -0.2101  0.3846  0.2176
   69MOL   O22933005   5.693   6.200   6.604  0.0760  0.1511 -0.0950
   69MOL   H23033006   5.978   6.874   6.430 -1.0838  0.9165  0.3599
   69MOL   H23133007   5.859   6.766   6.501  0.7138 -0.8362 -0.1891
   69MOL   H23233008   6.098   6.658   6.353  1.5683  1.2456  1.6094
   69MOL   H23333009   5.957   6.567   6.414 -0.2211  0.5188 -0.6313
   69MOL   H23433010   6.030   6.675   6.647  0.6417  0.0830  0.7815
   69MOL   H23533011   6.171   6.717   6.585  1.0800 -0.8207 -1.3640
   69MOL   H23633012   6.205   6.482   6.475 -1.5951  0.2104 -1.2010
   69MOL   H23733013   6.241   6.504   6.649 -2.9670 -0.4915  2.6094
   69MOL   H23833014   5.966   6.221   6.742  0.1490 -1.9771  1.1025
   69MOL   H23933015   6.078   6.098   6.676 -0.3555  1.0242  0.4789
   69MOL   H24033016   5.975   6.193   6.444  0.5911  1.3792  0.2849
   69MOL   H24133017   5.886   6.066   6.525 -0.3575 -0.6035  0.4936
   69MOL   O24233018   5.807   6.371   6.497  0.2985  0.6354  0.0016
   69MOL   C24333019   5.696   6.462   6.499  0.0289  0.3398 -0.1797
   69MOL   C24433020   5.602   6.443   6.378 -0.4741 -0.1201 -0.0803
   69MOL   C24533021   5.485   6.536   6.373  0.2717 -0.5267  0.3896
   69MOL   C24633022   5.368   6.501   6.284 -0.3282  0.3977 -0.0829
   69MOL   O24733023   5.280   6.610   6.277  0.7946  0.3624  0.1971
   69MOL   C24833024   5.292   6.694   6.176 -0.0464 -0.1546 -0.0372
   69MOL   O24933025   5.382   6.691   6.091  0.0275 -0.3530 -0.4831
   69MOL   C25033026   5.176   6.775   6.173 -0.0770 -0.3700  0.2921
   69MOL   C25133027   5.175   6.874   6.052  0.5485  0.5325 -0.0322
   69MOL   C25233028   5.166   7.021   6.094  0.3573  0.0070  1.2779
   69MOL   O25333029   5.200   7.051   6.205  0.4104 -0.0271  0.0510
   69MOL   H25433030   5.646   6.459   6.595 -0.9540  0.9542 -0.6608
   69MOL   H25533031   5.722   6.566   6.481 -2.6352  1.0074 -0.4671
   69MOL   H25633032   5.574   6.338   6.373 -1.7739 -0.0448  4.0057
   69MOL   H25733033   5.673   6.471   6.300 -1.9872 -1.4452 -1.9831
   69MOL   H25833034   5.527   6.626   6.328  2.1120 -1.5800 -0.0134
   69MOL   H25933035   5.450   6.554   6.475  3.8128  2.6350  1.1620
   69MOL   H26033036   5.405   6.464   6.188  1.2502 -0.5018  0.8422
   69MOL   H26133037   5.314   6.423   6.338  2.3588  0.8105  3.3960
   69MOL   H26233038   5.171   6.828   6.268  2.6788 -0.0094  0.2749
   69MOL   H26333039   5.096   6.704   6.155 -1.2352  0.1714  3.0325
   69MOL   H26433040   5.272   6.864   6.003  1.2004 -1.0328  1.5284
   69MOL   H26533041   5.102   6.847   5.976 -0.9479  0.2786  1.4765
   69MOL   O26633042   5.118   7.101   5.990  0.1212 -0.1060 -0.0420
   69MOL   C26733043   5.110   7.240   6.010  0.1748 -0.0368  0.1701
   69MOL   C26833044   4.970   7.281   5.990 -0.0978 -0.0020 -0.2585
   69MOL   C26933045   4.939   7.430   6.026 -0.1338 -1.0061  0.4416
   69MOL   C27033046   4.789   7.472   6.029 -0.4088  0.3730 -0.1766
   69MOL   O27133047   4.702   7.418   6.124 -0.1983  0.1488 -0.0301
   69MOL   C27233048   4.688   7.482   6.239  0.3798 -0.0129 -0.0683
   69MOL   O27333049   4.763   7.569   6.278  0.1806 -0.0428 -0.1883
   69MOL   C27433050   4.568   7.445   6.320 -0.0278  0.1432  0.1980
   69MOL   C27533051   4.551   7.533   6.448  0.7985  0.0178 -0.4916
   69MOL   C27633052   4.597   7.467   6.576  0.1992 -0.2268  0.6956
   69MOL   O27733053   4.717   7.453   6.590 -0.6889  0.0436  0.4901
   69MOL   H27833054   5.142   7.279   6.106 -1.0329  1.0099  0.1621
   69MOL   H27933055   5.183   7.271   5.934  1.2944 -2.4636  0.1979
   69MOL   H28033056   4.918   7.206   6.050  0.4614 -0.7614 -0.7241
   69MOL   H28133057   4.941   7.268   5.886 -0.4212  0.5362 -0.2418
   69MOL   H28233058   4.983   7.495   5.951 -1.6167 -1.4199 -0.8212
   69MOL   H28333059   4.983   7.457   6.122  2.3034 -1.2084 -0.5858
   69MOL   H28433060   4.776   7.580   6.033  0.5772  0.4812  0.2671
   69MOL   H28533061   4.744   7.454   5.931  1.6653 -0.4931 -1.0195
   69MOL   H28633062   4.578   7.339   6.344 -0.2472  0.4307  1.5782
   69MOL   H28733063   4.480   7.459   6.257 -0.7235 -0.7185  0.9540
   69MOL   H28833064   4.609   7.624   6.433 -0.1075  0.9679  1.5268
   69MOL   H28933065   4.444   7.557   6.449  0.5840 -0.9273 -0.3822
   69MOL   O29033066   4.504   7.418   6.646  0.4165  0.4798 -0.3203
   69MOL   C29133067   4.537   7.355   6.772  0.7549 -0.6259 -0.2789
   69MOL   C29233068   4.458   7.224   6.791  0.6996  0.7416  0.5329
   69MOL   C29333069   4.309   7.257   6.782  0.4220  0.5572  0.2349
   69MOL   C29433070   4.222   7.132   6.823 -0.1284  0.6664  0.4706
   69MOL   O29533071   4.196   7.140   6.963 -0.6265 -0.4513 -0.2044
   69MOL   C29633072   4.218   7.031   7.044 -0.2863 -0.2399  0.7414
   69MOL   O29733073   4.283   6.931   7.008 -0.2920  0.0709 -0.1761
   69MOL   C29833074   4.160   7.033   7.184  0.0122 -0.6082  0.3681
   69MOL   C29933075   4.198   7.166   7.257  0.2641 -0.7068 -0.3880
   69MOL   C30033076   4.347   7.178   7.286  0.1272  0.2224  0.2069
   69MOL   O30133077   4.435   7.093   7.249  0.1647 -0.1308  0.1950
   69MOL   H30233078   4.646   7.351   6.783  0.8383  1.1929 -0.2131
   69MOL   H30333079   4.517   7.425   6.853  0.8408 -0.6003 -0.2799
   69MOL   H30433080   4.478   7.191   6.893 -1.4595  1.4641  1.2268
   69MOL   H30533081   4.492   7.140   6.731  1.2657  0.1565  1.6594
   69MOL   H30633082   4.282   7.283   6.680  0.4393 -1.2088 -0.2340
   69MOL   H30733083   4.270   7.342   6.838 -0.2751  0.5009 -0.1667
   69MOL   H30833084   4.127   7.127   6.771 -0.6601  1.3884  1.3582
   69MOL   H30933085   4.282   7.046   6.794 -1.1556  0.1179 -0.0091
   69MOL   H31033086   4.201   6.953   7.245  0.7189 -1.2540 -0.9422
   69MOL   H31133087   4.052   7.039   7.177  0.1694  0.4237 -1.5314
   69MOL   H31233088   4.167   7.259   7.209  3.5133  0.3992 -0.4558
   69MOL   H31333089   4.159   7.159   7.358 -0.0940 -3.2357 -0.6652
   69MOL   O31433090   4.382   7.301   7.344 -0.6913  0.5164  0.3791
   69MOL   C31533091   4.516   7.331   7.364 -0.1626 -0.4650 -0.0162
   69MOL   C31633092   4.554   7.464   7.292 -0.2919  0.8877 -0.2925
   69MOL   C31733093   4.535   7.461   7.142  0.1027 -0.8741  0.5933
   69MOL   C31833094   4.578   7.592   7.080 -0.7021  0.3721  0.1717
   69MOL   O31933095   4.714   7.616   7.093  0.4921  0.5696 -0.0316
   69MOL   C32033096   4.775   7.716   7.024  0.2322  0.4200 -0.5296
   69MOL   O32133097   4.718   7.786   6.941 -0.0613  0.1678  0.9145
   69MOL   C32233098   4.916   7.741   7.062  0.4794  0.0338 -0.3916
   69MOL   C32333099   4.933   0.025   7.047 -0.6939  0.0680 -0.3588
   69MOL   C32433100   5.023   0.068   7.160 -0.3325  0.5301  0.6253
   69MOL   O32533101   4.976   0.141   7.250  0.0176  0.0069  0.1967
   69MOL   H32633102   4.519   7.344   7.472  2.2649 -0.4841 -0.0539
   69MOL   H32733103   4.579   7.247   7.332 -2.9183 -2.5399 -0.1813
   69MOL   H32833104   4.662   7.469   7.307  0.0235 -2.0899 -1.2116
   69MOL   H32933105   4.494   7.540   7.342 -1.2483 -0.9814  1.4896
   69MOL   H33033106   4.430   7.451   7.114  0.1089  0.7505 -0.0466
   69MOL   H33133107   4.591   7.378   7.100  2.5474  0.8808  0.2661
   69MOL   H33233108   4.567   7.583   6.972  1.7238  0.7436 -0.1363
   69MOL   H33333109   4.512   7.671   7.115  0.1380  1.1692 -0.0191
   69MOL   H33433110   4.987   7.687   6.998  1.9097  1.0065  0.3278
   69MOL   H33533111   4.937   7.698   7.160  0.6637 -0.5629 -0.6885
   69MOL   H33633112   4.988   0.043   6.954  0.9794 -0.2308  0.5522
   69MOL   H33733113   4.838   0.079   7.040  0.6650  2.7847  1.2055
   69MOL   O33833114   5.139   0.017   7.151 -0.7512  0.3812 -0.1985
   69MOL   C33933115   5.239   0.035   7.248  0.1117 -0.4022  0.5983
   69MOL   C34033116   5.365   7.834   7.217  0.2584  0.0590 -0.6123
   69MOL   C34133117   5.445   0.012   7.105  0.2649 -0.0326  0.5283
   69MOL   C34233118   5.569   7.805   7.092  0.3557 -0.5404  0.1019
   69MOL   O34333119   5.636   7.817   6.970  0.2844 -0.4331  0.1211
   69MOL   C34433120   5.590   7.753   6.862  0.1715  0.4985  0.6477
   69MOL   O34533121   5.519   7.654   6.855 -0.2370 -0.4818 -0.3235
   69MOL   C34633122   5.671   7.790   6.738  0.5570  0.8754 -0.4044
   69MOL   C34733123   5.640   7.708   6.609  0.3608  0.0717  0.4150
   69MOL   C34833124   5.725   7.582   6.593  1.0761 -0.1284 -0.1249
   69MOL   O34933125   5.820   7.555   6.667  0.0551  0.2132 -0.3805
   69MOL   H35033126   5.264   0.141   7.241  0.0848 -0.4490 -0.2371
   69MOL   H35133127   5.195   0.015   7.346 -1.7562  2.8783  0.4798
   69MOL   H35233128   5.339   7.732   7.188 -1.5543 -0.0883  1.4049
   69MOL   H35333129   5.430   7.835   7.305 -0.6899  2.4599  0.1045
   69MOL   H35433130   5.467   0.117   7.121 -1.8750  0.4533  0.5320
   69MOL   H35533131   5.385   0.004   7.014 -0.3459  0.2326  0.9028
   69MOL   H35633132   5.638   7.833   7.171  0.7625  2.0503 -1.1146
   69MOL   H35733133   5.548   7.701   7.117 -0.4224 -0.2415  0.7034
   69MOL   H35833134   5.774   7.784   6.773  0.2674  0.3681  0.3982
   69MOL   H35933135   5.641   0.016   6.710  0.1102  0.4106 -1.6065
   69MOL   H36033136   5.540   7.666   6.607 -0.0548  1.0545 -3.4842
   69MOL   H36133137   5.645   7.765   6.516  1.7724  0.9837  1.0270
   69MOL   O36233138   5.699   7.521   6.482  0.5795 -0.2462  0.0408
   69MOL   C36333139   5.757   7.396   6.446 -1.3563  0.4636  0.9093
   69MOL   C36433140   5.644   7.290   6.450 -0.4703  0.1823 -0.1662
   69MOL   C36533141   5.546   7.313   6.331 -0.1014 -0.2475  1.0762
   69MOL   C36633142   5.415   7.240   6.347 -0.1936  0.4405  0.2533
   69MOL   O36733143   5.336   7.285   6.448 -0.0246 -0.2711 -0.3310
   69MOL   C36833144   5.224   7.353   6.434 -0.1478 -0.5539 -0.0495
   69MOL   O36933145   5.166   7.374   6.328 -0.2040 -0.2334 -0.5356
   69MOL   C37033146   5.192   7.423   6.564  0.1462 -0.4479 -0.0909
   69MOL   C37133147   5.048   7.479   6.571 -0.4474  0.2104 -0.4603
   69MOL   C37233148   5.050   7.628   6.555 -0.4746  0.0212  0.2514
   69MOL   O37333149   5.064   7.698   6.655  0.1116 -0.0594  0.1165
   69MOL   H37433150   5.796   7.395   6.344  1.3639 -2.4782  1.8969
   69MOL   H37533151   5.840   7.365   6.510 -0.9556  0.9559  0.6319
   69MOL   H37633152   5.588   7.315   6.540  1.7769  0.5549  1.1810
   69MOL   H37733153   5.679   7.187   6.455  0.7402  0.6606  2.0068
   69MOL   H37833154   5.584   7.288   6.232 -0.5478 -1.1388  1.1240
   69MOL   H37933155   5.535   7.420   6.314 -1.4800 -0.6409 -0.5691
   69MOL   H38033156   5.358   7.252   6.256  0.8096  2.5150 -0.1348
   69MOL   H38133157   5.435   7.136   6.372 -0.7202  0.7278  1.9477
   69MOL   H38233158   5.268   7.501   6.578 -2.3100  2.1225 -0.5133
   69MOL   H38333159   5.218   7.351   6.641  0.2468  1.0352  1.3084
   69MOL   H38433160   4.979   7.443   6.494 -1.2958  1.7047 -0.4046
   69MOL   H38533161   4.990   7.455   6.660 -0.4400  1.8767 -0.0088
   69MOL   O38633162   5.023   7.664   6.426 -0.0493 -0.2865  0.3990
   69MOL   C38733163   5.037   7.800   6.399 -0.6126  0.7023  0.3146
   69MOL   C38833164   4.990   7.826   6.254 -0.8364 -0.1967 -0.3423
   69MOL   C38933165   5.018   0.100   6.211  0.2118 -0.6065  0.2242
   69MOL   C39033166   4.935   0.140   6.087 -0.1552 -0.3448 -0.5743
   69MOL   O39133167   4.942   0.062   5.972 -0.5712 -0.1947  0.0225
   69MOL   C39233168   4.839   0.030   5.900  1.2132  0.1079  0.2281
   69MOL   O39333169   4.731   0.092   5.905 -0.3330  0.3045 -0.8303
   69MOL   C39433170   4.861   7.798   5.800 -0.0795  0.0104  0.2920
   69MOL   C39533171   4.734   7.763   5.716  0.0279  0.2219 -0.1009
   69MOL   C39633172   4.717   7.612   5.707 -0.1858  0.4507  0.4219
   69MOL   O39733173   4.617   7.551   5.754  1.0057 -0.1715 -0.0278
   69MOL   H39833174   4.974   7.859   6.466 -0.2918  0.0842  1.1641
   69MOL   H39933175   5.140   7.837   6.409 -0.8681  0.8606  2.4619
   69MOL   H40033176   4.883   7.806   6.258 -0.7937 -0.4969 -0.7482
   69MOL   H40133177   5.038   7.759   6.183  3.0075  1.5777  0.4587
   69MOL   H40233178   5.126   0.113   6.199  0.5826 -0.5466  3.1305
   69MOL   H40333179   4.994   0.178   6.284  0.4404 -1.9095  1.7336
   69MOL   H40433180   4.833   0.151   6.123 -0.2474  1.2483 -1.2744
   69MOL   H40533181   4.965   0.243   6.067 -0.2007 -0.0055  1.0812
   69MOL   H40633182   4.894   7.712   5.858  0.2516 -0.5709 -0.7382
   69MOL   H40733183   4.944   7.814   5.732  0.0294 -0.8231  0.2131
   69MOL   H40833184   4.647   7.800   5.770 -1.4938 -0.5686 -1.9745
   69MOL   H40933185   4.730   7.806   5.616  1.5296 -2.1508 -1.2326
   69MOL   O41033186   4.817   7.559   5.651 -0.1333 -0.1592  0.3995
   69MOL   C41133187   4.818   7.416   5.638 -0.3150  0.4119 -0.3491
   69MOL   C41233188   4.941   7.347   5.586 -0.5014  0.1064  0.1906
   69MOL   C41333189   4.915   7.192   5.590 -0.7285  0.5585 -0.1577
   69MOL   C41433190   4.970   7.119   5.463  0.1051  0.3240  0.0124
   69MOL   O41533191   5.111   7.123   5.470  0.1180 -0.3997 -0.3728
   69MOL   C41633192   5.186   7.067   5.377 -0.5475  0.2382  0.2614
   69MOL   O41733193   5.140   7.007   5.276  0.1028 -0.0667 -0.0463
   69MOL   C41833194   5.339   7.084   5.392 -0.3324 -0.7563  0.9383
   69MOL   C41933195   5.423   7.080   5.264 -0.5654  0.3133 -0.2407
   69MOL   C42033196   5.574   7.074   5.299  0.2444 -0.1258  1.1603
   69MOL   O42133197   5.631   7.147   5.376  0.4510 -0.2848  0.3090
   69MOL   H42233198   4.802   7.364   5.732  0.1311 -1.2989 -1.2132
   69MOL   H42333199   4.734   7.377   5.581 -0.9278 -2.3871  2.3403
   69MOL   H42433200   5.034   7.379   5.633 -0.2978  0.0502 -0.1739
   69MOL   H42533201   4.945   7.375   5.481  1.9715 -2.6768 -0.5123
   69MOL   H42633202   4.810   7.171   5.612 -1.5291  3.3286 -1.1723
   69MOL   H42733203   4.958   7.151   5.682 -0.2472  0.7002 -0.3217
   69MOL   H42833204   4.946   7.012   5.464 -1.0952  0.5756 -0.3650
   69MOL   H42933205   4.929   7.156   5.370 -0.1736  0.5689  0.2320
   69MOL   H43033206   5.364   6.996   5.451  0.2538 -0.1537  1.5925
   69MOL   H43133207   5.366   7.179   5.439 -0.6628 -0.5587  0.7375
   69MOL   H43233208   5.393   6.989   5.212 -1.3132  1.6206 -2.1542
   69MOL   H43333209   5.399   7.160   5.194  2.5225  1.6056  0.0756
   69MOL   O43433210   5.629   6.987   5.217  0.2911 -0.7011 -0.2321
   69MOL   C43533211   5.774   6.969   5.216 -0.4853  0.3326 -0.3669
   69MOL   C43633212   5.838   6.968   5.077  0.0786  0.4343  0.8004
   69MOL   C43733213   5.830   7.107   5.010  0.0628 -0.0793  0.4543
   69MOL   C43833214   5.885   7.115   4.868 -0.0717 -0.3234  0.3774
   69MOL   O43933215   5.843   7.235   4.808 -0.0915  0.0103  0.2372
   69MOL   C44033216   5.907   7.353   4.830  0.1838 -0.1862  0.1073
   69MOL   O44133217   6.013   7.358   4.887 -0.6044 -0.1087 -0.2041
   69MOL   C44233218   5.826   7.474   4.772 -0.3720 -0.3698  0.1997
   69MOL   C44333219   5.862   7.616   4.820 -0.2024  0.7275  0.2854
   69MOL   C44433220   5.978   7.669   4.738 -0.1525 -0.0250 -0.6920
   69MOL   O44533221   5.998   7.620   4.629 -0.0977  0.2112  0.0724
   69MOL   H44633222   5.822   7.038   5.285  0.2205  2.7458 -3.1534
   69MOL   H44733223   5.796   6.874   5.265 -0.5779 -0.8604 -2.5402
   69MOL   H44833224   5.788   6.891   5.019  0.3696 -0.2067  1.3916
   69MOL   H44933225   5.940   6.930   5.087  1.0296  2.6674 -0.0913
   69MOL   H45033226   5.873   7.191   5.064  0.1793 -0.3110  0.7260
   69MOL   H45133227   5.723   7.121   5.000 -0.1590  0.1679  3.0070
   69MOL   H45233228   5.992   7.096   4.861 -0.2082 -1.1103  0.4312
   69MOL   H45333229   5.842   7.023   4.828 -0.3969  0.3462 -0.8635
   69MOL   H45433230   5.724   7.467   4.811  0.0987  1.4424  1.8307
   69MOL   H45533231   5.816   7.471   4.663  1.5128  0.3980 -0.0012
   69MOL   H45633232   5.785   7.692   4.814 -0.5989  0.6034  3.1203
   69MOL   H45733233   5.893   7.614   4.925 -1.9211  1.1282  0.8014
   69MOL   O45833234   6.045   7.771   4.805  0.1785 -0.1858  0.7385
   69MOL   C45933235   6.148   7.840   4.739 -0.0291  0.4195  0.3771
   69MOL   C46033236   6.095   0.083   4.655  0.2314  0.1031  0.0635
   69MOL   C46133237   6.101   0.066   4.507  0.5478  0.5747  0.4132
   69MOL   C46233238   6.037   0.181   4.421  0.2365 -0.0896  0.6178
   69MOL   O46333239   5.905   0.200   4.470  0.1626  0.2237  0.2250
   69MOL   C46433240   5.808   0.107   4.455  0.1936 -0.7062  0.4020
   69MOL   O46533241   5.820   0.006   4.378 -0.3431 -0.7496  0.1912
   69MOL   C46633242   5.677   0.140   4.523 -0.5233 -0.0002  0.4033
   69MOL   C46733243   5.553   0.049   4.495 -0.1876  0.2437 -0.4850
   69MOL   C46833244   5.549   7.800   4.586 -0.1773  0.5908  0.0137
   69MOL   O46933245   5.607   7.795   4.696  0.6951 -0.9216  0.6043
   69MOL   H47033246   6.232   7.868   4.803  0.4978  1.4940 -0.7862
   69MOL   H47133247   6.205   7.774   4.673  1.2901  1.3150  0.6067
   69MOL   H47233248   6.143   0.177   4.683 -1.1221  1.3452 -1.6332
   69MOL   H47333249   5.994   0.111   4.682 -0.2065 -0.1942 -1.2062
   69MOL   H47433250   6.061   7.842   4.483  0.5121  1.0035 -1.3474
   69MOL   H47533251   6.206   0.055   4.479  0.3160  1.3039 -0.7633
   69MOL   H47633252   6.089   0.276   4.407 -1.2210  0.7502  0.7923
   69MOL   H47733253   6.036   0.140   4.320  2.4781 -0.1512  0.6050
   69MOL   H47833254   5.646   0.241   4.497 -0.1054 -0.1987 -0.8784
   69MOL   H47933255   5.693   0.147   4.631  0.6717 -2.4884  0.4148
   69MOL   H48033256   5.454   0.092   4.509 -0.7497 -1.2675  0.2850
   69MOL   H48133257   5.550   0.028   4.388 -0.5445 -0.0436 -0.4156
   69MOL   H48233258   5.496   7.718   4.538  0.8206  0.8541 -1.5541
   70MOL     O133259   5.746   4.487   1.210 -0.1982 -0.3818  0.3902
   70MOL     C233260   5.848   4.425   1.138  0.1695  0.3937 -0.1770
   70MOL     C333261   5.969   4.510   1.115  0.2411  0.2687 -0.3662
   70MOL     C433262   6.091   4.439   1.047  0.4947  0.1322 -0.0720
   70MOL     C533263   6.227   4.508   1.062 -0.0595 -0.1770  0.8392
   70MOL     O633264   6.237   4.645   1.015  0.1815  0.7999  0.0204
   70MOL     C733265   6.273   4.670   0.887  0.6209 -0.0713 -0.4554
   70MOL     O833266   6.301   4.589   0.797  0.2996 -0.0012 -0.4949
   70MOL     C933267   6.276   4.818   0.859  0.0332 -0.0631 -0.1650
   70MOL    C1033268   6.139   4.887   0.865  0.2272  0.2601 -0.1594
   70MOL    C1133269   6.139   4.982   0.983 -0.2858  0.4495  0.2229
   70MOL    O1233270   6.196   5.090   0.980 -0.0489 -0.0880 -0.1121
   70MOL    H1333271   5.882   4.349   1.209 -2.4323 -0.6105  0.0589
   70MOL    H1433272   5.821   4.385   1.040  0.4649  1.2064 -0.5927
   70MOL    H1533273   5.992   4.529   1.220 -2.0605 -1.2587  0.4571
   70MOL    H1633274   5.945   4.605   1.068  3.3921  1.3563  0.1353
   70MOL    H1733275   6.089   4.425   0.939 -1.4532 -0.0478 -0.0331
   70MOL    H1833276   6.098   4.338   1.086  1.3758 -0.6235 -2.1070
   70MOL    H1933277   6.263   4.509   1.165  0.6761 -1.1969  0.6079
   70MOL    H2033278   6.306   4.445   1.020 -0.1752  1.2209 -1.5465
   70MOL    H2133279   6.318   4.819   0.759  0.1939 -0.5130 -0.1047
   70MOL    H2233280   6.354   4.871   0.914 -0.6401  0.2727  0.4819
   70MOL    H2333281   6.118   4.937   0.771 -0.3970 -1.4499 -0.9574
   70MOL    H2433282   6.055   4.821   0.885 -0.3438  1.9305  3.3994
   70MOL    H2533283   5.690   4.544   1.160 -0.3120  1.1258  2.1749
   70MOL    O2633284   6.073   4.937   1.094 -0.4543  0.0483  0.1761
   70MOL    C2733285   6.076   5.022   1.214 -0.2440  0.4852  0.4536
   70MOL    C2833286   6.036   4.945   1.334 -0.9312  0.7874  0.0077
   70MOL    C2933287   5.876   4.945   1.350 -0.5776 -0.2477 -0.4454
   70MOL    C3033288   5.828   5.008   1.483  0.0322 -0.1099  0.3376
   70MOL    O3133289   5.685   4.993   1.479 -0.6937 -0.4466  0.0884
   70MOL    C3233290   5.606   5.085   1.447  0.4207 -0.6891 -0.5145
   70MOL    O3333291   5.636   5.202   1.421  0.2332  0.1504  0.3543
   70MOL    C3433292   5.464   5.046   1.430  0.0714 -0.2131 -0.0539
   70MOL    C3533293   5.457   4.969   1.300  0.1763 -0.9948  0.1522
   70MOL    C3633294   5.307   4.944   1.250  0.0467  0.0781 -0.2333
   70MOL    O3733295   5.268   4.836   1.205 -0.2114  0.5775  0.2087
   70MOL    H3833296   6.170   5.073   1.233 -0.6674  1.1106  0.8579
   70MOL    H3933297   6.009   5.107   1.207 -1.1088 -0.0812  1.6547
   70MOL    H4033298   6.071   5.003   1.420  1.6177 -1.5801  0.6334
   70MOL    H4133299   6.084   4.847   1.338 -1.3663  0.6225  2.9491
   70MOL    H4233300   5.840   4.843   1.342  2.6459 -1.3269 -2.2733
   70MOL    H4333301   5.825   5.005   1.275  0.4997 -1.1634 -1.9331
   70MOL    H4433302   5.870   4.956   1.569 -0.9846  0.7897  1.3944
   70MOL    H4533303   5.858   5.112   1.495  0.7558  0.0064 -2.1611
   70MOL    H4633304   5.395   5.130   1.423 -0.1076 -0.1661  2.1069
   70MOL    H4733305   5.437   4.983   1.514 -0.2761 -0.5425 -0.4106
   70MOL    H4833306   5.522   5.015   1.225 -0.9929  1.4930  0.6461
   70MOL    H4933307   5.497   4.868   1.312  0.3983 -1.1819 -1.8657
   70MOL    O5033308   5.231   5.053   1.258  0.3740 -0.3977 -0.3974
   70MOL    C5133309   5.090   5.053   1.226 -0.0099  1.2232 -0.7691
   70MOL    C5233310   5.045   5.199   1.225  0.1862  0.0451  1.1361
   70MOL    C5333311   5.061   5.282   1.356 -0.3213 -0.5382  0.3965
   70MOL    C5433312   4.995   5.421   1.340  0.0295  0.2060  0.2414
   70MOL    O5533313   4.991   5.492   1.460  0.1980  0.4840 -0.2554
   70MOL    C5633314   4.957   5.621   1.457 -0.1588  0.5624 -0.0772
   70MOL    O5733315   4.893   5.675   1.366  0.2935 -0.4076  0.0140
   70MOL    C5833316   4.994   5.694   1.585 -0.2961  0.1086  0.6731
   70MOL    C5933317   4.988   5.606   1.714  0.8364  0.0830 -0.1890
   70MOL    C6033318   4.849   5.549   1.739 -0.3375  0.4832 -0.2096
   70MOL    O6133319   4.756   5.605   1.689  0.4804 -0.2730  0.2135
   70MOL    H6233320   5.083   5.005   1.129  0.1035  0.5873 -0.4671
   70MOL    H6333321   5.033   4.993   1.297 -0.1241  2.3808  0.1437
   70MOL    H6433322   4.941   5.197   1.195 -0.2043  0.7625  2.3715
   70MOL    H6533323   5.095   5.256   1.147 -1.2095  2.6375  2.0624
   70MOL    H6633324   5.164   5.280   1.392 -0.1061 -0.7103 -0.2162
   70MOL    H6733325   5.003   5.235   1.435 -2.2341 -0.0216 -0.6713
   70MOL    H6833326   5.044   5.479   1.262  0.2840 -1.8750 -1.1844
   70MOL    H6933327   4.896   5.407   1.298  1.4622 -0.2722 -3.1143
   70MOL    H7033328   4.932   5.782   1.603 -1.6040 -0.6798  0.0163
   70MOL    H7133329   5.099   5.725   1.579  0.0445 -1.4518 -2.8595
   70MOL    H7233330   5.069   5.533   1.709  1.7190  1.0410 -0.0449
   70MOL    H7333331   5.020   5.672   1.794  1.5747 -1.1354  0.5380
   70MOL    O7433332   4.855   5.440   1.808 -0.0340 -0.2613  0.3188
   70MOL    C7533333   4.737   5.362   1.825 -0.1011 -0.0522 -0.1779
   70MOL    C7633334   4.707   5.261   1.713  0.3332  0.2636 -0.4090
   70MOL    C7733335   4.817   5.157   1.688 -0.0913 -0.3939  0.2051
   70MOL    C7833336   4.774   5.040   1.606  0.7254  0.1295  0.3460
   70MOL    O7933337   4.740   5.089   1.474 -0.3199 -0.2554  0.0083
   70MOL    C8033338   4.628   5.050   1.424 -0.5050  0.7390  0.1640
   70MOL    O8133339   4.540   4.988   1.475 -0.1187  0.4455 -0.3292
   70MOL    C8233340   4.605   5.085   1.276  0.0021 -0.7678  0.5833
   70MOL    C8333341   4.500   5.200   1.274 -0.2163  0.8491 -0.4306
   70MOL    C8433342   4.556   5.338   1.301  0.0689  0.3985  0.6605
   70MOL    O8533343   4.622   5.396   1.217  0.0976  0.0647 -0.7238
   70MOL    H8633344   4.736   5.307   1.919 -0.8919 -2.0114 -1.2946
   70MOL    H8733345   4.655   5.432   1.843  1.0355  0.4379  3.5643
   70MOL    H8833346   4.699   5.314   1.618  3.3910 -0.3235 -1.0288
   70MOL    H8933347   4.613   5.207   1.726  1.5159 -1.3477  1.7237
   70MOL    H9033348   4.848   5.117   1.785 -2.3038 -2.8799 -0.0625
   70MOL    H9133349   4.906   5.193   1.636 -0.4045  1.0849  0.6726
   70MOL    H9233350   4.840   4.955   1.589  1.4920  1.1560 -2.0011
   70MOL    H9333351   4.688   4.995   1.655  0.3496  0.9248  0.4202
   70MOL    H9433352   4.563   5.000   1.222 -1.1235  0.7194 -0.9826
   70MOL    H9533353   4.700   5.113   1.232 -0.7783 -0.9533 -1.2799
   70MOL    H9633354   4.444   5.210   1.181 -0.4874 -3.6361 -0.9027
   70MOL    H9733355   4.430   5.177   1.355  2.7003 -0.0663  1.9180
   70MOL    O9833356   4.510   5.390   1.420  0.7048  0.2227 -0.3128
   70MOL    C9933357   4.554   5.523   1.448  0.0287 -0.6427 -0.7895
   70MOL   C10033358   4.449   5.612   1.517  0.3893 -0.2457  0.0410
   70MOL   C10133359   4.327   5.650   1.442  0.6410  0.4198  0.7126
   70MOL   C10233360   4.353   5.761   1.336 -0.4380  0.8556  0.4274
   70MOL   O10333361   4.435   5.711   1.236  0.4102  0.2603  0.3729
   70MOL   C10433362   4.483   5.783   1.147 -0.8637 -0.0900  1.0518
   70MOL   O10533363   4.499   5.910   1.142  0.2056 -0.0226 -0.3722
   70MOL   C10633364   4.533   5.691   1.033  0.3992 -0.2875 -0.7464
   70MOL   C10733365   4.428   5.638   0.936  0.2612 -0.4550  0.2127
   70MOL   C10833366   4.384   5.496   0.958 -0.6644  0.1803  0.0319
   70MOL   O10933367   4.285   5.471   1.027 -0.4529  0.0929  0.2048
   70MOL   H11033368   4.641   5.526   1.514 -0.8057  1.1352  0.2592
   70MOL   H11133369   4.589   5.577   1.359 -0.4663 -0.0004 -0.5986
   70MOL   H11233370   4.509   5.703   1.528 -0.9926  0.5517  1.1144
   70MOL   H11333371   4.422   5.574   1.615  3.6948 -0.1821  1.0441
   70MOL   H11433372   4.255   5.693   1.511  0.1541 -0.2154  0.6048
   70MOL   H11533373   4.272   5.568   1.397 -1.0153  0.8875  1.8222
   70MOL   H11633374   4.259   5.789   1.290 -1.8018  0.2316  2.7664
   70MOL   H11733375   4.399   5.846   1.387 -1.5900  1.7140  0.0367
   70MOL   H11833376   4.589   5.609   1.077  0.7103  0.0310 -0.5394
   70MOL   H11933377   4.609   5.753   0.985  1.8117 -1.1668  0.3103
   70MOL   H12033378   4.341   5.703   0.933  1.0105  0.5778  0.5004
   70MOL   H12133379   4.451   5.645   0.829  0.0355  4.1136  0.3909
   70MOL   O12233380   4.446   5.406   0.879 -0.6960  0.0684 -0.6501
   70MOL   C12333381   4.403   5.269   0.869 -0.2501 -0.0032 -0.5289
   70MOL   C12433382   4.511   5.186   0.801 -0.6748  0.8151  0.3795
   70MOL   C12533383   4.614   5.165   0.908 -0.4880  0.5342  0.0552
   70MOL   C12633384   4.746   5.110   0.852 -0.2784  0.4554 -0.1067
   70MOL   O12733385   4.747   4.965   0.848 -0.7258 -0.7289  0.3029
   70MOL   C12833386   4.803   4.887   0.946  0.2521  0.5501 -0.2146
   70MOL   O12933387   4.858   4.939   1.044 -0.9276  0.1201 -0.1039
   70MOL   C13033388   4.790   4.741   0.931  0.1329 -0.2900 -0.5825
   70MOL   C13133389   4.889   4.659   1.006 -0.3113 -0.2475  0.1626
   70MOL   C13233390   4.829   4.591   1.137 -0.1028  0.6728  0.4517
   70MOL   O13333391   4.785   4.479   1.135 -0.0643  0.4937 -0.6697
   70MOL   H13433392   4.373   5.224   0.963  4.4293 -0.7936  0.7110
   70MOL   H13533393   4.312   5.260   0.810 -1.4109  0.0947  1.2011
   70MOL   H13633394   4.557   5.235   0.715 -0.2570 -2.2061 -1.1659
   70MOL   H13733395   4.474   5.090   0.768  0.1349 -0.3432  2.7179
   70MOL   H13833396   4.571   5.092   0.976 -1.3633  0.9551 -0.0493
   70MOL   H13933397   4.636   5.256   0.963 -0.1461  0.6622 -0.2890
   70MOL   H14033398   4.759   5.152   0.752 -0.5243  3.1488  0.9465
   70MOL   H14133399   4.835   5.145   0.903  0.9401  0.8181 -2.4147
   70MOL   H14233400   4.799   4.732   0.823 -1.2818  0.3186 -0.7600
   70MOL   H14333401   4.689   4.712   0.961  0.3505 -1.7365 -1.1769
   70MOL   H14433402   4.930   4.582   0.941 -0.7345 -1.9689  1.8748
   70MOL   H14533403   4.976   4.719   1.034  0.5796 -3.1687  4.0646
   70MOL   O14633404   4.834   4.677   1.244 -0.8374 -1.0964 -0.1679
   70MOL   C14733405   4.769   4.648   1.363 -0.6247 -0.4704 -0.5295
   70MOL   C14833406   4.849   4.697   1.487 -0.0582  0.3399 -0.3900
   70MOL   C14933407   4.759   4.668   1.612 -0.2979 -0.1037  0.4368
   70MOL   C15033408   4.836   4.663   1.744  0.3660 -0.1000 -0.6861
   70MOL   O15133409   4.893   4.791   1.785  0.4879  0.8672  0.7002
   70MOL   C15233410   5.006   4.786   1.859  0.3540 -0.0114 -0.1790
   70MOL   O15333411   5.053   4.685   1.915 -0.1748 -0.0452  0.3329
   70MOL   C15433412   5.057   4.922   1.887  0.2025 -0.5091  0.8792
   70MOL   C15533413   5.131   4.990   1.770  0.1303  0.5931 -0.8306
   70MOL   C15633414   5.184   5.122   1.808  0.5523  0.2636 -0.0414
   70MOL   O15733415   5.207   5.143   1.930 -0.4547 -0.7194  0.4484
   70MOL   H15833416   4.674   4.702   1.362  0.0454  0.7611 -3.3445
   70MOL   H15933417   4.745   4.542   1.375 -0.0401 -0.1874  3.7276
   70MOL   H16033418   4.880   4.801   1.480 -0.3909  0.4344 -0.4755
   70MOL   H16133419   4.944   4.644   1.491 -0.7589 -0.9288 -0.0239
   70MOL   H16233420   4.711   4.570   1.610 -0.4972 -0.0032  0.2182
   70MOL   H16333421   4.679   4.741   1.621 -0.2231  0.2408 -1.5154
   70MOL   H16433422   4.758   4.636   1.815  1.8151 -2.5190  0.0457
   70MOL   H16533423   4.903   4.576   1.749  0.9003  0.4005  1.3387
   70MOL   H16633424   5.130   4.911   1.967 -2.2351  1.1091  3.4212
   70MOL   H16733425   4.977   4.988   1.921  1.6297  2.6532 -1.6285
   70MOL   H16833426   5.220   4.932   1.746 -0.7172 -0.7107 -0.8619
   70MOL   H16933427   5.068   5.010   1.684 -0.2515 -1.4376 -1.0443
   70MOL   O17033428   5.218   5.199   1.706  0.5886  0.5705 -0.1657
   70MOL   C17133429   5.285   5.322   1.731  0.3116 -0.2028 -0.1069
   70MOL   C17233430   5.316   5.396   1.599  0.0303  0.1839 -0.7254
   70MOL   C17333431   5.434   5.489   1.606  0.4316 -0.4232 -0.2642
   70MOL   C17433432   5.412   5.608   1.699  0.4794 -0.7129  0.2285
   70MOL   O17533433   5.407   5.559   1.829  0.3631 -0.5810 -0.2783
   70MOL   C17633434   5.386   5.649   1.920 -0.2687 -0.0757 -0.5561
   70MOL   O17733435   5.361   5.768   1.896 -0.1073  0.3172 -0.3309
   70MOL   C17833436   5.373   5.591   2.061  0.0163  0.4363 -0.1766
   70MOL   C17933437   5.502   5.513   2.087 -0.0879  0.5656  0.2583
   70MOL   C18033438   5.519   5.469   2.233 -0.5350  0.7799 -0.2919
   70MOL   O18133439   5.632   5.481   2.285  0.1657  0.3186 -0.0823
   70MOL   H18233440   5.221   5.382   1.796  0.0031  1.0479 -1.5547
   70MOL   H18333441   5.369   5.311   1.800  0.0100 -0.4442  0.2237
   70MOL   H18433442   5.230   5.446   1.557  1.0488  1.9827 -0.7154
   70MOL   H18533443   5.338   5.321   1.523  0.8940  0.8125 -1.1095
   70MOL   H18633444   5.452   5.531   1.506 -0.7442 -0.9053 -0.6803
   70MOL   H18733445   5.523   5.431   1.630 -0.5976 -1.2893  1.4979
   70MOL   H18833446   5.488   5.686   1.692  0.8639 -1.2116 -1.3684
   70MOL   H18933447   5.317   5.648   1.665  1.3186  0.5334 -0.7125
   70MOL   H19033448   5.292   5.519   2.050 -0.7230  0.9584  1.6866
   70MOL   H19133449   5.352   5.669   2.134  1.8798  0.8589 -0.0722
   70MOL   H19233450   5.519   5.435   2.013  0.9493 -0.6719  1.7637
   70MOL   H19333451   5.587   5.581   2.079 -0.3857  0.9522  0.3126
   70MOL   O19433452   5.402   5.426   2.291 -0.4600  0.0291 -0.5228
   70MOL   C19533453   5.403   5.380   2.425 -0.3304 -0.4706  0.2144
   70MOL   C19633454   5.443   5.238   2.435 -0.6924 -0.1571  0.3744
   70MOL   C19733455   5.351   5.149   2.349  0.3051 -0.8688  0.1420
   70MOL   C19833456   5.372   4.998   2.329 -0.4002 -0.3509  0.3673
   70MOL   O19933457   5.373   4.936   2.453  0.0867  0.2853  0.4158
   70MOL   C20033458   5.261   4.919   2.530 -0.2226  0.1626  0.2060
   70MOL   O20133459   5.157   4.965   2.500  0.2399 -0.4585 -0.0053
   70MOL   C20233460   5.289   4.864   2.671 -0.2041  0.5108 -0.4033
   70MOL   C20333461   5.392   4.952   2.744 -0.3780 -0.4087 -0.8223
   70MOL   C20433462   5.337   5.062   2.834 -0.2980  0.4880  0.1377
   70MOL   O20533463   5.340   5.049   2.953  0.9588 -0.1650 -0.1906
   70MOL   H20633464   5.468   5.441   2.488  0.8679  0.8613 -2.2260
   70MOL   H20733465   5.302   5.402   2.460 -0.3489  0.0140 -0.1224
   70MOL   H20833466   5.433   5.216   2.542  2.3844 -1.6330  0.4139
   70MOL   H20933467   5.544   5.225   2.395 -1.0855 -1.4867 -0.2147
   70MOL   H21033468   5.354   5.200   2.253 -0.7483 -1.2424 -0.0908
   70MOL   H21133469   5.247   5.166   2.377 -0.4546 -1.5103 -2.1739
   70MOL   H21233470   5.294   4.944   2.276  0.3249 -0.9086 -0.1405
   70MOL   H21333471   5.471   4.988   2.284 -1.3494  0.6703 -2.0426
   70MOL   H21433472   5.314   4.758   2.667  1.5491  0.9251 -0.7545
   70MOL   H21533473   5.193   4.860   2.723 -0.6057  0.0106 -1.1672
   70MOL   H21633474   5.458   4.891   2.806  0.2426  2.2081  1.1803
   70MOL   H21733475   5.469   4.998   2.682  0.1295  0.2546  0.2751
   70MOL   O21833476   5.302   5.179   2.772 -0.5582 -0.0042  0.7159
   70MOL   C21933477   5.267   5.295   2.848  0.5232 -0.0835  0.4857
   70MOL   C22033478   5.226   5.419   2.761 -0.1039 -0.4417  0.2786
   70MOL   C22133479   5.084   5.414   2.714  0.1404 -0.3487  0.2164
   70MOL   C22233480   5.044   5.303   2.621  0.8429  0.0419  0.5199
   70MOL   O22333481   4.985   5.199   2.703  0.6997  0.1371 -0.4867
   70MOL   C22433482   4.861   5.166   2.679  0.0181  0.2787 -0.2716
   70MOL   O22533483   4.783   5.206   2.592  0.6317  0.0289  0.6731
   70MOL   C22633484   4.822   5.038   2.750 -0.5027 -0.2211 -0.3714
   70MOL   C22733485   4.796   4.915   2.660 -0.0002 -0.1978 -0.0522
   70MOL   C22833486   4.724   4.809   2.728 -0.2981  1.2769 -0.3624
   70MOL   O22933487   4.641   4.826   2.820  0.3704 -0.1642 -0.0779
   70MOL   H23033488   5.179   5.273   2.909 -0.8496 -0.4736 -1.6086
   70MOL   H23133489   5.351   5.322   2.913 -1.1327  1.0206  2.2438
   70MOL   H23233490   5.290   5.431   2.674 -0.7311  0.3188 -0.0833
   70MOL   H23333491   5.235   5.505   2.827 -0.5909  1.4850 -2.0839
   70MOL   H23433492   5.059   5.507   2.662 -1.3812 -0.7016  0.2882
   70MOL   H23533493   5.011   5.419   2.795 -0.8220  0.4672 -0.6795
   70MOL   H23633494   4.975   5.340   2.546  1.9698  0.5473 -0.2731
   70MOL   H23733495   5.133   5.277   2.564  0.5720 -1.4387  0.7559
   70MOL   H23833496   4.739   5.069   2.814 -2.0904 -1.1371 -1.9453
   70MOL   H23933497   4.897   5.009   2.824  1.0202  1.4763 -1.2131
   70MOL   H24033498   4.744   4.950   2.571  1.2491 -0.0801 -0.7493
   70MOL   H24133499   4.892   4.876   2.625 -0.6970 -2.4813  0.5428
   70MOL   O24233500   4.746   4.685   2.669 -0.1072  0.2162  0.3628
   70MOL   C24333501   4.672   4.570   2.705 -0.8374 -0.0513 -0.4421
   70MOL   C24433502   4.736   4.462   2.622  0.6759  0.7139  0.2832
   70MOL   C24533503   4.649   4.333   2.618  0.7978  0.0439 -0.0390
   70MOL   C24633504   4.726   4.204   2.586 -0.1035  0.4075  0.3361
   70MOL   O24733505   4.785   4.225   2.465 -0.1168 -0.0954 -0.9628
   70MOL   C24833506   4.858   4.125   2.409  0.5519 -0.3823 -0.2850
   70MOL   O24933507   4.844   4.010   2.443  0.2291  0.2453 -0.3329
   70MOL   C25033508   4.938   4.171   2.288 -0.5110  0.0576  0.0316
   70MOL   C25133509   4.880   4.123   2.155 -0.5212 -0.2689  0.1269
   70MOL   C25233510   4.958   4.170   2.038 -0.6308  0.0777 -0.6028
   70MOL   O25333511   5.073   4.211   2.047 -0.2534  0.5617  0.0725
   70MOL   H25433512   4.663   4.550   2.812 -0.0958 -0.1238 -0.3877
   70MOL   H25533513   4.574   4.590   2.662  0.2809  2.3542 -1.9744
   70MOL   H25633514   4.833   4.439   2.667 -0.0116  0.6464  1.7724
   70MOL   H25733515   4.754   4.488   2.518 -1.8977  2.7982  0.3009
   70MOL   H25833516   4.556   4.342   2.561  1.7265  1.7951 -1.3104
   70MOL   H25933517   4.616   4.323   2.722 -1.2940 -0.3685 -0.7066
   70MOL   H26033518   4.802   4.192   2.663 -0.3863  2.2011  0.9219
   70MOL   H26133519   4.665   4.114   2.582  0.7219 -0.1032 -1.0713
   70MOL   H26233520   5.038   4.128   2.290  0.6393  2.5753 -0.6997
   70MOL   H26333521   4.935   4.280   2.278  0.7835 -0.0642 -2.0788
   70MOL   H26433522   4.854   4.017   2.148 -2.3647 -0.0472  2.8402
   70MOL   H26533523   4.783   4.173   2.154  0.0128  0.8619  2.2147
   70MOL   O26633524   4.889   4.173   1.923  0.4548  0.0807  0.3500
   70MOL   C26733525   4.951   4.215   1.803  0.5539  0.6853 -0.7371
   70MOL   C26833526   4.844   4.230   1.697  0.6106 -0.1792 -0.3085
   70MOL   C26933527   4.890   4.275   1.554  0.6084 -0.0256  0.5343
   70MOL   C27033528   4.773   4.267   1.456  0.3034 -0.3174  0.8876
   70MOL   O27133529   4.663   4.354   1.493 -0.8349  0.1866 -0.1268
   70MOL   C27233530   4.542   4.350   1.429  0.4012 -0.1664 -0.5997
   70MOL   O27333531   4.514   4.271   1.335  0.0326 -0.4967 -0.3770
   70MOL   C27433532   4.444   4.449   1.493 -0.0983  0.6232  0.2446
   70MOL   C27533533   4.403   4.389   1.635  0.3848  1.0807 -0.2107
   70MOL   C27633534   4.288   4.285   1.627 -0.0193 -0.1883  0.2944
   70MOL   O27733535   4.311   4.171   1.661 -0.6477 -0.0413 -0.1622
   70MOL   H27833536   5.001   4.311   1.817  1.7153  0.3289 -2.2551
   70MOL   H27933537   5.018   4.130   1.788 -2.9703 -2.6108  1.3987
   70MOL   H28033538   4.769   4.303   1.726 -0.8560 -1.8558  0.1899
   70MOL   H28133539   4.803   4.130   1.682 -1.0468  0.5029 -0.4337
   70MOL   H28233540   4.969   4.208   1.519  0.9666  0.5511  0.2217
   70MOL   H28333541   4.932   4.376   1.547  0.9421 -0.3168 -2.2352
   70MOL   H28433542   4.793   4.299   1.353 -2.6647  1.9623  0.9572
   70MOL   H28533543   4.742   4.164   1.442  1.6424 -0.7614  1.1373
   70MOL   H28633544   4.358   4.467   1.429 -0.6559  3.3884  1.6857
   70MOL   H28733545   4.483   4.550   1.507 -0.7814  1.4421 -3.3035
   70MOL   H28833546   4.485   4.325   1.667 -1.0391 -0.8026 -0.1780
   70MOL   H28933547   4.372   4.462   1.709 -0.0520 -0.0735  0.7734
   70MOL   O29033548   4.172   4.339   1.578  0.3942 -0.0335 -0.9919
   70MOL   C29133549   4.048   4.270   1.561  0.6030  0.5263 -0.4270
   70MOL   C29233550   3.995   4.302   1.415  0.1423 -0.5150  0.0869
   70MOL   C29333551   4.090   4.244   1.312  0.1429 -0.7487 -0.1243
   70MOL   C29433552   4.076   4.305   1.177  0.2055 -0.4204  0.3260
   70MOL   O29533553   3.952   4.269   1.117 -0.2971 -0.4864  0.6339
   70MOL   C29633554   3.937   4.279   0.982  0.1768  0.1124 -0.2322
   70MOL   O29733555   4.019   4.330   0.909  0.4628  0.1314  0.1175
   70MOL   C29833556   3.820   4.197   0.928  0.5943 -0.3907 -0.9101
   70MOL   C29933557   3.693   4.273   0.943  0.1909  0.2079 -0.1251
   70MOL   C30033558   3.598   4.235   1.059  0.3542  0.2981 -0.0198
   70MOL   O30133559   3.484   4.190   1.034 -0.2402  0.3134  0.3329
   70MOL   H30233560   4.052   4.161   1.555 -0.5900  0.4813 -0.4381
   70MOL   H30333561   3.985   4.293   1.646 -0.0445  0.1971 -0.8100
   70MOL   H30433562   3.991   4.410   1.403 -0.0931 -0.5796 -0.4251
   70MOL   H30533563   3.897   4.255   1.422  0.4377 -0.9758  1.2888
   70MOL   H30633564   4.071   4.139   1.290 -0.0433 -1.2444  2.2607
   70MOL   H30733565   4.193   4.253   1.346  0.0005  0.3469  0.0309
   70MOL   H30833566   4.085   4.414   1.178 -0.1512 -0.3844 -0.0948
   70MOL   H30933567   4.156   4.263   1.115  2.2723  1.0239  1.9520
   70MOL   H31033568   3.825   4.101   0.981 -1.3101  0.0504  0.1077
   70MOL   H31133569   3.838   4.166   0.825  2.7105 -0.5933 -0.4966
   70MOL   H31233570   3.717   4.379   0.948  1.6609 -0.2232  2.9703
   70MOL   H31333571   3.635   4.257   0.852  0.0124  1.3902 -0.2213
   70MOL   O31433572   3.647   4.266   1.185 -0.6557 -0.1503  0.1570
   70MOL   C31533573   3.573   4.229   1.306 -0.6084  0.5340  0.9726
   70MOL   C31633574   3.488   4.344   1.357  0.0385 -0.2337 -0.3932
   70MOL   C31733575   3.362   4.373   1.273  0.6548 -0.2535  0.3709
   70MOL   C31833576   3.263   4.457   1.347  0.1885 -0.1979 -0.2870
   70MOL   O31933577   3.318   4.590   1.364 -0.6837 -0.4515  0.2610
   70MOL   C32033578   3.252   4.679   1.439  0.3818  0.7234  0.2767
   70MOL   O32133579   3.136   4.660   1.480  0.1755 -0.1758 -0.3993
   70MOL   C32233580   3.321   4.807   1.454  0.5178  0.7649 -0.5899
   70MOL   C32333581   3.305   4.890   1.326  0.4124 -0.3837  0.3886
   70MOL   C32433582   3.197   5.000   1.331  0.1390 -0.1567  0.4055
   70MOL   O32533583   3.224   5.111   1.293  0.5295  0.5543 -0.1452
   70MOL   H32633584   3.506   4.146   1.281 -1.3634  0.9638  1.5474
   70MOL   H32733585   3.648   4.198   1.378  2.1291 -1.1610 -2.4639
   70MOL   H32833586   3.555   4.429   1.370  2.0113 -2.0879  2.1469
   70MOL   H32933587   3.452   4.320   1.457 -1.0195 -0.3564 -0.7961
   70MOL   H33033588   3.325   4.274   1.249 -2.4716  1.3469 -1.6425
   70MOL   H33133589   3.405   4.422   1.186 -0.1266  1.7597  1.0945
   70MOL   H33233590   3.168   4.458   1.293 -1.1486  0.3170  2.0180
   70MOL   H33333591   3.240   4.414   1.445  2.8651  0.0847  0.5089
   70MOL   H33433592   3.427   4.784   1.463 -0.0508 -1.8380  0.0569
   70MOL   H33533593   3.295   4.858   1.546 -0.6330 -0.5924 -0.1393
   70MOL   H33633594   3.398   4.935   1.293  0.0941  0.8948  1.2217
   70MOL   H33733595   3.284   4.829   1.238 -1.3426  2.0270 -0.9190
   70MOL   O33833596   3.076   4.963   1.368 -0.9622 -0.8579  0.1997
   70MOL   C33933597   2.970   5.055   1.353  0.3808  0.8419  0.5445
   70MOL   C34033598   2.933   5.105   1.488 -0.0928  0.2486  0.3158
   70MOL   C34133599   3.040   5.214   1.544 -0.0137 -0.1794  0.2478
   70MOL   C34233600   3.007   5.262   1.686  0.1199 -0.1114 -0.0083
   70MOL   O34333601   2.972   5.147   1.770  0.2598  0.3193  0.1888
   70MOL   C34433602   3.069   5.066   1.811 -0.0009 -0.1697  0.6009
   70MOL   O34533603   3.187   5.070   1.780 -0.2779 -0.7422  0.0889
   70MOL   C34633604   3.017   4.959   1.911  0.1795 -0.0164  0.3058
   70MOL   C34733605   2.938   4.842   1.847 -0.2518  0.0435 -0.4776
   70MOL   C34833606   3.013   4.714   1.881 -0.0574 -0.2028 -1.0856
   70MOL   O34933607   2.948   4.613   1.922  0.2919  0.0722  0.2020
   70MOL   H35033608   2.995   5.145   1.296 -0.7874  1.8088  1.5714
   70MOL   H35133609   2.887   4.998   1.310  1.4655  0.1590 -0.7044
   70MOL   H35233610   2.907   5.026   1.559 -0.3090 -1.2735 -1.4154
   70MOL   H35333611   2.842   5.163   1.481 -0.5184 -0.4892 -0.3207
   70MOL   H35433612   3.041   5.291   1.467 -0.1380 -0.3638  0.0620
   70MOL   H35533613   3.140   5.171   1.553  1.2845  2.7723  0.4595
   70MOL   H35633614   3.090   5.315   1.734 -0.1792  1.1588 -0.8951
   70MOL   H35733615   2.923   5.330   1.685  0.4893  0.3660 -3.0008
   70MOL   H35833616   2.944   5.013   1.972  0.1656  0.1763  0.1200
   70MOL   H35933617   3.102   4.924   1.970  0.1117 -2.4158 -0.9513
   70MOL   H36033618   2.841   4.833   1.896 -0.8823  0.5112 -1.6182
   70MOL   H36133619   2.934   4.863   1.740  1.2048 -0.6558 -0.6906
   70MOL   O36233620   3.139   4.710   1.856  0.1347  0.2575 -0.1834
   70MOL   C36333621   3.210   4.586   1.865 -0.1157 -0.3661  0.1919
   70MOL   C36433622   3.348   4.598   1.809 -0.2875  0.0352  0.2664
   70MOL   C36533623   3.434   4.474   1.849  0.2024  0.2127  1.1020
   70MOL   C36633624   3.565   4.464   1.766  0.0372  0.1967  0.8131
   70MOL   O36733625   3.647   4.573   1.796 -0.0498  0.0392  0.0172
   70MOL   C36833626   3.738   4.617   1.712  0.0629  0.0892  0.5393
   70MOL   O36933627   3.777   4.563   1.613  0.4468  0.4912 -0.0222
   70MOL   C37033628   3.800   4.753   1.752  0.0239 -0.4709  0.6060
   70MOL   C37133629   3.702   4.873   1.751 -0.1319  0.3352  0.7022
   70MOL   C37233630   3.657   4.919   1.614 -0.0681  0.6797  0.3321
   70MOL   O37333631   3.668   4.848   1.511  0.2337  0.3278  0.2778
   70MOL   H37433632   3.213   4.545   1.966  0.4426 -0.7728  0.0177
   70MOL   H37533633   3.154   4.519   1.799  1.4053 -0.8177 -0.6775
   70MOL   H37633634   3.375   4.698   1.842 -1.5433 -0.2275  2.1289
   70MOL   H37733635   3.341   4.593   1.700  0.7517  0.8782  0.1613
   70MOL   H37833636   3.377   4.382   1.836  1.0728 -0.2679  0.5612
   70MOL   H37933637   3.459   4.477   1.955  0.2147  2.2924  1.0630
   70MOL   H38033638   3.617   4.370   1.786  0.0675  0.1079  0.3399
   70MOL   H38133639   3.538   4.467   1.660  0.5446 -1.1553  0.6320
   70MOL   H38233640   3.889   4.779   1.694 -0.6573  0.9667  0.1595
   70MOL   H38333641   3.827   4.734   1.856  0.9611  0.9970  0.6533
   70MOL   H38433642   3.606   4.840   1.789  0.3016  0.2161  1.7112
   70MOL   H38533643   3.729   4.953   1.819  1.1353  1.3491 -0.9294
   70MOL   O38633644   3.615   5.044   1.617  0.0592 -0.2409 -0.3090
   70MOL   C38733645   3.560   5.106   1.502 -0.0293  0.2403  0.1463
   70MOL   C38833646   3.479   5.223   1.554  0.1082  0.2456  0.4962
   70MOL   C38933647   3.447   5.318   1.439 -0.3424 -0.4590  0.0196
   70MOL   C39033648   3.374   5.442   1.496 -0.2330 -0.3522  0.5662
   70MOL   O39133649   3.440   5.506   1.603 -0.3410 -0.0002  0.3123
   70MOL   C39233650   3.372   5.584   1.684 -0.2387 -0.0250  0.0584
   70MOL   O39333651   3.248   5.595   1.679 -0.1788  0.6902 -0.6642
   70MOL   C39433652   3.451   5.662   1.786 -0.2241 -0.7557 -0.4388
   70MOL   C39533653   3.504   5.796   1.723 -0.1688  0.2851 -0.4247
   70MOL   C39633654   3.653   5.798   1.689 -1.0749  0.2963 -0.2606
   70MOL   O39733655   3.707   5.906   1.666 -0.7088 -0.0287  0.0802
   70MOL   H39833656   3.647   5.139   1.445  0.3148  1.9584  1.6264
   70MOL   H39933657   3.505   5.037   1.439  0.0723  0.8941 -0.6630
   70MOL   H40033658   3.532   5.281   1.628  1.7915  1.8515 -1.8838
   70MOL   H40133659   3.386   5.196   1.604 -0.8632  0.1887 -1.2906
   70MOL   H40233660   3.383   5.266   1.368 -1.0144 -0.8536  0.9074
   70MOL   H40333661   3.544   5.343   1.396  0.0429 -0.3811  0.9192
   70MOL   H40433662   3.345   5.513   1.418 -0.6766 -1.3614 -0.1999
   70MOL   H40533663   3.275   5.411   1.532  0.8028 -1.5928  2.4515
   70MOL   H40633664   3.520   5.593   1.836 -0.5446 -0.8500 -0.1184
   70MOL   H40733665   3.381   5.675   1.868 -1.3285  3.8265 -1.9424
   70MOL   H40833666   3.440   5.822   1.639 -2.1471  1.4650  1.3815
   70MOL   H40933667   3.489   5.881   1.790 -0.0507 -0.2297  0.2640
   70MOL   O41033668   3.718   5.682   1.688  0.1535 -0.3398 -0.1543
   70MOL   C41133669   3.863   5.679   1.678 -0.5284 -0.2741  0.4147
   70MOL   C41233670   3.901   5.526   1.667 -0.7626  0.6394 -0.8279
   70MOL   C41333671   3.881   5.455   1.807 -0.2884  0.6141  0.5050
   70MOL   C41433672   3.944   5.320   1.824  0.0061  1.5539  0.0993
   70MOL   O41533673   3.934   5.250   1.946 -0.0200 -0.3304 -0.9011
   70MOL   C41633674   3.957   5.120   1.954 -0.1249  0.4975 -0.4383
   70MOL   O41733675   3.978   5.034   1.862  0.4041 -0.1317  0.2512
   70MOL   C41833676   3.973   5.089   2.107  0.7592  0.0928 -0.3306
   70MOL   C41933677   4.096   5.155   2.165  0.3384  0.2808  0.0400
   70MOL   C42033678   4.106   5.127   2.311  0.3607  0.3686  0.3929
   70MOL   O42133679   4.061   5.208   2.389 -0.6587 -0.0119 -0.8200
   70MOL   H42233680   3.891   5.741   1.593  1.5223  1.9333  2.5841
   70MOL   H42333681   3.908   5.727   1.765  0.3684 -0.2786 -0.0402
   70MOL   H42433682   4.009   5.524   1.647 -0.2808 -1.3611  1.7546
   70MOL   H42533683   3.864   5.458   1.590 -0.0403  0.9991 -1.5048
   70MOL   H42633684   3.773   5.460   1.821 -0.4417 -1.1431 -0.0463
   70MOL   H42733685   3.917   5.514   1.892 -0.6622  0.8408  0.5084
   70MOL   H42833686   3.895   5.254   1.752 -1.4985  1.1010  1.4903
   70MOL   H42933687   4.050   5.319   1.801  0.9854 -0.6265  4.1960
   70MOL   H43033688   3.990   4.981   2.115  0.2438  0.2047  2.8184
   70MOL   H43133689   3.881   5.119   2.157  1.0607  0.9719 -0.2961
   70MOL   H43233690   4.183   5.110   2.118  0.2022  0.3030 -0.2334
   70MOL   H43333691   4.091   5.262   2.143  0.5046  1.3412  4.6297
   70MOL   O43433692   4.175   5.016   2.330  0.1414 -0.1625  0.8827
   70MOL   C43533693   4.184   4.967   2.454 -0.1576 -0.0999  0.6487
   70MOL   C43633694   4.330   4.964   2.515 -0.8487 -0.4570  0.3902
   70MOL   C43733695   4.440   4.886   2.438  0.0259 -0.5759  0.6039
   70MOL   C43833696   4.431   4.737   2.469 -0.2353 -0.2798  0.7965
   70MOL   O43933697   4.336   4.675   2.385 -0.5774  0.2662  0.0617
   70MOL   C44033698   4.304   4.550   2.413  0.5763  0.0509  0.6840
   70MOL   O44133699   4.353   4.478   2.501 -0.2909  0.6786  0.2153
   70MOL   C44233700   4.188   4.497   2.323  0.5654 -0.7438 -0.1842
   70MOL   C44333701   4.053   4.495   2.392  0.2265 -0.0561 -0.4833
   70MOL   C44433702   3.962   4.613   2.363 -0.0777  0.3339  0.5375
   70MOL   O44533703   3.914   4.682   2.452 -0.1520 -0.6791  0.1586
   70MOL   H44633704   4.111   5.006   2.526  0.0264  2.1585 -0.3437
   70MOL   H44733705   4.149   4.865   2.437  0.2022  0.1127 -1.4579
   70MOL   H44833706   4.312   4.937   2.619 -0.6487 -0.3523  0.4519
   70MOL   H44933707   4.371   5.065   2.524 -0.4110 -0.5011 -0.9469
   70MOL   H45033708   4.542   4.913   2.464  0.1584  1.2757 -1.6777
   70MOL   H45133709   4.427   4.892   2.330  0.2675 -0.0556  0.6064
   70MOL   H45233710   4.532   4.703   2.450 -0.3381  0.2273 -0.6665
   70MOL   H45333711   4.420   4.712   2.575  0.3830 -2.3020  0.3932
   70MOL   H45433712   4.215   4.399   2.284 -0.3023 -1.1209  0.1404
   70MOL   H45533713   4.190   4.569   2.241 -1.6414 -2.7544 -2.0605
   70MOL   H45633714   4.001   4.400   2.380 -1.0406  0.3416  1.5968
   70MOL   H45733715   4.072   4.507   2.498 -1.4889 -0.9988 -0.0558
   70MOL   O45833716   3.937   4.621   2.233 -0.1523 -0.0678  0.4845
   70MOL   C45933717   3.862   4.728   2.178  0.5598  0.1743  0.4890
   70MOL   C46033718   3.716   4.688   2.163 -0.4036 -0.4534 -0.5324
   70MOL   C46133719   3.633   4.816   2.154  0.7162 -0.1463  0.6403
   70MOL   C46233720   3.484   4.777   2.116  0.9910 -0.0107 -0.1550
   70MOL   O46333721   3.394   4.882   2.142 -0.8250 -1.2441  0.3709
   70MOL   C46433722   3.277   4.858   2.202  0.0826  0.0458 -0.8958
   70MOL   O46533723   3.231   4.748   2.222 -0.1067  0.1297  0.0518
   70MOL   C46633724   3.199   4.986   2.241 -0.7198  0.0111 -0.4524
   70MOL   C46733725   3.095   4.979   2.351  0.3093  0.0027 -0.1237
   70MOL   C46833726   2.960   5.031   2.305 -0.5235 -0.0069 -0.2668
   70MOL   O46933727   2.954   5.100   2.203  0.2929 -0.2618  0.0595
   70MOL   H47033728   3.872   4.816   2.242 -1.2110  0.6846  0.0856
   70MOL   H47133729   3.907   4.768   2.087  3.9292 -0.5517  1.7472
   70MOL   H47233730   3.676   4.632   2.247 -2.7097  1.3728 -0.3412
   70MOL   H47333731   3.697   4.628   2.074  0.5114  0.0801 -1.0995
   70MOL   H47433732   3.672   4.885   2.079 -2.6016  0.7586 -0.3198
   70MOL   H47533733   3.632   4.877   2.244  2.1389 -0.5102  0.9152
   70MOL   H47633734   3.507   4.757   2.012  0.4466 -2.3300  0.1495
   70MOL   H47733735   3.460   4.672   2.131 -1.5195  0.6540  0.8407
   70MOL   H47833736   3.159   5.017   2.145 -1.6551 -1.2800 -0.4857
   70MOL   H47933737   3.269   5.059   2.282  0.7058  0.0044 -2.7675
   70MOL   H48033738   3.057   4.877   2.354  2.6664 -0.8682  1.1573
   70MOL   H48133739   3.120   4.999   2.455 -1.2263  0.8606  0.1042
   70MOL   H48233740   2.876   4.990   2.361 -1.0941  3.1868  1.2894
   71MOL     O133741   7.575   1.777   4.414 -0.4678 -0.2302  0.3297
   71MOL     C233742   7.642   1.896   4.449  0.7055 -0.0410 -0.1518
   71MOL     C333743   7.558   2.016   4.407 -0.3206  0.3914  0.2725
   71MOL     C433744   7.521   2.028   4.259 -0.3414  0.6666  0.6454
   71MOL     C533745   7.645   2.015   4.162 -0.6462 -0.4144 -0.1226
   71MOL     O633746   7.737   2.123   4.166 -0.4860 -0.8407 -0.1048
   71MOL     C733747   7.698   2.236   4.104  0.7122  0.6698 -0.4109
   71MOL     O833748   7.598   2.244   4.032  0.1226 -0.1238 -0.2292
   71MOL     C933749   7.785   2.349   4.143  0.1455 -0.6980  0.1213
   71MOL    C1033750   7.770   2.378   4.297  0.0670 -0.0951 -0.8929
   71MOL    C1133751   0.002   2.324   4.389 -0.9691  0.2677  0.3225
   71MOL    O1233752   7.854   2.233   4.466  0.2638  0.5943  0.1219
   71MOL    H1333753   7.664   1.897   4.556  1.4399 -2.5108 -0.2537
   71MOL    H1433754   7.735   1.883   4.395  1.4768  0.3756  1.0513
   71MOL    H1533755   7.610   2.111   4.422 -0.4765  0.5143  0.0431
   71MOL    H1633756   7.479   2.040   4.478  0.2280 -1.1111  1.4088
   71MOL    H1733757   7.461   2.115   4.236 -1.4646 -0.3218 -0.2120
   71MOL    H1833758   7.446   1.955   4.228  0.6035  0.3192 -0.8866
   71MOL    H1933759   7.700   1.923   4.187  1.7314  0.9232 -0.3062
   71MOL    H2033760   7.612   2.001   4.060 -1.8921  1.6139 -0.0152
   71MOL    H2133761   7.763   2.441   4.089 -0.4690 -1.7047 -1.3734
   71MOL    H2233762   0.011   2.322   4.110 -1.2624 -1.4596 -3.8691
   71MOL    H2333763   7.761   2.486   4.287  1.3544  0.2942  1.7880
   71MOL    H2433764   7.674   2.334   4.324 -0.4553  0.3009 -2.0706
   71MOL    H2533765   7.632   1.707   4.443 -0.0108 -0.0354 -0.0913
   71MOL    O2633766   0.121   2.386   4.362 -0.1867 -0.0416 -0.6686
   71MOL    C2733767   0.251   2.365   4.430 -0.4916 -0.0818  0.1519
   71MOL    C2833768   0.268   2.454   4.557  0.1075 -0.5291 -0.4128
   71MOL    C2933769   0.153   2.459   4.665  0.0877  0.2012  0.6165
   71MOL    C3033770   0.183   2.561   4.778  0.4725  0.3788  0.0262
   71MOL    O3133771   0.303   2.538   4.862  0.6673 -0.5891  0.2333
   71MOL    C3233772   0.374   2.653   4.900  0.7403 -0.7857  0.3424
   71MOL    O3333773   0.373   2.769   4.847  0.3387  0.1437  0.2896
   71MOL    C3433774   0.449   2.627   5.015 -0.0445  0.2026  0.9298
   71MOL    C3533775   0.525   2.496   5.011  0.0629  0.0395  0.0276
   71MOL    C3633776   0.663   2.506   5.081 -0.0042 -0.5943 -0.3220
   71MOL    O3733777   0.695   2.442   5.181  0.5934  0.3708 -0.1629
   71MOL    H3833778   0.253   2.258   4.452 -0.1341 -0.0698  0.1790
   71MOL    H3933779   0.335   2.382   4.362  0.5875 -1.3085  1.1401
   71MOL    H4033780   0.273   2.555   4.518 -0.7011 -0.4949 -0.4507
   71MOL    H4133781   0.353   2.415   4.613  0.1451 -1.5942 -1.1812
   71MOL    H4233782   0.144   2.361   4.712  0.0370  0.5597  1.3532
   71MOL    H4333783   0.056   2.485   4.623  0.8834 -0.3925 -1.6924
   71MOL    H4433784   0.195   2.656   4.727 -0.2990  0.4133 -0.0978
   71MOL    H4533785   0.093   2.564   4.839  1.6883 -0.4524  1.9607
   71MOL    H4633786   0.373   2.634   5.094 -0.1994  0.8184  0.7229
   71MOL    H4733787   0.527   2.701   5.033 -0.2165  0.6313 -0.0509
   71MOL    H4833788   0.475   2.414   5.064 -1.5846  2.3339  2.1350
   71MOL    H4933789   0.535   2.466   4.907 -3.1694 -1.5454  0.1024
   71MOL    O5033790   0.744   2.595   5.012  0.3072  0.2482 -0.2464
   71MOL    C5133791   0.880   2.593   5.040  0.6807  0.3690  1.2874
   71MOL    C5233792   0.906   2.708   5.132 -0.9222 -0.0384  0.3306
   71MOL    C5333793   1.055   2.730   5.167 -0.3375 -0.0029 -0.0278
   71MOL    C5433794   1.081   2.847   5.253 -0.8964 -0.5624 -0.1345
   71MOL    O5533795   1.068   2.972   5.176 -0.7645  0.2466  0.3669
   71MOL    C5633796   0.951   3.044   5.170  0.0057  0.1774  0.8732
   71MOL    O5733797   0.837   3.010   5.217 -0.1999  0.1716  0.0373
   71MOL    C5833798   0.971   3.161   5.080 -0.0637 -0.4188 -0.1337
   71MOL    C5933799   1.058   3.271   5.152  0.0011 -0.7741  0.0465
   71MOL    C6033800   0.980   3.360   5.253 -0.2471  0.0397  0.1722
   71MOL    O6133801   0.897   3.438   5.207  0.5464 -0.0251  0.2026
   71MOL    H6233802   0.918   2.497   5.073  0.4879  0.3625  1.4907
   71MOL    H6333803   0.933   2.617   4.948  0.6124 -2.0757  0.5829
   71MOL    H6433804   0.859   2.691   5.228 -0.1478  0.6212  0.8422
   71MOL    H6533805   0.858   2.796   5.091  1.5719  1.8712  1.3438
   71MOL    H6633806   1.114   2.732   5.075  0.7175  1.8442  0.6719
   71MOL    H6733807   1.083   2.640   5.221 -1.1743 -0.1559  0.1519
   71MOL    H6833808   1.023   2.851   5.345 -0.9491 -0.0394 -0.1913
   71MOL    H6933809   1.183   2.838   5.292 -0.3651 -0.7714 -1.5396
   71MOL    H7033810   0.878   3.207   5.047 -0.1633 -0.1679  0.4949
   71MOL    H7133811   1.024   3.119   4.995 -1.5051 -0.7989 -0.8506
   71MOL    H7233812   1.145   3.230   5.203  0.1535  0.3169  0.6766
   71MOL    H7333813   1.075   3.339   5.069  1.1585  0.1864  1.0592
   71MOL    O7433814   1.000   3.326   5.383 -0.1426  0.3277 -0.7143
   71MOL    C7533815   0.910   3.376   5.486 -0.7652 -0.2235 -0.4884
   71MOL    C7633816   0.922   3.299   5.615 -0.0084  0.1207 -0.1692
   71MOL    C7733817   0.881   3.152   5.610  0.5214  0.6749  0.2567
   71MOL    C7833818   0.817   3.102   5.744 -0.2637  0.1405 -0.1285
   71MOL    O7933819   0.695   3.164   5.779 -0.0939  0.4755  0.0319
   71MOL    C8033820   0.584   3.129   5.718 -0.5716 -0.0822 -0.0219
   71MOL    O8133821   0.571   3.041   5.638 -0.1611 -0.2634  0.1953
   71MOL    C8233822   0.471   3.216   5.769  0.7297 -0.0503 -0.3118
   71MOL    C8333823   0.404   3.161   5.897 -0.3023 -0.2292 -0.0978
   71MOL    C8433824   0.442   3.248   6.012 -0.2754 -0.0627 -0.0361
   71MOL    O8533825   0.502   3.199   6.106  0.2478  0.7221  0.2362
   71MOL    H8633826   0.937   3.481   5.503 -0.9089 -0.1239 -0.8624
   71MOL    H8733827   0.810   3.382   5.444 -1.6096  1.2169  1.6033
   71MOL    H8833828   0.863   3.360   5.683 -0.2751 -0.4233  0.0852
   71MOL    H8933829   1.023   3.303   5.655 -0.8184  1.2854  1.8053
   71MOL    H9033830   0.973   3.101   5.583 -0.4030 -1.0101  0.2376
   71MOL    H9133831   0.812   3.148   5.526  0.9591  0.3506 -0.0828
   71MOL    H9233832   0.796   2.998   5.766  1.7905 -0.5222 -1.1883
   71MOL    H9333833   0.894   3.133   5.815 -1.0942  2.6817 -0.2650
   71MOL    H9433834   0.388   3.222   5.697  0.4594  2.3640  0.1707
   71MOL    H9533835   0.511   3.316   5.782  0.2110  0.0835  0.3098
   71MOL    H9633836   0.296   3.171   5.892 -0.1519  0.5065 -2.0760
   71MOL    H9733837   0.433   3.056   5.910  0.0754 -0.0356  0.7112
   71MOL    O9833838   0.409   3.376   5.998 -0.1246  0.3510 -0.0138
   71MOL    C9933839   0.453   3.470   6.098  0.4176  0.2053 -0.6441
   71MOL   C10033840   0.445   3.617   6.059 -0.3142  0.2311 -0.1742
   71MOL   C10133841   0.495   3.725   6.158  1.1424  0.0167 -0.4217
   71MOL   C10233842   0.410   3.727   6.286  0.0691  0.0439 -0.0397
   71MOL   O10333843   0.267   3.736   6.273  0.4521  0.6363  0.1610
   71MOL   C10433844   0.218   3.854   6.243 -0.5195  0.2070 -0.5830
   71MOL   O10533845   0.277   3.958   6.236  0.0450 -0.0346  0.5871
   71MOL   C10633846   0.068   3.838   6.239 -0.4196 -0.0544 -0.7816
   71MOL   C10733847   7.858   3.963   6.246 -0.7029  0.0763 -0.5515
   71MOL   C10833848   7.747   3.963   6.144 -0.0263 -0.0843  0.2305
   71MOL   O10933849   7.629   3.955   6.182 -0.2989 -0.1403  0.3690
   71MOL   H11033850   0.406   3.453   6.195 -1.1343 -1.4053 -1.6464
   71MOL   H11133851   0.560   3.452   6.108 -0.1417 -2.4324  1.1358
   71MOL   H11233852   0.343   3.650   6.037 -0.6513  1.3387  2.8455
   71MOL   H11333853   0.500   3.629   5.965  0.3292  0.7857  0.2684
   71MOL   H11433854   0.483   3.823   6.113  2.7667 -1.0317 -3.2637
   71MOL   H11533855   0.597   3.701   6.189  1.4318  0.1747 -1.2576
   71MOL   H11633856   0.415   3.628   6.331 -2.1573  0.0151  0.2152
   71MOL   H11733857   0.447   3.801   6.357 -0.2936  1.0187 -0.8592
   71MOL   H11833858   0.029   3.769   6.314  1.4863  1.0335  1.2577
   71MOL   H11933859   0.051   3.787   6.144  2.0395  0.3684 -1.4886
   71MOL   H12033860   7.827   3.976   6.350  3.6318 -0.2306  0.9044
   71MOL   H12133861   0.041   4.055   6.231  1.1731 -0.0157  4.8373
   71MOL   O12233862   7.788   3.973   6.012  0.6242  0.1692 -0.1802
   71MOL   C12333863   7.688   3.965   5.909  0.1745  0.0639  0.5658
   71MOL   C12433864   7.748   3.911   5.787 -1.0528  0.8333  0.0224
   71MOL   C12533865   7.809   3.765   5.799 -0.0046 -1.1178  0.5182
   71MOL   C12633866   7.831   3.701   5.658 -0.2666 -0.1155  0.4132
   71MOL   O12733867   7.873   3.569   5.683  0.3159 -0.3454  0.0927
   71MOL   C12833868   0.018   3.487   5.585 -0.0611  0.1274 -0.4395
   71MOL   O12933869   0.013   3.514   5.466  0.5093  0.0496  0.1328
   71MOL   C13033870   0.078   3.357   5.631 -0.2451 -0.5290  0.2870
   71MOL   C13133871   0.075   3.254   5.515 -0.1117 -0.7436 -0.2277
   71MOL   C13233872   0.091   3.119   5.573  0.0108 -0.3182  0.8195
   71MOL   O13333873   0.184   3.085   5.638  0.1211 -0.1216  0.5812
   71MOL   H13433874   7.612   3.890   5.931  0.1038 -0.4764 -1.4046
   71MOL   H13533875   7.628   4.055   5.894 -0.9465 -0.9499 -1.2462
   71MOL   H13633876   7.833   3.974   5.763 -0.4323  1.1204  2.8486
   71MOL   H13733877   7.688   3.911   5.696  0.3058 -1.1683 -0.9166
   71MOL   H13833878   7.728   3.702   5.838 -0.3316 -0.5863  0.7042
   71MOL   H13933879   0.018   3.768   5.868 -0.5297  0.2768  1.1180
   71MOL   H14033880   7.731   3.702   5.613  0.6651  0.6697 -1.7027
   71MOL   H14133881   0.035   3.751   5.602 -1.3617  1.0638 -0.0911
   71MOL   H14233882   0.011   3.316   5.706  2.7085 -1.2703  2.6299
   71MOL   H14333883   0.181   3.364   5.666 -0.3625  0.0609  0.5266
   71MOL   H14433884   7.856   3.249   5.460 -0.5376  0.8625  0.3146
   71MOL   H14533885   0.163   3.285   5.458 -0.5217  3.0187  1.0124
   71MOL   O14633886   7.873   3.028   5.527 -0.0581  0.0767  0.0714
   71MOL   C14733887   0.016   2.886   5.558  0.3922  0.1638 -0.1086
   71MOL   C14833888   7.802   2.839   5.676  0.6329 -0.1239  0.5962
   71MOL   C14933889   7.862   2.875   5.813  0.0453 -0.7670  0.0061
   71MOL   C15033890   0.129   2.819   5.850  0.1949  0.2521  0.2811
   71MOL   O15133891   0.150   2.678   5.842 -0.5954  0.2084 -0.1587
   71MOL   C15233892   0.113   2.611   5.951 -0.2796 -0.6754 -0.0576
   71MOL   O15333893   0.090   2.658   6.061  0.3514 -0.2856  0.0476
   71MOL   C15433894   0.105   2.464   5.930 -0.1113  0.1396  0.6501
   71MOL   C15533895   0.126   2.422   5.786  0.2548  0.0184  0.1158
   71MOL   C15633896   0.143   2.268   5.772  0.3054 -0.2687  0.7906
   71MOL   O15733897   0.163   2.200   5.870 -1.2677  0.0307  0.0507
   71MOL   H15833898   7.868   2.821   5.473  0.8731  0.1026 -0.1925
   71MOL   H15933899   0.120   2.861   5.582  0.0557 -1.9764 -0.7022
   71MOL   H16033900   7.787   2.733   5.657 -0.5389 -0.0073  0.8378
   71MOL   H16133901   7.705   2.886   5.661  1.5111  1.2524 -0.9951
   71MOL   H16233902   7.799   2.847   5.897  0.0975  0.5593  0.4957
   71MOL   H16333903   7.872   2.983   5.810 -2.0691 -0.5843 -2.2515
   71MOL   H16433904   0.206   2.849   5.779 -1.0255 -0.7383 -1.5267
   71MOL   H16533905   0.141   2.854   5.952 -1.7919 -0.3513  0.7531
   71MOL   H16633906   0.003   2.434   5.955 -0.0014  0.4114  1.4285
   71MOL   H16733907   0.179   2.410   5.988  0.0799 -0.5745 -0.2450
   71MOL   H16833908   0.049   2.460   5.719 -1.4579 -0.9927  1.4733
   71MOL   H16933909   0.225   2.450   5.749  0.3096 -3.5963 -2.7926
   71MOL   O17033910   0.128   2.223   5.646  0.1900  0.0060 -0.3988
   71MOL   C17133911   0.098   2.091   5.622  0.0175  0.2780 -0.1405
   71MOL   C17233912   7.832   2.046   5.671  0.1413  0.2210  0.5138
   71MOL   C17333913   7.818   1.893   5.672 -0.2682  0.7949  0.5821
   71MOL   C17433914   7.684   1.850   5.716 -0.6776 -0.5662 -0.0273
   71MOL   O17533915   7.657   1.886   5.856 -0.8155  0.5827  0.0866
   71MOL   C17633916   7.673   1.801   5.960 -0.0264 -0.2837  0.5098
   71MOL   O17733917   7.683   1.680   5.947 -0.0409  0.5971  0.9972
   71MOL   C17833918   7.682   1.881   6.088 -0.5611 -0.1455 -0.6499
   71MOL   C17933919   7.716   1.792   6.210  0.2322 -0.6096 -0.2357
   71MOL   C18033920   7.615   1.799   6.326  0.9241 -0.4410 -0.0958
   71MOL   O18133921   7.652   1.822   6.443  0.4762 -0.0398  0.6466
   71MOL   H18233922   0.122   2.078   5.516  1.4518  2.6558 -0.1354
   71MOL   H18333923   0.173   2.030   5.672  0.4558  1.5735  0.7812
   71MOL   H18433924   7.749   2.088   5.615  0.8331  0.6522 -0.2042
   71MOL   H18533925   7.817   2.079   5.774  1.7213 -1.6156  1.3741
   71MOL   H18633926   0.014   1.849   5.742 -1.2118  1.8798  2.2273
   71MOL   H18733927   7.837   1.849   5.574  0.2703 -1.1530  1.5365
   71MOL   H18833928   7.608   1.888   5.649 -0.2870  1.4537  0.6422
   71MOL   H18933929   7.687   1.742   5.701 -2.1259 -0.3153 -2.3869
   71MOL   H19033930   7.589   1.932   6.111  0.3410 -0.3564  4.1697
   71MOL   H19133931   7.751   1.962   6.064 -0.6565 -0.1868 -1.0586
   71MOL   H19233932   7.710   1.687   6.184 -1.3050 -0.7851  0.7608
   71MOL   H19333933   7.820   1.811   6.236  0.3750  0.5341 -1.5711
   71MOL   O19433934   7.491   1.767   6.296  0.0388 -0.0458  0.1697
   71MOL   C19533935   7.382   1.779   6.387 -0.4725 -0.6373  0.2047
   71MOL   C19633936   7.332   1.917   6.427  0.0438  0.0887  0.5421
   71MOL   C19733937   7.264   1.990   6.311  0.5302  0.3848  0.0358
   71MOL   C19833938   7.190   2.120   6.342  0.3315  0.1343  1.3401
   71MOL   O19933939   7.066   2.083   6.409  0.1978 -0.1359 -0.3310
   71MOL   C20033940   7.060   2.102   6.546  0.5347 -0.1471 -0.0156
   71MOL   O20133941   7.154   2.146   6.617 -0.4987 -0.0314 -0.2055
   71MOL   C20233942   6.928   2.071   6.614 -0.2383 -0.2966  0.1407
   71MOL   C20333943   6.842   1.963   6.551 -0.7694  0.6409  0.1652
   71MOL   C20433944   6.902   1.822   6.553  1.0256 -0.8281 -0.3880
   71MOL   O20533945   6.946   1.774   6.658  0.1359  1.1180  0.0475
   71MOL   H20633946   7.304   1.716   6.344  0.3298 -0.7550 -1.1125
   71MOL   H20733947   7.413   1.738   6.483  2.8019 -0.2459 -0.6192
   71MOL   H20833948   7.417   1.974   6.464  0.1549  0.3880 -0.1666
   71MOL   H20933949   7.257   1.900   6.504 -0.1413 -1.8402 -0.0456
   71MOL   H21033950   7.196   1.915   6.271  2.1120  0.6147 -3.2387
   71MOL   H21133951   7.338   2.018   6.236 -0.4795 -0.8864 -1.4810
   71MOL   H21233952   7.252   2.187   6.402  2.9240 -0.7760 -0.2631
   71MOL   H21333953   7.176   2.188   6.258  2.1525 -0.2356  0.7192
   71MOL   H21433954   6.871   2.164   6.603 -2.0273 -1.4314 -0.3988
   71MOL   H21533955   6.946   2.045   6.718  0.1054 -0.6397 -0.0011
   71MOL   H21633956   6.744   1.962   6.597 -1.5431  0.6068 -1.4542
   71MOL   H21733957   6.824   2.004   6.452  0.4546 -0.4129 -0.5157
   71MOL   O21833958   6.914   1.764   6.430 -0.2154 -0.1524  0.1076
   71MOL   C21933959   6.979   1.634   6.417 -0.2805 -0.3694  0.4185
   71MOL   C22033960   7.016   1.618   6.271  0.2275  0.1602  0.2152
   71MOL   C22133961   6.906   1.588   6.167 -0.0533 -0.2302  0.1071
   71MOL   C22233962   6.842   1.448   6.177  0.0414 -0.4826 -1.1375
   71MOL   O22333963   6.941   1.355   6.145 -0.2617  0.7144  0.1952
   71MOL   C22433964   6.999   1.282   6.239  0.2022  0.2033  0.1903
   71MOL   O22533965   6.978   1.284   6.361  0.0511  0.5733 -0.1491
   71MOL   C22633966   7.096   1.171   6.191 -0.0772 -0.2651  0.8621
   71MOL   C22733967   7.204   1.132   6.290  0.1529  0.0120 -0.3914
   71MOL   C22833968   7.331   1.094   6.219 -0.4270 -0.0221 -0.2913
   71MOL   O22933969   7.356   1.110   6.100  0.8181  0.5175  0.1616
   71MOL   H23033970   7.068   1.634   6.480  0.0432 -0.4740 -0.0404
   71MOL   H23133971   6.916   1.551   6.450 -1.7797 -0.4220 -2.4242
   71MOL   H23233972   7.083   1.532   6.262  1.2321  1.0954 -1.2608
   71MOL   H23333973   7.080   1.694   6.228 -0.2023  0.5059  0.1808
   71MOL   H23433974   6.949   1.586   6.067  0.4553  1.5276  0.2825
   71MOL   H23533975   6.824   1.660   6.172  0.1498 -0.0554  0.9213
   71MOL   H23633976   6.811   1.442   6.281  1.9279  0.6702 -0.4824
   71MOL   H23733977   6.764   1.442   6.101  1.1602  0.4069 -2.3677
   71MOL   H23833978   7.134   1.204   6.094  1.8606 -1.1343  1.3036
   71MOL   H23933979   7.025   1.092   6.166 -0.4290 -0.1576  1.5060
   71MOL   H24033980   7.218   1.217   6.357  2.1176 -0.8725  0.3667
   71MOL   H24133981   7.167   1.044   6.342  0.6710  0.9851  1.6707
   71MOL   O24233982   7.418   1.027   6.303 -0.1941  0.0184  0.6130
   71MOL   C24333983   7.555   1.020   6.264  0.0286  0.2059 -0.0738
   71MOL   C24433984   7.614   0.876   6.296  0.3838  0.3775  0.5244
   71MOL   C24533985   7.577   0.770   6.193 -0.2231  0.3378  0.6520
   71MOL   C24633986   7.648   0.634   6.232  0.5432 -0.5117  0.2915
   71MOL   O24733987   7.585   0.520   6.173 -0.4376  0.3354  0.2956
   71MOL   C24833988   7.474   0.471   6.225  0.6678  0.2131  0.5040
   71MOL   O24933989   7.410   0.513   6.321  0.1835  0.8155 -0.0594
   71MOL   C25033990   7.437   0.342   6.162 -0.1046 -0.3639 -0.2118
   71MOL   C25133991   7.285   0.306   6.182  0.3966 -0.1087 -0.1645
   71MOL   C25233992   7.199   0.333   6.058 -0.2002  0.0463 -0.4155
   71MOL   O25333993   7.255   0.349   5.951 -0.2450  0.3040 -0.5353
   71MOL   H25433994   7.587   1.050   6.164 -1.1759 -1.7163 -1.0721
   71MOL   H25533995   7.607   1.089   6.330  0.5810  0.2562 -0.5570
   71MOL   H25633996   7.587   0.847   6.397 -0.9822  0.3746  0.1692
   71MOL   H25733997   7.721   0.878   6.314  0.4993 -0.8700  0.0574
   71MOL   H25833998   7.602   0.801   6.092 -1.0322  1.2428  0.7208
   71MOL   H25933999   7.469   0.757   6.206  0.1150 -0.7407  2.5659
   71MOL   H26034000   7.751   0.631   6.196  0.5902 -2.5225  0.5454
   71MOL   H26134001   7.657   0.631   6.340  4.5669  3.5208  0.2173
   71MOL   H26234002   7.490   0.276   6.230  2.0716  1.3412 -0.1833
   71MOL   H26334003   7.462   0.331   6.056 -2.7426 -1.6260 -0.7413
   71MOL   H26434004   7.284   0.200   6.205 -2.7235 -0.6728 -2.5048
   71MOL   H26534005   7.238   0.352   6.269 -2.1631  0.8547 -2.0080
   71MOL   O26634006   7.071   0.336   6.087  0.1714 -0.0354  0.3176
   71MOL   C26734007   6.985   0.377   5.979  0.1351  0.2604  0.1239
   71MOL   C26834008   6.858   0.293   6.013 -0.7594 -0.0803 -1.0139
   71MOL   C26934009   6.744   0.318   5.921  0.3498 -0.1071  0.1916
   71MOL   C27034010   6.625   0.234   5.973  0.1128  0.0825  0.7155
   71MOL   O27134011   6.510   0.247   5.893  0.2288  0.0238 -0.0711
   71MOL   C27234012   6.508   0.202   5.765  0.0236  0.0350 -0.1038
   71MOL   O27334013   6.587   0.114   5.723 -0.2371 -0.1697 -0.2510
   71MOL   C27434014   6.410   0.268   5.675 -0.5609 -0.6518 -0.2888
   71MOL   C27534015   6.444   0.415   5.627  0.1572 -0.2869 -1.0718
   71MOL   C27634016   6.394   0.442   5.485 -0.0787  0.0765  0.2366
   71MOL   O27734017   6.384   0.345   5.404 -0.2017  0.0040  0.0848
   71MOL   H27834018   6.952   0.481   5.981 -0.7802 -0.0199 -0.0506
   71MOL   H27934019   7.012   0.363   5.874  1.7421  0.8228  0.4476
   71MOL   H28034020   6.831   0.325   6.114  2.2966  2.8522 -1.0268
   71MOL   H28134021   6.887   0.188   6.020 -0.4611  0.0464 -0.2393
   71MOL   H28234022   6.771   0.286   5.821  1.0345 -0.5137  0.5001
   71MOL   H28334023   6.707   0.420   5.907 -0.3829 -0.3363  0.4338
   71MOL   H28434024   6.657   0.130   5.980 -0.0541  0.0409  0.8922
   71MOL   H28534025   6.597   0.253   6.077 -0.5021  1.2352  0.3448
   71MOL   H28634026   6.330   0.280   5.748  1.1947 -0.8432  1.7402
   71MOL   H28734027   6.399   0.200   5.591  0.7295  0.9382 -1.7683
   71MOL   H28834028   6.394   0.494   5.683 -0.3620  0.6237 -2.7745
   71MOL   H28934029   6.550   0.431   5.609 -0.1316  1.0420 -1.6446
   71MOL   O29034030   6.356   0.565   5.463 -0.3892  0.4373 -0.0048
   71MOL   C29134031   6.305   0.609   5.342  0.0433  0.1640  0.1311
   71MOL   C29234032   6.420   0.669   5.259 -0.1116 -0.3261 -0.5420
   71MOL   C29334033   6.505   0.567   5.189  0.6807  0.2355 -0.1094
   71MOL   C29434034   6.588   0.611   5.072 -0.2496  0.2951  0.3950
   71MOL   O29534035   6.498   0.666   4.973 -0.1785 -0.1894 -0.9457
   71MOL   C29634036   6.539   0.727   4.870  0.1338 -0.3344  0.0516
   71MOL   O29734037   6.654   0.727   4.827 -0.2522  0.3320  0.0290
   71MOL   C29834038   6.420   0.790   4.785 -0.3586  0.0103 -0.9748
   71MOL   C29934039   6.463   0.914   4.702  0.7977 -0.2571  0.2344
   71MOL   C30034040   6.432   0.884   4.550 -0.3517  0.3417 -0.3894
   71MOL   O30134041   6.512   0.868   4.460  0.0731  0.6274  0.0026
   71MOL   H30234042   6.259   0.527   5.287 -1.1551  0.9158 -0.0129
   71MOL   H30334043   6.227   0.684   5.355  0.0432 -0.0142  1.2001
   71MOL   H30434044   6.476   0.742   5.317 -2.1963 -0.4952  1.7838
   71MOL   H30534045   6.374   0.734   5.184 -0.5530  1.7052  1.4196
   71MOL   H30634046   6.435   0.486   5.169  0.5758 -0.2432  2.0264
   71MOL   H30734047   6.566   0.517   5.264 -1.5830 -0.3155  1.4184
   71MOL   H30834048   6.668   0.681   5.097  1.7105 -2.7350  3.0620
   71MOL   H30934049   6.628   0.527   5.016 -0.9657  0.4739 -0.3933
   71MOL   H31034050   6.335   0.810   4.851 -0.5881 -1.0900 -0.9230
   71MOL   H31134051   6.386   0.711   4.718  2.7273 -2.3266  0.1172
   71MOL   H31234052   6.420   1.008   4.734  1.9612  0.4478 -0.2298
   71MOL   H31334053   6.570   0.937   4.702  0.7710 -0.1105  1.0153
   71MOL   O31434054   6.296   0.885   4.522 -0.1932 -0.0575  0.0889
   71MOL   C31534055   6.266   0.851   4.388 -0.3891 -0.0456  0.0036
   71MOL   C31634056   6.117   0.821   4.380 -0.7499  0.0780 -0.5344
   71MOL   C31734057   6.063   0.815   4.235  0.0071  0.5010  0.3977
   71MOL   C31834058   6.113   0.694   4.160 -0.9465 -0.3324 -0.6286
   71MOL   O31934059   6.041   0.676   4.040  0.1117  0.2672  0.1990
   71MOL   C32034060   5.978   0.562   4.008 -0.0344  0.1663 -1.1858
   71MOL   O32134061   5.998   0.453   4.061 -0.3413 -0.4507 -0.3962
   71MOL   C32234062   5.880   0.586   3.890 -0.3902  0.2686  0.0034
   71MOL   C32334063   5.948   0.588   3.756 -0.5870  0.7565  0.2415
   71MOL   C32434064   5.917   0.468   3.673 -0.1662  0.5117  0.0764
   71MOL   O32534065   6.004   0.389   3.636 -0.1086 -0.0326 -0.0940
   71MOL   H32634066   6.293   0.940   4.330 -1.0349 -0.4773 -0.9750
   71MOL   H32734067   6.319   0.762   4.355 -1.0975 -0.2376 -0.6274
   71MOL   H32834068   6.066   0.908   4.422  1.8790  1.7247 -0.6901
   71MOL   H32934069   6.089   0.735   4.441 -0.1732  0.3146  0.0718
   71MOL   H33034070   6.098   0.908   4.190  0.4180  0.6243  0.9625
   71MOL   H33134071   5.954   0.817   4.229 -0.0440 -0.1831  1.0323
   71MOL   H33234072   6.218   0.704   4.132 -0.7498 -0.9059 -0.1053
   71MOL   H33334073   6.111   0.607   4.226  1.5472 -0.3413 -0.5063
   71MOL   H33434074   5.826   0.680   3.902  0.9029  0.9931  0.2350
   71MOL   H33534075   5.805   0.509   3.908 -0.3230  0.6108  1.8735
   71MOL   H33634076   5.907   0.673   3.702  1.3437 -0.9105 -4.0724
   71MOL   H33734077   6.056   0.606   3.764 -0.1582 -0.3867 -2.4211
   71MOL   O33834078   5.790   0.452   3.647 -0.4615 -0.4386  0.5005
   71MOL   C33934079   5.746   0.342   3.565 -0.4489  0.2797 -0.4253
   71MOL   C34034080   5.751   0.377   3.419 -0.2977 -0.1062 -0.9565
   71MOL   C34134081   5.755   0.263   3.315  0.7293  0.0203  0.4320
   71MOL   C34234082   5.735   0.306   3.167  0.5647  0.0888  0.1377
   71MOL   O34334083   5.833   0.403   3.130  0.4976  0.0261  0.3595
   71MOL   C34434084   5.799   0.531   3.098 -0.0849  0.1138  0.1064
   71MOL   O34534085   5.679   0.572   3.076 -0.2417 -0.4707 -0.1205
   71MOL   C34634086   5.925   0.616   3.075  1.0932  0.1150 -0.3216
   71MOL   C34734087   6.026   0.598   3.187  0.1023 -0.7613  0.7933
   71MOL   C34834088   5.987   0.687   3.307 -0.3661 -0.2626 -0.1189
   71MOL   O34934089   6.008   0.648   3.426  0.4492  0.3053  0.3594
   71MOL   H35034090   5.810   0.257   3.590 -0.1253  0.9252  1.0264
   71MOL   H35134091   5.644   0.309   3.588 -0.2696  0.5374  0.7925
   71MOL   H35234092   5.843   0.431   3.393 -0.3004 -0.0173 -0.7797
   71MOL   H35334093   5.670   0.446   3.394 -0.4756  0.7709  1.8468
   71MOL   H35434094   5.676   0.189   3.326  2.0366 -1.4621 -0.0418
   71MOL   H35534095   5.845   0.204   3.332  1.6426  0.3936 -2.7176
   71MOL   H35634096   5.725   0.219   3.102 -0.4234  0.2123  0.1142
   71MOL   H35734097   5.639   0.356   3.161  0.5302 -0.0860 -0.8177
   71MOL   H35834098   5.901   0.716   3.042  1.1933 -0.4725 -2.2267
   71MOL   H35934099   5.957   0.569   2.982  0.1601 -1.8635  0.3280
   71MOL   H36034100   6.043   0.495   3.218 -1.1910 -1.3548 -0.3777
   71MOL   H36134101   6.126   0.619   3.147  1.0340 -2.8996  1.8804
   71MOL   O36234102   5.938   0.807   3.273 -0.5157  0.1953  0.4378
   71MOL   C36334103   5.866   0.880   3.371  0.1859  0.1923 -0.6739
   71MOL   C36434104   5.718   0.850   3.369  0.0488  0.0883  0.0730
   71MOL   C36534105   5.694   0.749   3.489  0.4406 -0.2536  0.1959
   71MOL   C36634106   5.546   0.715   3.512 -0.5909 -0.4868  0.0757
   71MOL   O36734107   5.525   0.618   3.614 -0.2908 -0.5104  0.5021
   71MOL   C36834108   5.474   0.666   3.733  0.1421  0.6161  0.5418
   71MOL   O36934109   5.418   0.776   3.754  0.1697  0.0687 -0.5826
   71MOL   C37034110   5.506   0.575   3.857  0.0942 -0.3230 -0.5666
   71MOL   C37134111   5.459   0.619   3.991 -0.0127  0.2110  0.8030
   71MOL   C37234112   5.554   0.703   4.078 -0.0286 -0.0946 -0.3469
   71MOL   O37334113   5.631   0.784   4.025  0.6769  0.1744 -0.0935
   71MOL   H37434114   5.899   0.877   3.475 -1.9971  1.0752  0.0850
   71MOL   H37534115   5.882   0.987   3.355 -1.4950  1.1396  3.1947
   71MOL   H37634116   5.697   0.801   3.274 -0.5550 -2.0904  1.3034
   71MOL   H37734117   5.654   0.938   3.369 -1.1577 -0.7206 -2.2534
   71MOL   H37834118   5.725   0.803   3.579 -0.8256  2.4449 -0.9539
   71MOL   H37934119   5.759   0.661   3.483  0.3583 -0.1554 -2.3379
   71MOL   H38034120   5.477   0.799   3.525  2.1637  1.8202  0.2246
   71MOL   H38134121   5.506   0.666   3.423 -2.1168  0.0659  0.4426
   71MOL   H38234122   5.614   0.560   3.865  0.0063  0.0519  1.7809
   71MOL   H38334123   5.480   0.471   3.840 -0.3067 -0.3388  0.1333
   71MOL   H38434124   5.373   0.683   3.975  0.9494  0.8797 -2.1157
   71MOL   H38534125   5.426   0.530   4.044  0.7619 -0.6219 -0.0991
   71MOL   O38634126   5.523   0.678   4.205  0.3203  0.6699  0.5395
   71MOL   C38734127   5.596   0.754   4.302 -0.1505 -0.1203  0.1239
   71MOL   C38834128   5.727   0.679   4.348  0.3347  0.2691  0.0902
   71MOL   C38934129   5.692   0.595   4.465 -0.4881 -0.2874  0.2142
   71MOL   C39034130   5.807   0.512   4.514  0.4522 -0.5970  0.0183
   71MOL   O39134131   5.920   0.594   4.557  0.2962  0.3592  0.2825
   71MOL   C39234132   5.917   0.646   4.685 -0.9439 -0.1376 -0.4456
   71MOL   O39334133   5.821   0.642   4.757 -0.3009 -0.1269 -0.1674
   71MOL   C39434134   6.057   0.701   4.728  0.3915 -0.2657 -0.0778
   71MOL   C39534135   6.043   0.789   4.853  0.7610 -0.1442  0.1997
   71MOL   C39634136   6.036   0.708   4.982 -0.7625  0.1932 -0.1714
   71MOL   O39734137   6.142   0.659   5.036  0.4958  0.7657 -0.0274
   71MOL   H39834138   5.609   0.853   4.260 -4.4638  1.1131  1.4639
   71MOL   H39934139   5.532   0.777   4.387  0.1817  0.5802  0.1804
   71MOL   H40034140   5.803   0.752   4.378  1.0674 -0.2780 -0.4077
   71MOL   H40134141   5.757   0.613   4.266  0.0076  0.7054 -0.3839
   71MOL   H40234142   5.613   0.528   4.429 -1.2185  1.6891 -1.9455
   71MOL   H40334143   5.655   0.645   4.555 -1.6681  1.6981 -1.3385
   71MOL   H40434144   5.769   0.445   4.591 -1.2662  0.7897  0.4048
   71MOL   H40534145   5.826   0.446   4.429 -1.4411 -1.3778  0.1897
   71MOL   H40634146   6.101   0.753   4.643 -0.0173  0.3884  0.1038
   71MOL   H40734147   6.112   0.609   4.748  1.5646  0.9425  2.5308
   71MOL   H40834148   6.126   0.859   4.867  2.4230 -1.6941 -1.5859
   71MOL   H40934149   5.960   0.859   4.854 -1.2027 -2.2755 -3.0126
   71MOL   O41034150   5.913   0.716   5.028 -0.4794  0.4219 -0.0678
   71MOL   C41134151   5.890   0.643   5.150 -0.6188 -0.2104 -0.1651
   71MOL   C41234152   5.749   0.676   5.200 -1.0648  0.5547 -0.2072
   71MOL   C41334153   5.626   0.618   5.120  0.6874  0.5627  0.0570
   71MOL   C41434154   5.498   0.682   5.181  0.0322 -0.1462  0.5242
   71MOL   O41534155   5.421   0.748   5.087 -0.3173 -0.5204 -0.2553
   71MOL   C41634156   5.450   0.876   5.056  0.3248  0.7362 -0.1093
   71MOL   O41734157   5.531   0.948   5.114 -0.3170 -0.4564  0.1881
   71MOL   C41834158   5.366   0.925   4.935 -0.0189  0.4635 -0.3926
   71MOL   C41934159   5.435   0.899   4.800 -0.3748  0.1807 -0.0571
   71MOL   C42034160   5.356   0.821   4.702  0.3376 -0.1491 -0.3585
   71MOL   O42134161   5.332   0.856   4.586 -0.0766  0.1331  0.4114
   71MOL   H42234162   5.900   0.537   5.129 -3.0678 -0.4120 -0.4580
   71MOL   H42334163   5.961   0.674   5.226  0.6355 -2.2323 -0.4764
   71MOL   H42434164   5.743   0.784   5.211 -1.4596  0.7363 -2.1105
   71MOL   H42534165   5.746   0.642   5.304  1.0018 -0.1930 -0.3697
   71MOL   H42634166   5.634   0.510   5.127  1.3216  0.4575 -2.0492
   71MOL   H42734167   5.634   0.640   5.013  2.0574 -1.6475 -0.3327
   71MOL   H42834168   5.448   0.600   5.232  2.2348 -1.5108  0.5045
   71MOL   H42934169   5.527   0.747   5.264 -0.7421 -0.0688  0.7443
   71MOL   H43034170   5.369   1.034   4.946  1.3460  0.5736 -1.6717
   71MOL   H43134171   5.260   0.900   4.939  0.4128 -1.1621  1.5032
   71MOL   H43234172   5.474   0.995   4.768  1.2346  0.0809  1.5170
   71MOL   H43334173   5.523   0.835   4.811 -0.8221 -0.4849 -0.2528
   71MOL   O43434174   5.304   0.713   4.762 -0.5616 -0.3359  0.5999
   71MOL   C43534175   5.238   0.613   4.685 -0.7992 -0.0481  0.6148
   71MOL   C43634176   5.328   0.500   4.646 -0.1336 -0.3016 -0.8988
   71MOL   C43734177   5.339   0.403   4.759 -0.0524  0.1589  0.5075
   71MOL   C43834178   5.423   0.286   4.718  0.1322  0.2044 -0.3988
   71MOL   O43934179   5.408   0.165   4.791  0.2768  0.1407 -0.4346
   71MOL   C44034180   5.456   0.164   4.921  0.5359  0.0480  0.2999
   71MOL   O44134181   5.512   0.262   4.973  0.3043  0.3177 -0.3330
   71MOL   C44234182   5.418   0.041   4.998 -0.4500 -0.0757 -0.7419
   71MOL   C44334183   5.268   0.027   5.016 -0.6101 -0.2794  0.0347
   71MOL   C44434184   5.201   0.104   5.133 -0.6272  0.0826 -0.3268
   71MOL   O44534185   5.165   0.043   5.237 -0.1644  0.3566  0.5801
   71MOL   H44634186   5.151   0.587   4.743 -0.2579 -0.8578  1.0648
   71MOL   H44734187   5.207   0.655   4.589 -0.8713  0.6721  0.9497
   71MOL   H44834188   5.427   0.536   4.617 -0.6536  2.0057  0.0807
   71MOL   H44934189   5.279   0.463   4.556 -2.2315  3.3677 -1.3924
   71MOL   H45034190   5.242   0.373   4.798 -0.1724 -0.1409 -0.0095
   71MOL   H45134191   5.392   0.454   4.839  0.9405  0.8620 -0.5863
   71MOL   H45234192   5.398   0.270   4.613  1.8867  2.8263 -1.2662
   71MOL   H45334193   5.524   0.325   4.724 -0.6044  1.8557  1.9799
   71MOL   H45434194   5.471   0.055   5.093 -1.1959 -2.0871 -0.0091
   71MOL   H45534195   5.458   7.833   4.939 -0.5550  1.0759 -2.4748
   71MOL   H45634196   5.232   0.063   4.920 -2.3573  0.5042  0.9643
   71MOL   H45734197   5.223   7.802   5.025 -3.6387  1.1865  1.7294
   71MOL   O45834198   5.187   0.235   5.121  0.6806  0.1392  0.3218
   71MOL   C45934199   5.088   0.299   5.204 -0.0185  0.4931 -0.4805
   71MOL   C46034200   5.045   0.430   5.145  0.4401  0.1077  0.5753
   71MOL   C46134201   5.142   0.536   5.138 -0.4162  0.5418 -0.8185
   71MOL   C46234202   5.089   0.676   5.085  1.0092  0.5174 -0.6415
   71MOL   O46334203   4.986   0.741   5.163  0.0037  0.2690 -0.4739
   71MOL   C46434204   5.023   0.829   5.261 -0.1453  0.0593 -0.0093
   71MOL   O46534205   5.141   0.855   5.290 -0.0251 -0.1415 -0.5127
   71MOL   C46634206   4.901   0.879   5.345  0.5791  0.4930 -0.7531
   71MOL   C46734207   4.875   0.779   5.455 -0.4521 -0.0583  0.3637
   71MOL   C46834208   4.735   0.748   5.507  0.3000 -0.2215 -0.4245
   71MOL   O46934209   4.630   0.785   5.454  0.0150  0.1556 -0.0466
   71MOL   H47034210   4.995   0.242   5.208  0.3946 -0.2843 -1.6487
   71MOL   H47134211   5.118   0.313   5.308  0.6635  0.5051 -0.6727
   71MOL   H47234212   4.950   0.470   5.182  0.4820 -0.1601  0.9733
   71MOL   H47334213   5.018   0.398   5.045 -0.8651  1.5556  0.4355
   71MOL   H47434214   5.232   0.500   5.088  0.4055  1.5549 -0.1028
   71MOL   H47534215   5.171   0.547   5.242 -0.8590 -0.0850 -0.6286
   71MOL   H47634216   5.174   0.745   5.084  1.1811  0.3039 -1.5436
   71MOL   H47734217   5.043   0.657   4.988 -0.6776 -1.7683  0.5523
   71MOL   H47834218   4.817   0.865   5.276 -0.6629 -1.8523  1.1672
   71MOL   H47934219   4.900   0.983   5.379 -1.6747 -0.5280  2.5159
   71MOL   H48034220   4.919   0.682   5.434  1.7243  0.4276  2.4404
   71MOL   H48134221   4.942   0.801   5.538  0.0747  3.1011 -0.8150
   71MOL   H48234222   4.727   0.673   5.585  1.6251 -2.3329 -2.2675
   72MOL     O134223   4.194   4.161   4.938  0.4038 -0.2779  0.1177
   72MOL     C234224   4.254   4.286   4.950  0.8814  0.0696 -0.1951
   72MOL     C334225   4.371   4.285   5.049 -0.1876  0.1859 -0.0599
   72MOL     C434226   4.355   4.245   5.198 -0.5391 -0.7445 -0.2505
   72MOL     C534227   4.304   4.094   5.230  0.0402  0.0187  0.4331
   72MOL     O634228   4.274   4.082   5.373  0.5786 -0.2961  0.2099
   72MOL     C734229   4.261   3.965   5.430  0.2190  0.2035 -0.0933
   72MOL     O834230   4.275   3.856   5.374  0.2600  0.0769  0.5730
   72MOL     C934231   4.228   3.979   5.583 -0.5103 -0.0020  0.8707
   72MOL    C1034232   4.153   4.107   5.626  0.1904 -0.0974 -0.1467
   72MOL    C1134233   4.002   4.091   5.605  0.5209  0.1960 -0.3286
   72MOL    O1234234   3.947   4.041   5.509 -0.2523 -0.6487  0.1368
   72MOL    H1334235   4.300   4.306   4.853 -0.4955 -1.0456 -1.0975
   72MOL    H1434236   4.180   4.364   4.969  1.2436 -0.1072  2.1727
   72MOL    H1534237   4.412   4.386   5.063  0.3549 -0.1334  0.7166
   72MOL    H1634238   4.448   4.216   5.015 -0.9721 -0.8280  0.1999
   72MOL    H1734239   4.288   4.318   5.244  0.1682  1.2950 -2.3500
   72MOL    H1834240   4.448   4.263   5.251 -0.7028 -2.3623  0.6184
   72MOL    H1934241   4.216   4.065   5.174 -0.6815 -0.9745  2.0455
   72MOL    H2034242   4.377   4.019   5.197  0.6728 -0.2142  2.2936
   72MOL    H2134243   4.316   3.989   5.646 -0.7593  4.1202  0.7041
   72MOL    H2234244   4.171   3.892   5.616  1.6160 -0.5309  3.2112
   72MOL    H2334245   4.162   4.116   5.734 -0.5996  1.3857 -0.1834
   72MOL    H2434246   4.196   4.199   5.587  1.9182 -0.1112  1.6677
   72MOL    H2534247   4.115   4.163   4.886 -1.1289 -1.6781  2.2959
   72MOL    O2634248   3.947   4.134   5.714 -0.1295 -0.6666 -0.4585
   72MOL    C2734249   3.810   4.144   5.724 -0.0303  0.0054 -0.1569
   72MOL    C2834250   3.757   4.283   5.657  0.1194  0.0901 -0.5273
   72MOL    C2934251   3.605   4.287   5.641  0.1901  0.2042  1.0542
   72MOL    C3034252   3.549   4.404   5.552  0.8417  0.2470 -0.5521
   72MOL    O3134253   3.578   4.525   5.611  0.1438 -0.2310 -0.5137
   72MOL    C3234254   3.649   4.620   5.545  0.4613  0.1284  0.0048
   72MOL    O3334255   3.706   4.597   5.436 -0.4021 -0.3762 -0.4611
   72MOL    C3434256   3.621   4.759   5.601  0.0129  0.8369 -0.5300
   72MOL    C3534257   3.511   4.835   5.527 -0.3930  0.0374  0.1876
   72MOL    C3634258   3.576   4.943   5.434 -0.2409  0.5005 -0.6419
   72MOL    O3734259   3.550   5.060   5.443 -0.0043  0.4126 -0.2093
   72MOL    H3834260   3.759   4.054   5.690  1.3393 -1.1392  0.7570
   72MOL    H3934261   3.782   4.145   5.829  2.1579  2.8367  0.4549
   72MOL    H4034262   3.793   4.293   5.555  0.5570 -0.3380 -0.4190
   72MOL    H4134263   3.800   4.362   5.718  0.8060 -0.1530 -0.6900
   72MOL    H4234264   3.555   4.302   5.737  0.2922  0.7869  1.0200
   72MOL    H4334265   3.566   4.194   5.599  1.4115  1.1895 -2.4612
   72MOL    H4434266   3.583   4.379   5.452 -1.0566 -1.3368 -0.8406
   72MOL    H4534267   3.443   4.380   5.547  0.6333  0.3398  2.2003
   72MOL    H4634268   3.712   4.820   5.596  0.5141  0.2665  1.5258
   72MOL    H4734269   3.588   4.752   5.704 -0.6178  0.2091 -0.7684
   72MOL    H4834270   3.434   4.769   5.486 -0.0918 -1.6672  2.2842
   72MOL    H4934271   3.452   4.884   5.604  2.5017  1.9491  1.2477
   72MOL    O5034272   3.661   4.887   5.348  0.4330  0.0881 -0.0583
   72MOL    C5134273   3.713   4.959   5.235 -0.0276 -0.5561 -0.8199
   72MOL    C5234274   3.849   4.903   5.198 -0.7172  0.1770  0.0038
   72MOL    C5334275   3.855   4.762   5.140 -0.2345  0.2727  0.7227
   72MOL    C5434276   3.806   4.740   4.998 -0.4909 -0.4811 -0.7597
   72MOL    O5534277   3.667   4.759   4.987  0.3498  0.7313  0.1466
   72MOL    C5634278   3.586   4.652   4.990  0.9006 -0.2161 -0.1500
   72MOL    O5734279   3.623   4.531   5.001  0.3205 -0.5000  0.1078
   72MOL    C5834280   3.435   4.690   4.981 -0.6129  0.4868  1.4608
   72MOL    C5934281   3.348   4.684   5.114  0.4245 -0.6540 -0.4225
   72MOL    C6034282   3.332   4.551   5.182  0.3552  0.5228 -0.1037
   72MOL    O6134283   3.407   4.507   5.268 -0.0663 -0.3558 -0.1708
   72MOL    H6234284   3.645   4.959   5.150  0.5993  0.2402 -1.3297
   72MOL    H6334285   3.725   5.065   5.261  0.1036 -0.6005 -0.6976
   72MOL    H6434286   3.905   4.890   5.290 -1.6037 -0.0892  0.5129
   72MOL    H6534287   3.898   4.978   5.135 -2.2766  1.3048  0.1040
   72MOL    H6634288   3.796   4.692   5.199 -0.5765 -1.3713 -1.5026
   72MOL    H6734289   3.959   4.731   5.157  0.5650  2.1059 -0.6011
   72MOL    H6834290   3.861   4.812   4.938 -1.0386  1.5135  1.0752
   72MOL    H6934291   3.829   4.648   4.944  2.5658 -0.2307  0.0466
   72MOL    H7034292   3.391   4.628   4.903  0.4860 -1.2884  2.2108
   72MOL    H7134293   3.436   4.786   4.930 -2.0300  0.8783  2.1476
   72MOL    H7234294   3.377   4.759   5.187  3.1344 -1.8116 -0.2675
   72MOL    H7334295   3.255   4.732   5.083  0.6133  0.2376  0.3663
   72MOL    O7434296   3.222   4.490   5.149  0.3421 -0.7549  0.3773
   72MOL    C7534297   3.172   4.377   5.218 -0.8400  0.4524 -0.4336
   72MOL    C7634298   3.019   4.400   5.260 -0.1121 -0.9195 -0.4698
   72MOL    C7734299   2.955   4.279   5.333 -0.1733  0.0501 -0.1911
   72MOL    C7834300   2.847   4.324   5.426 -0.2880  0.1815  0.3971
   72MOL    O7934301   2.778   4.208   5.458 -0.6768 -1.1470 -0.1984
   72MOL    C8034302   2.679   4.220   5.548  0.4933  0.1820  0.3579
   72MOL    O8134303   2.613   4.321   5.576 -0.3487  0.0710 -0.4265
   72MOL    C8234304   2.649   4.087   5.614 -0.5586 -0.1099 -0.0686
   72MOL    C8334305   2.771   3.996   5.643  0.7166  0.7831  0.4921
   72MOL    C8434306   2.805   4.000   5.795  0.7167  0.8148  0.0352
   72MOL    O8534307   2.737   4.067   5.873 -0.3496 -0.5237 -0.4796
   72MOL    H8634308   3.174   4.293   5.148 -2.0273  0.6177 -0.6782
   72MOL    H8734309   3.232   4.348   5.304 -0.5565  1.5256 -0.2709
   72MOL    H8834310   2.954   4.420   5.175  1.8060 -0.2330 -1.8237
   72MOL    H8934311   3.010   4.494   5.314  0.3889 -0.7788 -0.6257
   72MOL    H9034312   3.029   4.230   5.396  1.5358  1.0211 -1.3928
   72MOL    H9134313   2.926   4.206   5.259 -0.1033  0.3532 -0.5185
   72MOL    H9234314   2.902   4.374   5.506  0.0826 -1.8865  1.4592
   72MOL    H9334315   2.789   4.408   5.387  1.3360  0.7062 -0.9433
   72MOL    H9434316   2.593   4.017   5.552  1.0695 -1.0659 -0.5021
   72MOL    H9534317   2.590   4.096   5.705  0.6672 -0.6006  0.7893
   72MOL    H9634318   2.748   3.890   5.632  0.5940  0.9765 -1.2408
   72MOL    H9734319   2.860   4.022   5.584  1.5796  1.4268  2.0453
   72MOL    O9834320   2.911   3.918   5.833  0.1123 -0.4463 -0.2171
   72MOL    C9934321   2.933   3.897   5.968 -0.0143 -0.0707 -0.4108
   72MOL   C10034322   3.033   3.778   5.981  1.1120 -0.5436  0.0618
   72MOL   C10134323   2.951   3.650   5.984 -0.6808  0.4035  0.5946
   72MOL   C10234324   3.037   3.528   6.021  0.5505  0.4655  0.3839
   72MOL   O10334325   3.143   3.511   5.927 -0.4223 -0.0677  0.4035
   72MOL   C10434326   3.231   3.415   5.950  0.1184  0.6640  0.0064
   72MOL   O10534327   3.223   3.325   6.033  0.1421  0.0273  0.1881
   72MOL   C10634328   3.362   3.437   5.884  0.9704 -0.0019  0.4903
   72MOL   C10734329   3.461   3.317   5.878 -0.1997 -0.7383 -0.5099
   72MOL   C10834330   3.480   3.275   5.730 -0.0833 -0.0548 -0.1335
   72MOL   O10934331   3.595   3.257   5.689  0.0689 -0.0005  0.5450
   72MOL   H11034332   2.985   3.983   6.008 -1.5847 -0.0215  1.5983
   72MOL   H11134333   2.839   3.883   6.022  0.0505  0.3459 -0.1940
   72MOL   H11234334   3.090   3.786   6.073  1.6574 -0.3983 -0.2840
   72MOL   H11334335   3.108   3.784   5.902  1.1124 -0.4809  0.0670
   72MOL   H11434336   2.895   3.643   5.891  0.0296  2.6777 -0.0218
   72MOL   H11534337   2.874   3.645   6.061  0.1198  0.3177  1.3939
   72MOL   H11634338   3.081   3.539   6.119 -0.1466  0.4921  0.7004
   72MOL   H11734339   2.986   3.432   6.014  1.7007 -0.0667 -1.0627
   72MOL   H11834340   3.414   3.519   5.932  1.7143 -0.6066  0.7257
   72MOL   H11934341   3.341   3.472   5.783  1.1472 -1.3972 -0.0397
   72MOL   H12034342   3.560   3.340   5.919  0.3051  0.7227 -2.4628
   72MOL   H12134343   3.420   3.235   5.935  0.3109 -0.8546 -0.3079
   72MOL   O12234344   3.363   3.271   5.654 -0.1843  0.3882 -0.0834
   72MOL   C12334345   3.372   3.235   5.514  0.5515  0.3789 -0.1562
   72MOL   C12434346   3.378   3.352   5.416 -0.0966  0.3509  0.3945
   72MOL   C12534347   3.495   3.453   5.434  0.9412  0.1643  1.0244
   72MOL   C12634348   3.500   3.559   5.320 -0.0224  0.1100 -0.7096
   72MOL   O12734349   3.596   3.659   5.342  0.1461 -0.1781 -1.0889
   72MOL   C12834350   3.558   3.777   5.396  0.0216  0.3044  0.3077
   72MOL   O12934351   3.458   3.799   5.458  0.0216 -0.2796 -0.5604
   72MOL   C13034352   3.665   3.889   5.362  0.2267 -0.0948 -0.7504
   72MOL   C13134353   3.631   4.025   5.417 -0.0195  0.3193 -0.1405
   72MOL   C13234354   3.520   4.089   5.343 -0.1371  0.4140  0.1540
   72MOL   O13334355   3.417   4.126   5.398 -0.2200  0.4259  0.6316
   72MOL   H13434356   3.454   3.162   5.511  0.2408 -0.0521  1.3573
   72MOL   H13534357   3.286   3.168   5.508  0.1356  0.9370 -0.4991
   72MOL   H13634358   3.282   3.403   5.418 -0.0751  0.4195 -0.1270
   72MOL   H13734359   3.368   3.315   5.313 -0.7360 -0.6241  0.8026
   72MOL   H13834360   3.593   3.406   5.441  0.4444 -0.9988  0.2703
   72MOL   H13934361   3.478   3.513   5.524  1.4149 -0.2193  1.3668
   72MOL   H14034362   3.534   3.515   5.226 -2.2817  0.2982 -1.6545
   72MOL   H14134363   3.401   3.603   5.311  0.6118  1.4699 -1.0646
   72MOL   H14234364   3.663   3.894   5.253 -0.0345  2.6778 -0.6555
   72MOL   H14334365   3.766   3.859   5.387  0.5512  1.3264 -0.3241
   72MOL   H14434366   3.585   4.016   5.515 -0.4164  3.7110  0.0350
   72MOL   H14534367   3.724   4.082   5.422  0.6164 -0.7767  0.7604
   72MOL   O14634368   3.544   4.108   5.215 -0.8330  0.0786 -0.4439
   72MOL   C14734369   3.439   4.142   5.124  0.1894  0.1089  0.6578
   72MOL   C14834370   3.482   4.185   4.988  0.6301  0.0671 -0.2467
   72MOL   C14934371   3.362   4.222   4.895  0.2562 -1.0866 -0.5037
   72MOL   C15034372   3.404   4.286   4.764 -0.6270 -0.4417  0.4333
   72MOL   O15134373   3.476   4.193   4.694 -0.4944  0.2917  0.2792
   72MOL   C15234374   3.423   4.118   4.601 -0.6381 -0.2842  0.0140
   72MOL   O15334375   3.304   4.121   4.568  0.0005  1.1283  0.0906
   72MOL   C15434376   3.515   4.028   4.527  0.3365 -0.5205  0.5109
   72MOL   C15534377   3.565   4.072   4.393  0.0940  0.1158  0.0241
   72MOL   C15634378   3.456   4.044   4.287  0.1830  0.1446  0.2126
   72MOL   O15734379   3.419   4.133   4.207  0.0121  0.7840 -0.0301
   72MOL   H15834380   3.370   4.058   5.120  0.2779  0.0249  0.9238
   72MOL   H15934381   3.382   4.223   5.168  0.9074  1.1215 -0.2256
   72MOL   H16034382   3.549   4.111   4.944  1.3398  1.3628 -1.4027
   72MOL   H16134383   3.548   4.272   4.990  1.2169 -0.3230 -1.5819
   72MOL   H16234384   3.308   4.289   4.962  2.3408  1.2393 -1.0802
   72MOL   H16334385   3.290   4.141   4.880  0.0341 -1.3709  1.9325
   72MOL   H16434386   3.312   4.311   4.709 -0.5283  0.7148  0.7832
   72MOL   H16534387   3.459   4.379   4.775 -1.9826  0.1697  2.2860
   72MOL   H16634388   3.468   3.930   4.518 -1.6469  0.5454 -0.9043
   72MOL   H16734389   3.597   4.007   4.596 -0.8758 -0.2123  2.0932
   72MOL   H16834390   3.598   4.175   4.381 -0.1341  0.1444 -0.3477
   72MOL   H16934391   3.663   4.026   4.374  0.9014  1.0115  1.8548
   72MOL   O17034392   3.393   3.925   4.301  0.1005 -0.0325  0.3845
   72MOL   C17134393   3.297   3.872   4.210  0.0481 -0.0528  0.8153
   72MOL   C17234394   3.240   3.739   4.264  0.2657  0.2182 -0.5445
   72MOL   C17334395   3.174   3.649   4.162 -0.4744 -0.0196  0.6207
   72MOL   C17434396   3.269   3.579   4.066  0.1119 -0.1412  0.1859
   72MOL   O17534397   3.281   3.652   3.947 -0.2960  0.2701  0.3804
   72MOL   C17634398   3.379   3.613   3.856  0.9102  0.9494 -0.0783
   72MOL   O17734399   3.429   3.500   3.847  0.0392  0.2379 -0.0316
   72MOL   C17834400   3.416   3.730   3.759  0.0274  0.1583  0.0380
   72MOL   C17934401   3.470   3.690   3.631 -0.2893 -0.0033 -0.1818
   72MOL   C18034402   3.372   3.731   3.525  0.8574  0.7671  0.3645
   72MOL   O18134403   3.398   3.805   3.433 -0.6748  0.5021  0.2297
   72MOL   H18234404   3.221   3.948   4.193 -0.4895 -0.6826  0.4101
   72MOL   H18334405   3.344   3.854   4.114 -0.4885 -0.1996  0.5811
   72MOL   H18434406   3.166   3.767   4.339  1.0533 -1.1125  0.7377
   72MOL   H18534407   3.312   3.685   4.325 -1.9525 -1.1099  0.9515
   72MOL   H18634408   3.091   3.697   4.110 -0.1609  0.2572  0.3734
   72MOL   H18734409   3.124   3.571   4.219 -1.0131 -0.2011 -0.0866
   72MOL   H18834410   3.361   3.566   4.124  0.2775  0.1736 -0.0058
   72MOL   H18934411   3.236   3.476   4.055  2.1403 -1.0744  2.2626
   72MOL   H19034412   3.485   3.790   3.818  0.4899  1.2382 -1.5615
   72MOL   H19134413   3.333   3.797   3.740 -0.6145 -0.9723 -1.2355
   72MOL   H19234414   3.569   3.729   3.607 -0.2187 -1.1784 -1.9481
   72MOL   H19334415   3.493   3.583   3.629  0.9050  0.1753  2.1980
   72MOL   O19434416   3.246   3.677   3.544  0.3781 -0.5902 -0.0374
   72MOL   C19534417   3.137   3.723   3.465  0.9694 -0.1109 -0.0080
   72MOL   C19634418   3.016   3.670   3.553 -0.2540  0.1871  0.4986
   72MOL   C19734419   2.951   3.788   3.625 -0.3535  0.0642 -0.0543
   72MOL   C19834420   3.032   3.841   3.747  0.0933  0.8512 -0.8312
   72MOL   O19934421   2.936   3.856   3.851 -0.3694 -0.4524  0.0941
   72MOL   C20034422   2.969   3.909   3.970 -0.5886  0.2316  0.2995
   72MOL   O20134423   3.081   3.942   3.996 -0.5156 -0.5209 -0.5801
   72MOL   C20234424   2.855   3.920   4.065  0.4527  0.3483 -0.7750
   72MOL   C20334425   2.771   4.044   4.035 -0.1838 -0.6024 -0.1524
   72MOL   C20434426   2.857   4.172   4.039 -0.1028 -0.1036 -0.4725
   72MOL   O20534427   2.858   4.246   3.939 -0.7296  0.4794 -0.0425
   72MOL   H20634428   3.137   3.832   3.467 -1.0364 -0.0921 -0.3839
   72MOL   H20734429   3.138   3.693   3.360  2.3334  2.1272 -0.6739
   72MOL   H20834430   3.052   3.596   3.626  1.3890  0.7341  0.2580
   72MOL   H20934431   2.948   3.615   3.488  2.3103 -1.3026 -1.0163
   72MOL   H21034432   2.849   3.760   3.652  0.1422 -1.4177  0.2996
   72MOL   H21134433   2.939   3.866   3.550  0.6750 -0.1149 -0.4115
   72MOL   H21234434   3.100   3.760   3.772 -2.7401 -0.5958  2.6436
   72MOL   H21334435   3.088   3.931   3.721  0.3180  2.1767  3.7190
   72MOL   H21434436   2.880   3.909   4.170  0.8879  0.5816 -0.8528
   72MOL   H21534437   2.788   3.835   4.055 -0.4494  1.0713 -0.9785
   72MOL   H21634438   2.731   4.037   3.934  0.8815  0.7263 -0.6838
   72MOL   H21734439   2.694   4.068   4.108  0.8591  0.0829  0.7433
   72MOL   O21834440   2.911   4.201   4.154  0.1778  0.1822 -0.2396
   72MOL   C21934441   2.984   4.325   4.168 -0.3464 -0.0318  0.1117
   72MOL   C22034442   3.092   4.308   4.273 -0.2402 -0.2664  0.1531
   72MOL   C22134443   3.173   4.440   4.277 -0.7521  0.4391 -0.7769
   72MOL   C22234444   3.272   4.470   4.398  0.5116  0.1177  0.1924
   72MOL   O22334445   3.184   4.514   4.502  0.4040 -0.0559  0.6977
   72MOL   C22434446   3.237   4.575   4.620 -0.1656 -0.3315 -0.1437
   72MOL   O22534447   3.359   4.586   4.650  0.2498  0.0207 -0.1435
   72MOL   C22634448   3.138   4.638   4.710  0.0764  0.3877 -0.3465
   72MOL   C22734449   3.136   4.571   4.850  0.4396  0.4843  0.5018
   72MOL   C22834450   3.025   4.466   4.855  0.9358  0.3734  0.5172
   72MOL   O22934451   2.928   4.472   4.928  0.1440  0.1900 -0.3764
   72MOL   H23034452   3.021   4.366   4.074  1.2279 -2.2074 -0.2618
   72MOL   H23134453   2.902   4.381   4.212 -0.7959  0.3513 -1.1966
   72MOL   H23234454   3.158   4.223   4.254 -0.1255 -0.1554  0.0603
   72MOL   H23334455   3.039   4.275   4.362 -0.5875  0.1459  0.1008
   72MOL   H23434456   3.107   4.521   4.249  1.0581  1.5504 -1.9900
   72MOL   H23534457   3.250   4.444   4.199  0.5812 -1.4856  0.4014
   72MOL   H23634458   3.326   4.380   4.427  0.9801  0.5030  0.5251
   72MOL   H23734459   3.335   4.552   4.362 -1.3144  1.1836 -0.6281
   72MOL   H23834460   3.043   4.627   4.659  0.1875  3.7989 -1.4676
   72MOL   H23934461   3.170   4.741   4.725  0.7028  0.0200  0.9215
   72MOL   H24034462   3.228   4.520   4.879  0.2270 -1.6172 -2.3689
   72MOL   H24134463   3.102   4.642   4.926 -0.0574  0.7443  0.0382
   72MOL   O24234464   3.060   4.365   4.763 -0.2713 -0.1978 -0.1072
   72MOL   C24334465   2.968   4.261   4.753 -0.6293  0.5736  0.0546
   72MOL   C24434466   2.956   4.209   4.611 -0.0671  0.1170 -0.1168
   72MOL   C24534467   2.845   4.106   4.599 -0.4885  0.1198  0.1339
   72MOL   C24634468   2.815   4.070   4.450  0.5223 -0.0764  0.2801
   72MOL   O24734469   2.722   3.957   4.441 -0.1196 -0.3958 -0.3012
   72MOL   C24834470   2.759   3.827   4.428  0.7465  0.3448 -0.2527
   72MOL   O24934471   2.876   3.789   4.427 -0.1167  0.0756 -0.1488
   72MOL   C25034472   2.637   3.737   4.417  0.3891  0.5171  0.0744
   72MOL   C25134473   2.668   3.589   4.451  0.1477 -0.3477 -0.5783
   72MOL   C25234474   2.633   3.552   4.597 -0.2629 -0.1798  0.7713
   72MOL   O25334475   2.623   3.641   4.680 -0.2117  0.4743 -0.7065
   72MOL   H25434476   2.987   4.177   4.820  2.4848  0.9089 -0.3410
   72MOL   H25534477   2.865   4.290   4.777 -1.3450 -1.6162 -0.2802
   72MOL   H25634478   3.045   4.159   4.573 -0.2452 -1.6683  1.7087
   72MOL   H25734479   2.938   4.290   4.540 -1.9796 -0.3767 -0.2279
   72MOL   H25834480   2.750   4.140   4.642 -0.1249  0.8660  0.3648
   72MOL   H25934481   2.882   4.013   4.641 -1.4384 -0.1034  0.4869
   72MOL   H26034482   2.779   4.158   4.397 -0.6117 -0.6653  0.0720
   72MOL   H26134483   2.913   4.043   4.409 -0.5469 -1.5595 -1.3536
   72MOL   H26234484   2.601   3.736   4.314 -1.3967 -1.8305  0.6634
   72MOL   H26334485   2.560   3.785   4.478  0.8262  1.0241  0.2252
   72MOL   H26434486   2.604   3.526   4.389 -0.4538 -2.2446  1.9225
   72MOL   H26534487   2.769   3.563   4.421  0.4642  0.7329 -0.4961
   72MOL   O26634488   2.609   3.411   4.612 -0.3879  0.0382  0.2537
   72MOL   C26734489   2.598   3.351   4.739  0.1337 -0.4109 -0.5021
   72MOL   C26834490   2.703   3.242   4.765 -0.7825  0.0142 -0.0141
   72MOL   C26934491   2.704   3.197   4.917  0.2927 -0.0093 -0.0717
   72MOL   C27034492   2.822   3.106   4.945  0.3365 -0.0930  0.2262
   72MOL   O27134493   2.949   3.144   4.893  0.4741 -0.0781  0.4022
   72MOL   C27234494   3.052   3.052   4.887  0.0775  0.2280  0.1995
   72MOL   O27334495   3.053   2.931   4.924  0.7975  0.0599 -0.1618
   72MOL   C27434496   3.177   3.106   4.823 -0.0160 -0.5915 -0.6140
   72MOL   C27534497   3.288   3.157   4.908 -0.3387  0.2526 -0.3025
   72MOL   C27634498   3.276   3.302   4.949 -0.1964 -0.2077  0.3523
   72MOL   O27734499   3.357   3.392   4.916 -0.1528 -0.9181 -0.0975
   72MOL   H27834500   2.623   3.416   4.823 -2.6001  0.4064 -0.2882
   72MOL   H27934501   2.499   3.312   4.763 -0.2055  0.2856 -0.7520
   72MOL   H28034502   2.797   3.293   4.744 -0.0105 -0.8205  1.3588
   72MOL   H28134503   2.694   3.150   4.708  0.8300 -1.6564  2.3628
   72MOL   H28234504   2.613   3.144   4.943  0.7665 -0.4685  0.6786
   72MOL   H28334505   2.719   3.278   4.988 -2.1633  1.1303 -0.8132
   72MOL   H28434506   2.823   3.086   5.052 -0.9979 -0.9224  0.0970
   72MOL   H28534507   2.807   3.008   4.898  0.6026 -1.0508  2.0880
   72MOL   H28634508   3.159   3.175   4.740 -0.3917 -1.4049 -1.2193
   72MOL   H28734509   3.212   3.022   4.762  0.4548 -0.3435 -0.6935
   72MOL   H28834510   3.293   3.092   4.996  2.3952  0.0938 -0.5323
   72MOL   H28934511   3.380   3.145   4.851 -0.3658  0.9732 -0.4921
   72MOL   O29034512   3.179   3.312   5.045 -0.0191  0.6642  0.0699
   72MOL   C29134513   3.135   3.444   5.096  0.3257  0.4894 -0.2872
   72MOL   C29234514   2.986   3.457   5.111 -0.5932 -0.3152 -0.3319
   72MOL   C29334515   2.937   3.407   5.249 -0.6430 -0.5506  0.0008
   72MOL   C29434516   2.783   3.410   5.276 -0.6444  0.0573 -0.9909
   72MOL   O29534517   2.761   3.306   5.367 -0.8063 -0.0490 -0.2437
   72MOL   C29634518   2.689   3.196   5.338 -0.6458 -0.5613  0.1682
   72MOL   O29734519   2.661   3.159   5.222  0.1015  0.1572  0.0479
   72MOL   C29834520   2.658   3.111   5.459 -0.5026 -0.0109  0.5459
   72MOL   C29934521   2.567   3.183   5.552  0.2772 -0.5140 -0.7964
   72MOL   C30034522   2.470   3.094   5.634  0.9186 -0.2297  0.6250
   72MOL   O30134523   2.470   3.107   5.759  0.1710  0.4402 -0.6365
   72MOL   H30234524   3.193   3.476   5.184  1.8398 -1.9285 -0.3657
   72MOL   H30334525   3.159   3.530   5.032 -0.5823 -0.1626 -1.5069
   72MOL   H30434526   2.931   3.429   5.021  1.1147  0.3979 -1.6397
   72MOL   H30534527   2.964   3.564   5.104 -0.8168 -0.1907  1.9977
   72MOL   H30634528   2.978   3.464   5.332  1.6360  0.1266 -1.5429
   72MOL   H30734529   2.973   3.304   5.245  0.8341 -0.1030  1.3949
   72MOL   H30834530   2.756   3.513   5.299 -0.3179 -0.2521  0.8334
   72MOL   H30934531   2.739   3.384   5.179 -0.8667 -0.6408 -0.7051
   72MOL   H31034532   2.759   3.103   5.500 -0.4106  0.5316  0.4384
   72MOL   H31134533   2.606   3.019   5.433  1.5052 -0.6934 -1.1107
   72MOL   H31234534   2.625   3.237   5.626  0.8007 -1.9466 -0.1470
   72MOL   H31334535   2.504   3.261   5.508  1.0668  0.8975  0.5250
   72MOL   O31434536   2.390   3.013   5.564 -0.2741 -0.1429  0.6532
   72MOL   C31534537   2.275   2.953   5.625 -0.6787  1.2184 -0.2634
   72MOL   C31634538   2.160   2.942   5.524 -0.8183  0.4310 -0.1477
   72MOL   C31734539   2.150   3.076   5.446  0.4909  0.3655  0.5207
   72MOL   C31834540   2.015   3.095   5.375 -0.0993 -0.1026 -0.0589
   72MOL   O31934541   2.008   3.229   5.343  0.7843 -0.6045  0.2538
   72MOL   C32034542   1.896   3.277   5.279  0.6887 -0.4115  0.4799
   72MOL   O32134543   1.805   3.207   5.231  1.1188 -0.3421  0.8342
   72MOL   C32234544   1.914   3.426   5.275 -0.0171  0.0215  0.2679
   72MOL   C32334545   1.784   3.483   5.204 -0.4437  0.3883 -0.4407
   72MOL   C32434546   1.737   3.617   5.264  0.8295  0.1779  0.2643
   72MOL   O32534547   1.691   3.711   5.194 -0.1190  0.2256 -0.9108
   72MOL   H32634548   2.309   2.854   5.652  0.8354  1.5619 -0.9084
   72MOL   H32734549   2.247   3.007   5.716 -1.6354  0.0416  0.1499
   72MOL   H32834550   2.065   2.924   5.574  0.1611  0.4494  1.8118
   72MOL   H32934551   2.168   2.851   5.465  0.7942  2.5274 -3.3259
   72MOL   H33034552   2.227   3.069   5.369  0.6650 -2.1590  0.8613
   72MOL   H33134553   2.165   3.158   5.516 -0.1881 -0.4432  1.6296
   72MOL   H33234554   2.025   3.037   5.284  1.5374 -0.9233  0.6203
   72MOL   H33334555   1.933   3.059   5.438  1.2291 -0.2844  1.6074
   72MOL   H33434556   2.004   3.462   5.224 -0.3235  1.8694  1.0187
   72MOL   H33534557   1.931   3.463   5.376 -1.5696  1.3213  0.0659
   72MOL   H33634558   1.804   3.484   5.096 -0.6219 -1.6136 -0.5094
   72MOL   H33734559   1.700   3.415   5.216  0.8091 -1.4271 -1.6299
   72MOL   O33834560   1.741   3.615   5.393  0.1562  0.3836  0.0931
   72MOL   C33934561   1.732   3.737   5.463  0.4603  0.0515 -0.1090
   72MOL   C34034562   1.789   3.725   5.600 -0.3982 -0.0455 -0.1857
   72MOL   C34134563   1.938   3.717   5.612 -0.6008 -0.0605 -0.6521
   72MOL   C34234564   1.988   3.708   5.758  0.2964  0.2525 -0.0885
   72MOL   O34334565   2.124   3.705   5.773  0.7072 -0.0672 -0.3560
   72MOL   C34434566   2.190   3.821   5.765 -0.1068 -0.5484 -0.0597
   72MOL   O34534567   2.141   3.934   5.744 -0.0743 -0.1063  0.2949
   72MOL   C34634568   2.335   3.809   5.800  0.6991 -0.9509  0.6942
   72MOL   C34734569   2.352   3.813   5.960  0.3174  0.0175  0.9197
   72MOL   C34834570   2.463   3.721   5.998  0.2831 -0.1579  0.4955
   72MOL   O34934571   2.562   3.710   5.933  0.1231 -0.0828 -0.7455
   72MOL   H35034572   1.777   3.820   5.408  0.8213 -0.3273 -0.3845
   72MOL   H35134573   1.625   3.759   5.475  0.5275  1.0603 -1.2274
   72MOL   H35234574   1.740   3.635   5.638  1.2001 -0.1362  1.7386
   72MOL   H35334575   1.756   3.816   5.649  2.8732  1.6965 -1.1145
   72MOL   H35434576   1.979   3.809   5.571 -0.4206  0.2553  0.2253
   72MOL   H35534577   1.980   3.641   5.546  3.1311 -0.1954  1.7216
   72MOL   H35634578   1.940   3.788   5.814 -0.0980  0.3702 -0.5934
   72MOL   H35734579   1.951   3.625   5.818 -1.3802  1.1192  0.0989
   72MOL   H35834580   2.375   3.900   5.757 -0.9397 -1.8182 -2.8052
   72MOL   H35934581   2.365   3.709   5.768 -2.4699 -1.5073 -0.7103
   72MOL   H36034582   2.383   3.914   5.988  2.2949 -0.9209  2.1854
   72MOL   H36134583   2.261   3.769   6.000  0.6940 -0.1058  1.6409
   72MOL   O36234584   2.434   3.653   6.099  0.5581 -0.1283 -0.3991
   72MOL   C36334585   2.524   3.562   6.148 -0.4634 -0.2920  0.8722
   72MOL   C36434586   2.521   3.424   6.085 -0.4381 -0.1398  0.7238
   72MOL   C36534587   2.656   3.351   6.094  0.1940 -0.8142 -0.2147
   72MOL   C36634588   2.680   3.241   5.984  0.6396  0.5802  0.1139
   72MOL   O36734589   2.811   3.181   5.995 -0.5246 -0.1450  0.6985
   72MOL   C36834590   2.822   3.078   6.083  0.3530  0.7036  0.2067
   72MOL   O36934591   2.726   3.037   6.148  0.2622 -0.0680  0.0404
   72MOL   C37034592   2.958   3.007   6.077 -0.1434  0.3008  0.7655
   72MOL   C37134593   2.997   2.927   6.198 -0.0718  0.8917 -0.0903
   72MOL   C37234594   3.058   2.790   6.152  0.0221 -0.6919 -0.1697
   72MOL   O37334595   3.164   2.752   6.192  0.1579  0.2316 -0.1020
   72MOL   H37434596   2.622   3.602   6.124 -0.5987 -0.3584  0.2149
   72MOL   H37534597   2.510   3.541   6.254  1.1122 -1.2339  0.9044
   72MOL   H37634598   2.503   3.430   5.978  3.9481  0.4476 -0.0781
   72MOL   H37734599   2.443   3.358   6.125 -2.8223  2.0585 -0.1381
   72MOL   H37834600   2.670   3.306   6.192  1.2421 -0.5584 -0.2431
   72MOL   H37934601   2.729   3.430   6.078 -1.2608  0.1307 -2.5704
   72MOL   H38034602   2.604   3.164   5.998 -0.9157  1.7183 -1.8142
   72MOL   H38134603   2.675   3.281   5.883 -0.6015  0.7692  0.2451
   72MOL   H38234604   3.030   3.089   6.067 -0.1700  0.2548  0.1668
   72MOL   H38334605   2.974   2.951   5.985 -0.4811 -1.6324  1.8792
   72MOL   H38434606   3.045   2.994   6.269  0.4946 -1.4688  1.7856
   72MOL   H38534607   2.902   2.903   6.244  0.0757 -1.9221 -1.1645
   72MOL   O38634608   2.975   2.723   6.062  0.5858 -0.1951 -0.2729
   72MOL   C38734609   3.008   2.597   6.007  0.3074 -0.1428 -0.4455
   72MOL   C38834610   2.916   2.491   6.074  0.0463 -0.6637 -0.2281
   72MOL   C38934611   2.903   2.365   5.986 -0.3307 -0.1956  0.1940
   72MOL   C39034612   2.799   2.277   6.053  0.2644 -0.5736  0.2730
   72MOL   O39134613   2.669   2.339   6.044 -0.1798 -0.1102  0.0701
   72MOL   C39234614   2.558   2.267   6.071 -0.3339  0.4995  0.1237
   72MOL   O39334615   2.555   2.149   6.108  0.8332 -0.1232 -0.9960
   72MOL   C39434616   2.428   2.354   6.055  0.1369  0.0635 -0.3741
   72MOL   C39534617   2.335   2.338   6.177 -0.2236 -0.2042 -0.0473
   72MOL   C39634618   2.250   2.454   6.218 -0.0541 -0.0460 -0.2024
   72MOL   O39734619   2.285   2.571   6.206 -0.1165  0.1338  0.0250
   72MOL   H39834620   2.987   2.598   5.900  0.0265  1.2532 -0.3826
   72MOL   H39934621   3.116   2.583   6.010  0.2058 -0.6165  1.2358
   72MOL   H40034622   2.820   2.541   6.082 -1.2356 -2.8905 -1.0990
   72MOL   H40134623   2.957   2.483   6.174  2.8201  0.6320 -1.2178
   72MOL   H40234624   2.993   2.307   5.964 -1.8202 -2.1117 -1.0595
   72MOL   H40334625   2.859   2.388   5.889  0.2709 -0.3720 -0.1202
   72MOL   H40434626   2.798   2.182   6.000 -1.0062 -0.1915 -0.4098
   72MOL   H40534627   2.834   2.271   6.156  1.6225 -0.5040 -0.1845
   72MOL   H40634628   2.370   2.339   5.964 -1.3943  0.7303  0.4714
   72MOL   H40734629   2.466   2.457   6.056 -0.2241  0.2300 -1.7900
   72MOL   H40834630   2.269   2.255   6.152 -0.6684  0.3064 -0.5575
   72MOL   H40934631   2.396   2.318   6.265 -0.8647  0.2762  0.5012
   72MOL   O41034632   2.132   2.420   6.268  0.2628  0.3829 -0.0014
   72MOL   C41134633   2.047   2.520   6.322  0.0458  0.4072 -0.3701
   72MOL   C41234634   1.923   2.472   6.398  0.1727  1.0854 -0.3797
   72MOL   C41334635   1.954   2.404   6.531  0.1559  0.2596 -0.6285
   72MOL   C41434636   2.024   2.501   6.630 -0.1892  0.7322  0.1820
   72MOL   O41534637   1.948   2.624   6.651 -1.1222  0.4110 -0.2014
   72MOL   C41634638   2.018   2.747   6.671 -0.4081 -0.6221  0.4879
   72MOL   O41734639   2.138   2.749   6.677  0.4865  0.3636 -0.6569
   72MOL   C41834640   1.927   2.865   6.693  0.1431  0.1397 -0.6099
   72MOL   C41934641   2.014   2.993   6.690  0.0530  0.5852  0.4410
   72MOL   C42034642   2.072   3.027   6.829 -0.2783 -0.0309  0.3546
   72MOL   O42134643   1.996   3.060   6.927 -0.3880 -0.3409 -0.1950
   72MOL   H42234644   2.098   2.601   6.375 -1.4811  0.0177  1.7664
   72MOL   H42334645   2.002   2.572   6.238  0.9984  0.5872 -0.7760
   72MOL   H42434646   1.878   2.400   6.329  2.6379 -1.0631  0.1652
   72MOL   H42534647   1.860   2.561   6.410  0.1520  0.8214  1.6561
   72MOL   H42634648   1.993   2.302   6.535  2.0277  1.0556  2.1609
   72MOL   H42734649   1.855   2.393   6.575  0.0526 -2.6599 -1.4455
   72MOL   H42834650   2.040   2.449   6.725 -0.4993  0.6073  0.1676
   72MOL   H42934651   2.119   2.524   6.582 -0.9537 -0.5661 -2.0363
   72MOL   H43034652   1.878   2.868   6.790  2.0807  3.0231  0.3441
   72MOL   H43134653   1.850   2.888   6.619  0.0877 -2.7790 -1.5176
   72MOL   H43234654   2.093   2.985   6.615 -1.0578 -1.7512 -0.5436
   72MOL   H43334655   1.948   3.074   6.660  2.3027  1.1466 -3.3029
   72MOL   O43434656   2.206   3.015   6.835  0.0902  0.5643  0.3024
   72MOL   C43534657   2.272   3.001   6.954  0.2569  0.4497  0.1468
   72MOL   C43634658   2.345   2.867   6.950  0.3294  0.6596  0.0901
   72MOL   C43734659   2.447   2.841   7.071 -0.5620 -0.4546 -0.1203
   72MOL   C43834660   2.568   2.926   7.070  0.0623 -0.9748 -1.1656
   72MOL   O43934661   2.534   3.058   7.113  0.2066 -0.4685 -0.4429
   72MOL   C44034662   2.593   3.166   7.060 -0.4089 -0.3027  0.8937
   72MOL   O44134663   2.680   3.163   6.970  0.3915  0.0670 -0.3479
   72MOL   C44234664   2.540   3.299   7.111  0.6783 -0.4734 -0.3039
   72MOL   C44334665   2.384   3.314   7.126  0.4497  0.1141 -0.0427
   72MOL   C44434666   2.320   3.258   7.260 -0.0164 -0.1241  0.0184
   72MOL   O44534667   2.398   3.228   7.354  0.0275 -0.5338 -0.7625
   72MOL   H44634668   2.346   3.081   6.944 -0.0682  1.0325  2.1609
   72MOL   H44734669   2.205   3.019   7.038  1.9773 -0.4047  1.7434
   72MOL   H44834670   2.394   2.850   6.854  0.1567 -3.3162  0.6094
   72MOL   H44934671   2.267   2.791   6.958  1.3712 -0.2167  2.0133
   72MOL   H45034672   2.493   2.743   7.062 -0.2172 -0.1133 -2.2388
   72MOL   H45134673   2.400   2.847   7.169 -1.5951  2.4825 -0.7176
   72MOL   H45234674   2.648   2.904   7.140 -0.9402 -1.5489 -0.1837
   72MOL   H45334675   2.620   2.930   6.974  0.0445 -0.8579 -1.1711
   72MOL   H45434676   2.578   3.386   7.058  1.4574  0.3257  1.5114
   72MOL   H45534677   2.583   3.306   7.211  0.7596  0.5230 -0.4000
   72MOL   H45634678   2.352   3.418   7.132 -0.0809  0.0430 -1.4675
   72MOL   H45734679   2.333   3.275   7.038  0.1598  3.2490 -1.3372
   72MOL   O45834680   2.187   3.271   7.258 -0.1154 -0.2513 -0.3502
   72MOL   C45934681   2.121   3.236   7.383 -0.5311  0.5628 -0.6228
   72MOL   C46034682   1.975   3.202   7.369  0.2354 -0.4616 -0.9903
   72MOL   C46134683   1.895   3.156   7.488  0.0989  0.2025 -0.1142
   72MOL   C46234684   1.751   3.144   7.438 -0.7198 -0.1674 -0.1912
   72MOL   O46334685   1.657   3.148   7.540  0.1658 -0.0124 -0.1086
   72MOL   C46434686   1.534   3.100   7.513  0.3302 -0.6459 -0.0638
   72MOL   O46534687   1.488   3.066   7.403  0.3250  0.2682 -0.0849
   72MOL   C46634688   1.446   3.096   7.637  0.1893  0.3774  0.2348
   72MOL   C46734689   1.455   3.222   7.728 -0.5155  0.0156 -0.4612
   72MOL   C46834690   1.330   3.283   7.785  0.2440 -0.8305  0.1063
   72MOL   O46934691   1.235   3.216   7.818  0.9867 -0.3951  0.4114
   72MOL   H47034692   2.175   3.165   7.445 -1.0098 -0.1675 -1.0320
   72MOL   H47134693   2.125   3.332   7.435  0.2295 -0.5577  1.4176
   72MOL   H47234694   1.963   3.134   7.286  1.3206  0.1393 -1.6478
   72MOL   H47334695   1.936   3.296   7.330  0.6506  0.3301  0.4322
   72MOL   H47434696   1.907   3.233   7.564  1.8627  3.2601 -3.3464
   72MOL   H47534697   1.919   3.056   7.525  0.4345  0.1723 -0.4134
   72MOL   H47634698   1.713   3.229   7.380 -2.3044  0.7471  2.1054
   72MOL   H47734699   1.736   3.060   7.371 -0.9299  0.8451 -1.4426
   72MOL   H47834700   1.474   3.004   7.688 -3.1819 -0.9963 -0.3168
   72MOL   H47934701   1.343   3.089   7.604 -0.1838 -1.6314  1.7418
   72MOL   H48034702   1.531   3.216   7.807 -0.6847 -0.1094 -0.3088
   72MOL   H48134703   1.503   3.304   7.675 -0.3662  0.5421  0.4714
   72MOL   H48234704   1.332   3.390   7.806 -1.3508 -0.6046 -0.7457
   73MOL     O134705   0.055   7.083   6.533  0.1062 -0.1233 -0.4462
   73MOL     C234706   7.811   7.084   6.601  0.1871  0.4815  0.1236
   73MOL     C334707   7.738   7.210   6.546 -0.6530 -0.0510  0.2532
   73MOL     C434708   7.604   7.236   6.613 -0.6540 -0.1692  0.2712
   73MOL     C534709   7.511   7.334   6.541  0.2887  0.8191  0.0837
   73MOL     O634710   7.485   7.300   6.399  0.0839  0.5893 -0.0422
   73MOL     C734711   7.406   7.371   6.318 -0.7612 -0.6623 -0.5956
   73MOL     O834712   7.341   7.471   6.340 -0.2287 -0.1630  0.1858
   73MOL     C934713   7.399   7.294   6.185 -0.3710 -0.2730  0.2038
   73MOL    C1034714   7.460   7.368   6.063 -0.1505 -0.1516  0.1344
   73MOL    C1134715   7.617   7.380   6.065 -0.1262 -0.8025  0.1378
   73MOL    O1234716   7.679   7.352   5.964 -0.1808 -0.2687 -0.1433
   73MOL    H1334717   7.761   6.992   6.570 -2.3493  1.6967  0.4592
   73MOL    H1434718   7.816   7.092   6.710 -1.5547 -3.7749  0.6018
   73MOL    H1534719   7.702   7.198   6.444 -1.7885 -1.8904  0.8478
   73MOL    H1634720   7.799   7.300   6.550  0.0574 -0.5432  0.4433
   73MOL    H1734721   7.628   7.262   6.716 -0.5664 -0.4615  0.3255
   73MOL    H1834722   7.551   7.142   6.625 -1.6552  0.3914  0.2683
   73MOL    H1934723   7.415   7.340   6.593 -0.1098 -0.1715 -0.5145
   73MOL    H2034724   7.540   7.439   6.535  0.1317  0.9157  0.9236
   73MOL    H2134725   7.293   7.289   6.164 -0.8721  0.1742  2.4274
   73MOL    H2234726   7.432   7.192   6.206 -0.4754 -0.3178  0.1496
   73MOL    H2334727   7.417   7.331   5.971 -1.0412  0.0756  0.4538
   73MOL    H2434728   7.424   7.471   6.070  2.6945  1.0094 -1.3990
   73MOL    H2534729   0.034   7.054   6.446 -1.7817  0.7595 -0.2944
   73MOL    O2634730   7.676   7.410   6.179  0.8222 -0.6682 -0.0141
   73MOL    C2734731   7.814   7.453   6.185  0.2766 -0.3046 -0.1496
   73MOL    C2834732   0.037   7.345   6.236 -0.3075  0.3544  0.3390
   73MOL    C2934733   0.182   7.382   6.191  0.1049  0.8964 -0.4875
   73MOL    C3034734   0.297   7.342   6.281 -0.3039 -0.2468  0.7728
   73MOL    O3134735   0.419   7.388   6.225 -0.1613 -0.2427 -0.3812
   73MOL    C3234736   0.479   7.501   6.266  0.0602 -0.0343 -0.4223
   73MOL    O3334737   0.449   7.564   6.366  0.3202 -0.5726  0.1798
   73MOL    C3434738   0.604   7.533   6.192  0.3813  0.0666  0.3899
   73MOL    C3534739   0.562   7.580   6.052  0.0052 -0.1588  0.3599
   73MOL    C3634740   0.661   7.556   5.938  0.0586 -0.4095 -0.5227
   73MOL    O3734741   0.757   7.479   5.959 -0.3697 -0.1018 -0.5433
   73MOL    H3834742   7.854   7.480   6.088  0.7017 -0.6207 -0.0618
   73MOL    H3934743   7.827   7.540   6.250  0.4044  1.0560 -1.9675
   73MOL    H4034744   0.011   7.244   6.205  0.9391  0.0159  0.3717
   73MOL    H4134745   0.025   7.349   6.345 -0.3171 -0.6145  0.3752
   73MOL    H4234746   0.186   7.490   6.197  0.3082  0.8588  0.2177
   73MOL    H4334747   0.210   7.348   6.092  1.8955  1.0560 -0.0603
   73MOL    H4434748   0.289   7.395   6.375 -0.3555  0.3592  0.4268
   73MOL    H4534749   0.311   7.234   6.293  0.1808 -0.4225 -1.1694
   73MOL    H4634750   0.664   7.442   6.193  0.2979  0.0095  0.2380
   73MOL    H4734751   0.657   7.612   6.245  1.2267  0.4688 -1.0198
   73MOL    H4834752   0.468   7.532   6.028 -0.8087  1.5057  0.1317
   73MOL    H4934753   0.537   7.686   6.057 -0.0457 -0.0482 -1.9493
   73MOL    O5034754   0.629   7.615   5.820 -0.3909 -0.0765 -0.3212
   73MOL    C5134755   0.694   7.579   5.702 -0.6829 -0.1706  0.3898
   73MOL    C5234756   0.597   7.477   5.639 -0.2603  0.0587 -0.1373
   73MOL    C5334757   0.641   7.404   5.516  0.1241  0.0835  0.0336
   73MOL    C5434758   0.530   7.299   5.473 -0.3763  0.8317  0.0248
   73MOL    O5534759   0.426   7.369   5.406  0.3971 -0.0918 -0.4697
   73MOL    C5634760   0.306   7.317   5.397  0.6723 -0.5454 -0.0750
   73MOL    O5734761   0.263   7.214   5.451  0.4372 -0.1250  0.5220
   73MOL    C5834762   0.211   7.408   5.318 -0.6644  0.6051  0.0908
   73MOL    C5934763   0.266   7.430   5.175 -0.0282 -0.3034 -0.2662
   73MOL    C6034764   0.311   7.573   5.173  0.0136  0.7260  1.0425
   73MOL    O6134765   0.253   7.659   5.110  0.6364 -0.8876  0.3849
   73MOL    H6234766   0.707   7.669   5.641 -3.3723 -0.7609 -1.1757
   73MOL    H6334767   0.790   7.533   5.722 -0.0587  0.8339 -0.2365
   73MOL    H6434768   0.496   7.514   5.625 -0.9710 -1.1572  1.5357
   73MOL    H6534769   0.584   7.398   5.714  1.8081  0.1155  0.3176
   73MOL    H6634770   0.732   7.345   5.523  1.2366  1.8353  0.6842
   73MOL    H6734771   0.659   7.472   5.433  0.6081  0.3770  0.3777
   73MOL    H6834772   0.576   7.229   5.404 -2.5760 -1.6854  1.0339
   73MOL    H6934773   0.491   7.246   5.559  0.8655 -2.7433 -1.5225
   73MOL    H7034774   0.188   7.501   5.370 -0.9855  0.9806 -0.7078
   73MOL    H7134775   0.120   7.348   5.317 -2.5492  3.3259  0.4914
   73MOL    H7234776   0.339   7.354   5.147  0.9402  0.1768  0.9215
   73MOL    H7334777   0.181   7.430   5.107  0.7638  1.2051 -1.2786
   73MOL    O7434778   0.416   7.596   5.255 -0.1420 -0.4849 -0.2524
   73MOL    C7534779   0.462   7.724   5.257  0.0743  0.2832  0.0526
   73MOL    C7634780   0.592   7.723   5.328  0.1368  0.0044  0.1684
   73MOL    C7734781   0.685   7.846   5.296  0.5975 -0.0920  0.1227
   73MOL    C7834782   0.634   0.104   5.366  0.0691  0.3212 -0.1011
   73MOL    O7934783   0.657   0.112   5.505  0.5335  0.4868  0.4231
   73MOL    C8034784   0.680   0.232   5.561 -0.0159 -0.1356 -0.0253
   73MOL    O8134785   0.703   0.337   5.495 -0.0218 -0.1321 -0.3788
   73MOL    C8234786   0.668   0.217   5.715  0.0422 -0.0733  0.4938
   73MOL    C8334787   0.537   0.158   5.756  0.2944 -0.6870  0.2481
   73MOL    C8434788   0.483   0.217   5.889  0.1814 -0.1904  0.1160
   73MOL    O8534789   0.500   0.333   5.929  0.1244 -0.0750 -0.7197
   73MOL    H8634790   0.481   7.758   5.155  0.4715 -0.0952  0.0008
   73MOL    H8734791   0.393   7.797   5.300  0.1261  0.0331  0.5629
   73MOL    H8834792   0.658   7.646   5.287  1.3495  0.9511  0.3365
   73MOL    H8934793   0.576   7.701   5.434 -2.4722 -1.4092 -0.4637
   73MOL    H9034794   0.692   7.850   5.187 -1.4630  0.1049 -0.0293
   73MOL    H9134795   0.783   7.817   5.333 -0.3229 -0.6957  2.1768
   73MOL    H9234796   0.710   0.176   5.337  0.5156  0.7598  2.0475
   73MOL    H9334797   0.533   0.131   5.339  0.2557  1.8417  0.6674
   73MOL    H9434798   0.689   0.316   5.754 -0.9242  1.9135 -3.7349
   73MOL    H9534799   0.746   0.152   5.756  0.8999 -0.8755 -2.2868
   73MOL    H9634800   0.468   0.187   5.676 -1.1272  1.5283  2.1985
   73MOL    H9734801   0.546   0.050   5.765 -1.1538 -0.6486  2.4659
   73MOL    O9834802   0.412   0.120   5.948  0.1111 -0.3398  0.8534
   73MOL    C9934803   0.354   0.148   6.072 -0.0210 -0.1501 -0.2869
   73MOL   C10034804   0.295   0.015   6.124 -0.2833  0.0522  0.3024
   73MOL   C10134805   0.237   0.024   6.260 -0.6800 -0.1772 -0.3106
   73MOL   C10234806   0.174   7.769   6.308 -0.4257  0.0331  0.3667
   73MOL   O10334807   0.119   7.798   6.434 -0.2548 -0.0597 -1.0130
   73MOL   C10434808   0.040   7.712   6.498  0.8139  0.4007 -0.6829
   73MOL   O10534809   0.014   7.604   6.447  0.3192  0.1957  0.2017
   73MOL   C10634810   7.863   7.759   6.639 -0.1560 -0.0997  0.4279
   73MOL   C10734811   7.850   7.653   6.738 -0.5750  0.7655  0.7408
   73MOL   C10834812   7.710   7.609   6.761 -0.3228 -0.5753  0.1979
   73MOL   O10934813   7.669   7.494   6.745  0.0045  0.3923  0.6081
   73MOL   H11034814   0.433   0.185   6.139  1.8596 -2.3682 -1.2030
   73MOL   H11134815   0.287   0.234   6.079 -1.2472 -1.2530  2.2549
   73MOL   H11234816   0.377   7.819   6.116  1.1035  1.7363 -0.8710
   73MOL   H11334817   0.221   7.857   6.052 -1.7089 -2.0433  2.6328
   73MOL   H11434818   0.166   0.108   6.257 -1.1070 -0.5690 -1.7637
   73MOL   H11534819   0.318   0.053   6.327  0.1257 -2.7789 -0.1397
   73MOL   H11634820   0.104   7.733   6.233  0.8180  0.2607 -0.9320
   73MOL   H11734821   0.259   7.700   6.312  0.4806  1.2038  3.0966
   73MOL   H11834822   7.775   7.821   6.625  0.3897  0.9309  1.4758
   73MOL   H11934823   0.070   7.821   6.677 -0.5558 -0.9896  2.8782
   73MOL   H12034824   0.040   7.568   6.718 -2.4001 -0.4767 -0.0605
   73MOL   H12134825   0.015   7.686   6.834  2.6475  2.7674 -1.1640
   73MOL   O12234826   7.637   7.699   6.824 -0.2570  0.3617 -0.3919
   73MOL   C12334827   7.509   7.668   6.878  0.9135 -0.1506 -1.1717
   73MOL   C12434828   7.454   7.792   6.952  0.2028 -0.4760  0.7600
   73MOL   C12534829   7.530   7.810   7.087 -0.1025 -0.6166 -0.3351
   73MOL   C12634830   7.483   0.073   7.156 -0.3122 -1.0918  0.1779
   73MOL   O12734831   7.341   0.085   7.167  0.0345  0.3465  0.2293
   73MOL   C12834832   7.280   0.198   7.155  0.0202 -0.0957  0.8631
   73MOL   O12934833   7.322   0.310   7.132 -0.2283  0.1705  0.9046
   73MOL   C13034834   7.127   0.184   7.152 -0.5517  0.5051  0.1042
   73MOL   C13134835   7.078   0.071   7.056  0.1359  0.2437 -0.6619
   73MOL   C13234836   6.981   0.133   6.962  0.4336  0.1554  0.3419
   73MOL   O13334837   7.002   0.242   6.901  0.0963 -0.7150  0.7865
   73MOL   H13434838   7.438   7.656   6.797  0.0260  2.6666 -0.8953
   73MOL   H13534839   7.525   7.588   6.950 -0.6120  1.0234  0.5524
   73MOL   H13634840   7.345   7.799   6.956  0.2587 -0.1169  1.8194
   73MOL   H13734841   7.485   0.006   6.896 -0.9126 -0.5960 -0.0604
   73MOL   H13834842   7.637   7.809   7.070  0.2096 -0.2896  1.4638
   73MOL   H13934843   7.508   7.723   7.149 -2.3584  1.7195  2.3429
   73MOL   H14034844   7.535   0.098   7.248  0.4281 -1.7924 -0.0466
   73MOL   H14134845   7.510   0.148   7.082 -1.2454 -1.4523 -0.5396
   73MOL   H14234846   7.091   0.282   7.123  0.9463  0.6894 -1.2448
   73MOL   H14334847   7.097   0.149   7.251  1.4734 -0.7271  0.3131
   73MOL   H14434848   7.158   0.042   6.987  0.1202 -2.2012  0.2975
   73MOL   H14534849   7.039   7.855   7.103  0.2171 -0.1551 -1.3520
   73MOL   O14634850   6.874   0.053   6.942  0.2106  0.4344 -0.3464
   73MOL   C14734851   6.770   0.095   6.856  0.3952  0.2015 -0.1235
   73MOL   C14834852   6.690   7.853   6.795 -0.7671 -0.5785  0.1058
   73MOL   C14934853   6.594   0.035   6.687  0.1503 -0.0116 -0.2388
   73MOL   C15034854   6.499   7.802   6.630 -0.1504 -0.0316 -0.0675
   73MOL   O15134855   6.580   7.732   6.531  0.1797 -0.0552 -0.2315
   73MOL   C15234856   6.548   7.611   6.482 -0.5542  0.0219 -0.0490
   73MOL   O15334857   6.443   7.553   6.513  0.3047  0.1497 -0.7649
   73MOL   C15434858   6.644   7.561   6.374  0.8403 -0.8234  0.0120
   73MOL   C15534859   6.582   7.434   6.319  0.3866  0.1446 -0.5221
   73MOL   C15634860   6.651   7.390   6.190  0.1976 -0.4724 -0.3694
   73MOL   O15734861   6.740   7.461   6.145  0.1456 -0.0308  0.1223
   73MOL   H15834862   6.706   0.162   6.912 -0.5330 -0.9681  0.2337
   73MOL   H15934863   6.790   0.158   6.770 -0.9920 -0.4502 -0.9258
   73MOL   H16034864   6.640   7.803   6.878  0.0905  0.2863  1.1504
   73MOL   H16134865   6.753   7.780   6.744 -0.9219  0.6796 -1.9630
   73MOL   H16234866   6.659   0.074   6.608 -0.1638 -0.8670 -0.9219
   73MOL   H16334867   6.536   0.114   6.734  1.2338  0.5266  0.2129
   73MOL   H16434868   6.459   7.745   6.714  1.6610  0.1920  0.9834
   73MOL   H16534869   6.417   7.853   6.580 -0.0569  0.1225 -0.0651
   73MOL   H16634870   6.747   7.547   6.406  1.1542  0.9031 -0.1834
   73MOL   H16734871   6.634   7.644   6.303 -1.8181  0.9280  2.3364
   73MOL   H16834872   6.578   7.348   6.385 -1.6885  0.6660  0.0720
   73MOL   H16934873   6.477   7.455   6.297 -0.1047 -1.8750 -0.1510
   73MOL   O17034874   6.595   7.277   6.142  0.4556 -0.1164 -0.1195
   73MOL   C17134875   6.649   7.220   6.025 -0.6527 -0.0156 -0.3373
   73MOL   C17234876   6.646   7.062   6.038 -0.0302  0.3512 -0.7056
   73MOL   C17334877   6.739   7.005   6.148  0.9179  0.2778 -0.1811
   73MOL   C17434878   6.719   6.852   6.140  0.2310 -0.0239 -0.0470
   73MOL   O17534879   6.728   6.808   6.276  0.1496  0.3560  0.4818
   73MOL   C17634880   6.846   6.768   6.328 -0.4827 -0.0062  0.5016
   73MOL   O17734881   6.953   6.777   6.269 -0.2539 -0.2258 -0.0239
   73MOL   C17834882   6.820   6.709   6.467  0.5312 -0.2722  0.6382
   73MOL   C17934883   6.949   6.712   6.554 -0.3844  0.0391  0.7164
   73MOL   C18034884   6.952   6.650   6.692  0.7220 -0.2535 -0.7416
   73MOL   O18134885   6.940   6.531   6.704  0.2926  0.0602 -0.1239
   73MOL   H18234886   6.583   7.262   5.950 -1.6975  2.9501  2.1733
   73MOL   H18334887   6.757   7.237   6.015 -0.3760 -1.0214  0.7348
   73MOL   H18434888   6.649   7.005   5.945 -0.5871  0.4149 -0.7646
   73MOL   H18534889   6.547   7.049   6.081 -0.1367  1.2550 -0.6724
   73MOL   H18634890   6.726   7.062   6.240  0.9710  1.3873 -0.8431
   73MOL   H18734891   6.841   7.028   6.116  0.5413  0.8195 -1.0213
   73MOL   H18834892   6.623   6.813   6.107 -1.2825  3.3595  0.1828
   73MOL   H18934893   6.794   6.803   6.078  0.2423  0.3668 -0.3425
   73MOL   H19034894   6.795   6.604   6.455  0.7465 -0.2552  0.0436
   73MOL   H19134895   6.739   6.757   6.522 -0.7478 -0.0462 -1.4277
   73MOL   H19234896   7.033   6.672   6.498  0.0494  1.6183  0.2018
   73MOL   H19334897   6.962   6.819   6.574 -1.6025  0.1887  0.7532
   73MOL   O19434898   6.967   6.738   6.790 -0.1605 -0.3565 -0.0844
   73MOL   C19534899   6.964   6.709   6.934  0.2951 -0.0007 -0.5615
   73MOL   C19634900   7.115   6.721   6.974  0.1234  0.5060 -0.2641
   73MOL   C19734901   7.218   6.625   6.917 -0.3173 -0.1440 -0.2417
   73MOL   C19834902   7.360   6.641   6.978  0.1924  0.3557  0.5289
   73MOL   O19934903   7.395   6.776   6.988 -0.2523 -0.2299  0.4058
   73MOL   C20034904   7.488   6.835   6.911 -0.3122  1.2851 -0.4228
   73MOL   O20134905   7.587   6.784   6.859 -0.2003 -0.2245  0.5335
   73MOL   C20234906   7.468   6.979   6.908 -0.7404 -0.0729 -0.4250
   73MOL   C20334907   7.320   7.035   6.904 -0.6494  0.1207 -0.8082
   73MOL   C20434908   7.250   7.052   6.773 -0.1186  0.9227  1.1013
   73MOL   O20534909   7.174   7.146   6.751  0.0568 -0.3920 -0.3835
   73MOL   H20634910   6.890   6.773   6.984  1.2470  0.2642  0.5317
   73MOL   H20734911   6.906   6.617   6.947 -1.7230  1.0357 -1.8677
   73MOL   H20834912   7.119   6.693   7.079 -1.9602 -1.5815 -0.6996
   73MOL   H20934913   7.140   6.827   6.966 -1.0647  0.6526 -2.6330
   73MOL   H21034914   7.225   6.652   6.811  0.0143  2.4007  0.4116
   73MOL   H21134915   7.180   6.523   6.909  1.7367 -0.8096 -2.3114
   73MOL   H21234916   7.368   6.587   7.072  0.5662  0.6850  0.6914
   73MOL   H21334917   7.435   6.581   6.926  0.0549  0.4058  0.2735
   73MOL   H21434918   7.532   7.029   6.835 -0.8977  3.2192  1.6205
   73MOL   H21534919   7.500   7.024   7.002  0.9910 -5.0760  1.5369
   73MOL   H21634920   7.256   6.980   6.973 -1.3560  1.4199 -0.4305
   73MOL   H21734921   7.322   7.135   6.947 -0.4988  0.0506 -0.6523
   73MOL   O21834922   7.286   6.977   6.680  0.1900 -0.0043 -0.4867
   73MOL   C21934923   7.266   6.992   6.546  0.3747 -0.4956  0.6020
   73MOL   C22034924   7.375   6.923   6.463 -0.2564 -0.5171  0.5294
   73MOL   C22134925   7.381   6.766   6.491  0.4486  0.3350  0.0141
   73MOL   C22234926   7.455   6.691   6.378  0.3757  0.1159 -0.0737
   73MOL   O22334927   7.592   6.731   6.388 -0.3453  0.0695 -0.1250
   73MOL   C22434928   7.696   6.647   6.390  0.4639 -0.2289 -0.2165
   73MOL   O22534929   7.688   6.527   6.377  0.1785 -0.2077  0.3339
   73MOL   C22634930   7.827   6.722   6.400 -0.6537 -0.1719 -0.2183
   73MOL   C22734931   0.018   6.772   6.270 -0.3355  0.9708  0.1033
   73MOL   C22834932   7.852   6.913   6.224 -1.3882  0.0198  0.4079
   73MOL   O22934933   0.040   7.012   6.257 -0.3882  0.3685 -0.3672
   73MOL   H23034934   7.171   6.947   6.518  0.5513  0.5398 -1.8054
   73MOL   H23134935   7.246   7.094   6.514 -2.1676 -1.1599 -0.0055
   73MOL   H23234936   7.478   6.957   6.477 -0.6657  1.1075 -0.3916
   73MOL   H23334937   7.365   6.937   6.356 -1.9400  0.5561  0.8193
   73MOL   H23434938   7.283   6.720   6.503 -0.1438  2.0511  2.0488
   73MOL   H23534939   7.428   6.738   6.585  1.4486  0.9659 -0.2810
   73MOL   H23634940   7.442   6.583   6.375 -0.4249  0.2290 -0.7708
   73MOL   H23734941   7.420   6.719   6.279  0.7895  0.4910 -0.1153
   73MOL   H23834942   0.026   6.672   6.462 -1.4379 -0.2741  0.6428
   73MOL   H23934943   7.805   6.806   6.465 -0.9296  0.2041 -0.7906
   73MOL   H24034944   0.125   6.772   6.288 -0.4805  0.9418  1.0006
   73MOL   H24134945   7.867   6.704   6.189  2.3512 -1.1973  0.9947
   73MOL   O24234946   7.750   6.912   6.141  0.3881  0.6091  0.3249
   73MOL   C24334947   7.697   7.042   6.094 -0.3280  0.0686 -0.1407
   73MOL   C24434948   7.599   7.010   5.982  0.3019  0.1557  0.3765
   73MOL   C24534949   7.476   6.942   6.041 -1.3574 -0.8811 -0.0097
   73MOL   C24634950   7.359   6.898   5.942 -0.3224  0.2466 -0.2326
   73MOL   O24734951   7.279   7.005   5.898  0.5138 -0.0273 -0.2998
   73MOL   C24834952   7.186   7.060   5.981  0.2806  0.0090 -0.4092
   73MOL   O24934953   7.173   7.028   6.101 -0.6026 -0.4713 -0.5096
   73MOL   C25034954   7.105   7.167   5.914 -0.3302 -0.1140  0.3656
   73MOL   C25134955   7.049   7.274   6.000 -0.6998  0.3313  0.1487
   73MOL   C25234956   7.111   7.410   5.979  0.3076  0.0526  0.2649
   73MOL   O25334957   7.170   7.440   5.875  0.5712 -0.9025 -0.5959
   73MOL   H25434958   7.656   7.080   6.188  0.7531 -2.4994  1.4084
   73MOL   H25534959   7.772   7.117   6.069  1.5553 -1.1273  1.7731
   73MOL   H25634960   7.646   6.945   5.909  0.8783  3.3027 -2.1636
   73MOL   H25734961   7.562   7.090   5.918 -3.2834  0.5802  2.8236
   73MOL   H25834962   7.439   7.005   6.122 -1.5111  0.2493 -0.9379
   73MOL   H25934963   7.515   6.851   6.086 -1.1457 -0.5986  0.3824
   73MOL   H26034964   7.393   6.832   5.863  1.0681 -0.2113  0.7175
   73MOL   H26134965   7.290   6.833   5.997 -1.3002  1.2230 -0.2960
   73MOL   H26234966   7.018   7.110   5.882  0.2632 -0.4304 -0.7031
   73MOL   H26334967   7.155   7.195   5.821 -0.1012 -0.3212  0.4266
   73MOL   H26434968   6.941   7.277   5.986 -1.0568 -0.1599  2.6172
   73MOL   H26534969   7.057   7.247   6.105  0.0788 -1.4987 -0.3670
   73MOL   O26634970   7.100   7.497   6.085  0.3032  0.6062 -0.3978
   73MOL   C26734971   7.135   7.634   6.074  0.0461  0.6825  0.4655
   73MOL   C26834972   7.110   7.712   6.200  0.3110 -0.5677 -0.2950
   73MOL   C26934973   6.978   7.778   6.188 -0.1380  0.1031 -0.4363
   73MOL   C27034974   6.940   7.855   6.317 -0.1571  0.2265  0.7636
   73MOL   O27134975   6.981   0.117   6.313 -0.0429  0.4885  0.4967
   73MOL   C27234976   6.904   0.204   6.385  0.0714 -0.4808 -0.6783
   73MOL   O27334977   6.784   0.192   6.411 -0.0994  0.1674  0.3664
   73MOL   C27434978   6.974   0.320   6.459  0.6477  0.3367  0.2624
   73MOL   C27534979   6.913   0.356   6.592  0.7391 -0.3670 -0.0791
   73MOL   C27634980   6.826   0.486   6.584  0.4763 -0.2060  0.0293
   73MOL   O27734981   6.728   0.497   6.658 -0.4375  0.4107  0.3573
   73MOL   H27834982   7.242   7.640   6.053  0.3215  0.4671  1.7462
   73MOL   H27934983   7.088   7.671   5.983  0.0466  1.8575  0.9382
   73MOL   H28034984   7.170   7.803   6.213  0.9604 -0.7848 -1.6414
   73MOL   H28134985   7.111   7.644   6.285 -1.3900 -0.8717 -0.5135
   73MOL   H28234986   6.898   7.707   6.166 -0.1944 -0.9903  3.0597
   73MOL   H28334987   6.986   7.853   6.110  0.9858  0.1240 -0.3053
   73MOL   H28434988   6.832   7.841   6.328 -0.5588  0.4744 -2.4806
   73MOL   H28534989   6.975   7.807   6.409 -0.6394  1.2336  1.4852
   73MOL   H28634990   6.974   0.408   6.395 -2.4046  0.1727 -0.0729
   73MOL   H28734991   7.078   0.293   6.478  0.0475  0.5071  4.3074
   73MOL   H28834992   6.851   0.275   6.629 -0.8516  0.2052 -1.4444
   73MOL   H28934993   6.986   0.378   6.670 -0.1899 -0.5215  0.8376
   73MOL   O29034994   6.866   0.582   6.488  0.5743  0.0417 -0.2572
   73MOL   C29134995   6.787   0.705   6.470 -0.4046  0.0904  0.2072
   73MOL   C29234996   6.668   0.675   6.374  0.7408  0.1316 -0.4572
   73MOL   C29334997   6.713   0.595   6.248 -0.2018 -0.8408  0.4495
   73MOL   C29434998   6.605   0.610   6.145  0.4974  0.3164 -0.3361
   73MOL   O29534999   6.496   0.523   6.173 -0.4132 -0.4635  0.2140
   73MOL   C29635000   6.419   0.496   6.067  0.8114  0.5063 -0.4710
   73MOL   O29735001   6.436   0.557   5.958  0.4124 -0.4261  0.7727
   73MOL   C29835002   6.292   0.413   6.096 -0.5979 -0.0576 -0.2549
   73MOL   C29935003   6.188   0.413   5.989 -0.1647  0.3490 -0.8493
   73MOL   C30035004   6.122   0.279   5.966 -0.2120 -0.8231  0.0284
   73MOL   O30135005   6.000   0.276   5.949  0.7316 -0.5426 -0.3165
   73MOL   H30235006   6.750   0.748   6.563 -1.7232 -1.9240  0.6273
   73MOL   H30335007   6.859   0.777   6.432 -1.9694  1.8728  0.4927
   73MOL   H30435008   6.618   0.769   6.353 -1.1507 -0.4109  1.3804
   73MOL   H30535009   6.601   0.606   6.425  2.3464 -1.4083 -0.3684
   73MOL   H30635010   6.749   0.494   6.270  3.3788  0.5444  1.2375
   73MOL   H30735011   6.798   0.640   6.198 -1.8338 -0.0642 -1.6685
   73MOL   H30835012   6.582   0.713   6.118  2.9030  1.1158  0.5142
   73MOL   H30935013   6.660   0.582   6.055  1.3740  1.5940 -0.2100
   73MOL   H31035014   6.255   0.437   6.196  0.2185 -1.6833  0.4457
   73MOL   H31135015   6.342   0.318   6.112 -2.5240 -1.3350 -1.7864
   73MOL   H31235016   6.103   0.476   6.017  0.1625 -0.2123  1.4733
   73MOL   H31335017   6.227   0.444   5.892  0.0667 -2.7385 -1.7951
   73MOL   O31435018   6.201   0.166   5.982 -0.0523 -0.2095 -0.1490
   73MOL   C31535019   6.150   0.036   5.951  0.6208  0.3355 -1.0502
   73MOL   C31635020   6.126   0.021   5.801 -0.4574  0.0189  0.2818
   73MOL   C31735021   6.097   7.757   5.754  0.0238  0.1120  0.0517
   73MOL   C31835022   6.216   7.671   5.713 -0.0887  0.0987 -0.1748
   73MOL   O31935023   6.302   7.649   5.824  0.0741 -0.7202  0.4758
   73MOL   C32035024   6.432   7.629   5.807  0.3661  0.8388  0.1037
   73MOL   O32135025   6.503   7.616   5.709 -0.2510  0.2648  0.3174
   73MOL   C32235026   6.498   7.617   5.947 -0.3301  0.1489 -0.1664
   73MOL   C32335027   6.529   7.750   6.019  0.6266 -0.0084  0.4573
   73MOL   C32435028   6.451   7.767   6.143 -0.0704  0.1595  0.0091
   73MOL   O32535029   6.385   7.679   6.203  0.2873 -0.0889  0.1318
   73MOL   H32635030   6.237   7.850   5.978 -0.8591 -1.9382 -1.2853
   73MOL   H32735031   6.074   7.866   6.015  2.7129 -0.5508  0.9145
   73MOL   H32835032   6.206   0.058   5.736  0.6328 -2.8409 -0.0692
   73MOL   H32935033   6.040   0.084   5.778 -0.6118 -0.2359  0.1628
   73MOL   H33035034   6.042   7.763   5.661  0.0800 -0.9963 -0.0503
   73MOL   H33135035   6.036   7.699   5.823  0.9917 -0.4558  0.4377
   73MOL   H33235036   6.191   7.577   5.664  0.9370 -0.6089  0.6293
   73MOL   H33335037   6.268   7.731   5.638  0.6194  0.4370  0.5720
   73MOL   H33435038   6.592   7.563   5.936 -0.3760 -0.0938  0.5716
   73MOL   H33535039   6.446   7.545   6.011 -1.7297  0.4873 -0.8935
   73MOL   H33635040   6.632   7.739   6.054  0.1817  0.9146  2.1202
   73MOL   H33735041   6.526   7.832   5.948  0.8159  0.2078  0.6972
   73MOL   O33835042   6.450   0.019   6.182  0.2044 -0.3354 -0.1443
   73MOL   C33935043   6.372   0.074   6.292 -0.3557  0.2466 -0.3753
   73MOL   C34035044   6.444   0.188   6.368  0.1710 -0.0141  0.4863
   73MOL   C34135045   6.369   0.248   6.486  0.0771 -0.1279  0.5581
   73MOL   C34235046   6.445   0.366   6.545  0.9348  1.0678  0.4827
   73MOL   O34335047   6.364   0.426   6.647  0.0860 -0.0239  0.2392
   73MOL   C34435048   6.307   0.549   6.627  0.3279 -0.5582  0.4271
   73MOL   O34535049   6.298   0.600   6.519 -0.5302 -0.3242  0.1412
   73MOL   C34635050   6.243   0.599   6.760 -0.4539 -0.2930  0.2662
   73MOL   C34735051   6.091   0.568   6.771  0.4682 -0.0386  0.1040
   73MOL   C34835052   6.026   0.618   6.896  0.6220  0.0714  0.0789
   73MOL   O34935053   5.929   0.698   6.889 -0.4593  0.2632 -0.2260
   73MOL   H35035054   6.286   0.130   6.255 -0.3187  2.1741  2.3033
   73MOL   H35135055   6.337   7.867   6.356 -1.4331  0.3630 -0.7994
   73MOL   H35235056   6.483   0.268   6.305  0.0861 -1.2857 -1.2315
   73MOL   H35335057   6.536   0.144   6.405  0.3933  0.1487  0.1263
   73MOL   H35435058   6.348   0.164   6.551 -0.2277  1.1558  2.1564
   73MOL   H35535059   6.272   0.282   6.449 -0.4078 -1.4145  0.6302
   73MOL   H35635060   6.541   0.341   6.589 -0.8438 -0.7842  3.4937
   73MOL   H35735061   6.465   0.430   6.458  0.6325 -0.6417 -0.8672
   73MOL   H35835062   6.277   0.700   6.782  0.5999 -0.0644 -2.2682
   73MOL   H35935063   6.288   0.544   6.842 -0.4769  2.5427  2.2424
   73MOL   H36035064   6.036   0.600   6.683  1.6386 -0.6540 -0.8798
   73MOL   H36135065   6.083   0.460   6.757 -0.1929 -0.0523  0.5750
   73MOL   O36235066   6.065   0.559   7.007  0.8797 -0.5089 -0.1757
   73MOL   C36335067   5.988   0.583   7.126  0.0657 -0.0088 -0.0019
   73MOL   C36435068   6.032   0.488   7.235 -0.3291 -0.1660 -0.5537
   73MOL   C36535069   5.978   0.342   7.229 -0.1928 -0.2466  0.0648
   73MOL   C36635070   6.008   0.248   7.347 -0.1518 -0.3625  0.2849
   73MOL   O36735071   5.948   0.294   7.465  0.4414 -0.6398  0.0583
   73MOL   C36835072   5.965   0.234   7.572  0.5907  0.2041 -0.0194
   73MOL   O36935073   6.024   0.126   7.592  0.0106  0.3341  0.0691
   73MOL   C37035074   5.891   0.299   7.687 -0.4193 -0.2865  0.6362
   73MOL   C37135075   5.976   0.312   7.814  0.4071 -0.1337 -0.2955
   73MOL   C37235076   5.947   0.199   0.032 -0.1013 -0.2308 -0.2586
   73MOL   O37335077   5.835   0.178   0.080  0.6119  0.1785  0.2904
   73MOL   H37435078   5.999   0.686   7.158  1.1192 -0.0990 -0.0674
   73MOL   H37535079   5.881   0.569   7.114 -0.0838  0.7972  0.3667
   73MOL   H37635080   5.997   0.533   7.327  0.4510 -2.9333  1.1850
   73MOL   H37735081   6.141   0.487   7.240 -0.3486  0.8862  0.2135
   73MOL   H37835082   6.016   0.300   7.136  2.4574  0.4378  0.8027
   73MOL   H37935083   5.870   0.345   7.213 -0.3373 -0.5687  0.9395
   73MOL   H38035084   5.975   0.148   7.320 -0.5910  0.2159 -1.4000
   73MOL   H38135085   6.117   0.253   7.343 -0.0054 -1.9250  1.7272
   73MOL   H38235086   5.804   0.241   7.717  0.1355 -1.0536  0.7713
   73MOL   H38335087   5.861   0.401   7.663 -0.6119 -0.1902  1.2907
   73MOL   H38435088   6.082   0.324   7.790  0.1523 -0.3656 -1.6013
   73MOL   H38535089   5.940   0.405   7.857 -2.9985 -0.9353 -1.1947
   73MOL   O38635090   6.050   0.120   0.053  0.1633  0.1614 -0.8386
   73MOL   C38735091   6.026   7.866   0.117 -0.1941 -0.6282  0.6802
   73MOL   C38835092   6.127   7.767   0.052  0.4727  0.8348  0.0342
   73MOL   C38935093   6.132   7.776   7.774 -0.4262 -0.8681 -0.2991
   73MOL   C39035094   6.204   7.656   7.710  0.2508  1.0638  0.1044
   73MOL   O39135095   6.131   7.539   7.742 -0.2190 -0.0823 -0.2308
   73MOL   C39235096   6.124   7.440   7.647 -0.5842  0.4169 -0.7191
   73MOL   O39335097   6.195   7.430   7.549  0.4814  0.0655  0.0038
   73MOL   C39435098   6.038   7.321   7.694  0.7299 -0.5527  0.7298
   73MOL   C39535099   6.054   7.192   7.600  0.0773  0.1532 -0.0320
   73MOL   C39635100   5.919   7.126   7.568 -0.0447 -0.2958  0.0468
   73MOL   O39735101   5.824   7.141   7.643 -0.3907 -0.0673  0.4349
   73MOL   H39835102   6.039   0.008   0.224 -0.1117  0.1726  0.5443
   73MOL   H39935103   5.924   7.838   0.093 -1.2739  2.3847  1.5052
   73MOL   H40035104   6.099   7.671   0.094  0.6410  0.9323  0.3726
   73MOL   H40135105   6.226   7.786   0.094  0.2020  3.9499 -0.5727
   73MOL   H40235106   6.193   7.863   7.748 -0.8884 -1.1399 -2.3662
   73MOL   H40335107   6.036   7.799   7.727 -0.6468 -1.7956 -0.3086
   73MOL   H40435108   6.198   7.678   7.604 -1.3355  3.2673  0.6242
   73MOL   H40535109   6.309   7.638   7.734 -0.2875 -1.3386  0.8332
   73MOL   H40635110   5.940   7.367   7.704  1.7728  1.6385  1.1879
   73MOL   H40735111   6.083   7.293   7.789  1.8834 -1.5494 -0.0925
   73MOL   H40835112   6.092   7.223   7.503 -1.2464  3.6952  0.5401
   73MOL   H40935113   6.133   7.119   7.619  0.8027  1.3843  1.8438
   73MOL   O41035114   5.923   7.032   7.470  0.3064  0.2916  0.1995
   73MOL   C41135115   5.812   6.956   7.436 -0.0245  0.5447 -0.4150
   73MOL   C41235116   5.734   7.025   7.328 -0.4565  0.4722  0.0060
   73MOL   C41335117   5.625   6.942   7.270  0.1787  0.3923 -0.6462
   73MOL   C41435118   5.678   6.832   7.176  0.2508 -0.3209 -0.1542
   73MOL   O41535119   5.728   6.867   7.043  0.1216  0.4712 -0.0282
   73MOL   C41635120   5.635   6.905   6.949  0.2816  0.1538  0.2526
   73MOL   O41735121   5.513   6.913   6.973 -0.8344 -0.2887  0.1444
   73MOL   C41835122   5.710   6.933   6.821 -0.4234 -0.1724  0.5147
   73MOL   C41935123   5.618   6.983   6.709  0.8666 -0.3773  0.1897
   73MOL   C42035124   5.559   6.867   6.628 -0.1038  0.7440  0.1800
   73MOL   O42135125   5.589   6.748   6.649 -0.0723  0.0675  0.1719
   73MOL   H42235126   5.849   6.862   7.394 -1.0342 -0.5114  1.0024
   73MOL   H42335127   5.746   6.930   7.519  0.7452 -0.3994 -0.0848
   73MOL   H42435128   5.805   7.063   7.254  0.1515  1.3915  1.0286
   73MOL   H42535129   5.687   7.118   7.362 -0.5698  0.3049  0.3024
   73MOL   H42635130   5.558   7.010   7.217 -0.5642  0.0110 -0.2021
   73MOL   H42735131   5.565   6.898   7.349 -1.4504 -0.2290 -2.2183
   73MOL   H42835132   5.745   6.777   7.241 -1.3855 -0.5490  1.3683
   73MOL   H42935133   5.600   6.759   7.155  0.1860 -0.2671 -0.0985
   73MOL   H43035134   5.783   6.855   6.797 -0.1644 -0.7064  2.8537
   73MOL   H43135135   5.771   7.022   6.834  0.5272 -0.8918  1.1328
   73MOL   H43235136   5.537   7.044   6.750  1.2915 -0.1787  0.7446
   73MOL   H43335137   5.670   7.044   6.635 -1.2488  2.5139  0.9758
   73MOL   O43435138   5.461   6.911   6.556  0.3498  0.1441 -0.4158
   73MOL   C43535139   5.355   6.829   6.520  0.5643  0.3513 -0.0005
   73MOL   C43635140   5.223   6.906   6.557 -0.0741 -0.0103  0.1616
   73MOL   C43735141   5.232   6.997   6.671  0.1278 -0.7264 -0.2771
   73MOL   C43835142   5.098   7.047   6.737  0.0017  0.2705 -0.0114
   73MOL   O43935143   5.014   7.104   6.638  0.1212 -0.3066 -0.1000
   73MOL   C44035144   4.887   7.059   6.613  0.3962 -0.8466 -0.0884
   73MOL   O44135145   4.827   6.970   6.675  0.2066 -0.4755  0.1376
   73MOL   C44235146   4.826   7.123   6.482 -0.1653 -0.4455  0.4874
   73MOL   C44335147   4.905   7.082   6.357 -0.0737  0.3182 -0.2631
   73MOL   C44435148   4.821   6.972   6.285  0.3077  0.7532 -0.2833
   73MOL   O44535149   4.767   6.982   6.176  0.2661  0.0393 -0.1224
   73MOL   H44635150   5.359   6.808   6.413 -0.0921 -1.3936  0.3136
   73MOL   H44735151   5.357   6.735   6.575 -1.8442 -0.5735 -1.4493
   73MOL   H44835152   5.141   6.835   6.572  2.1173 -2.5567  0.5319
   73MOL   H44935153   5.193   6.967   6.472 -0.1605 -1.2562 -0.7254
   73MOL   H45035154   5.299   7.080   6.648 -0.2464 -0.2382  0.3423
   73MOL   H45135155   5.281   6.934   6.745 -1.4491 -1.1178  0.4495
   73MOL   H45235156   5.052   6.963   6.789  2.4951 -0.1944  1.5169
   73MOL   H45335157   5.111   7.117   6.819 -1.4083  0.6155 -0.0659
   73MOL   H45435158   4.840   7.230   6.494  0.0952 -0.5260  0.9236
   73MOL   H45535159   4.718   7.120   6.474 -0.0999  0.1403 -0.7761
   73MOL   H45635160   4.906   7.166   6.288 -2.2398  0.8706  0.3339
   73MOL   H45735161   5.006   7.050   6.382  0.2815  1.1063 -0.6868
   73MOL   O45835162   4.830   6.859   6.350  0.4096 -0.3103  0.2464
   73MOL   C45935163   4.751   6.741   6.328  0.1364 -0.4858 -0.3154
   73MOL   C46035164   4.601   6.762   6.357  0.7018 -0.5579 -0.1692
   73MOL   C46135165   4.573   6.792   6.507  0.5869 -0.1516 -0.1310
   73MOL   C46235166   4.428   6.782   6.547  0.8830  0.1416 -0.0701
   73MOL   O46335167   4.348   6.873   6.471  0.7184 -0.1584  0.7068
   73MOL   C46435168   4.272   6.829   6.367  0.3766  0.0578 -0.0273
   73MOL   O46535169   4.258   6.710   6.326  0.1073 -0.4189 -0.1746
   73MOL   C46635170   4.208   6.941   6.281 -0.0975  0.3004 -0.6123
   73MOL   C46735171   4.311   7.023   6.204  0.3745 -0.2980 -0.0827
   73MOL   C46835172   4.403   7.103   6.295  0.4025 -0.0728 -0.2535
   73MOL   O46935173   4.358   7.199   6.365 -0.1470  0.0386  0.0687
   73MOL   H47035174   4.764   6.705   6.226  1.1328  0.8022 -0.6582
   73MOL   H47135175   4.790   6.661   6.390 -0.4637 -0.7144 -0.2262
   73MOL   H47235176   4.545   6.672   6.336 -1.0366  0.6892 -1.0232
   73MOL   H47335177   4.556   6.839   6.294  2.8132  0.5748 -0.3682
   73MOL   H47435178   4.608   6.892   6.531  0.0484  0.1671 -0.6735
   73MOL   H47535179   4.632   6.716   6.559 -0.5582  0.3422  1.9224
   73MOL   H47635180   4.388   6.681   6.541 -0.8367  0.7936  0.0133
   73MOL   H47735181   4.415   6.815   6.650 -1.9321 -0.3336 -0.2245
   73MOL   H47835182   4.159   7.011   6.350  1.6589  1.0960 -0.1394
   73MOL   H47935183   4.131   6.906   6.212  1.0907 -1.5145 -1.0440
   73MOL   H48035184   4.376   6.956   6.147  1.5445  1.3503 -0.7382
   73MOL   H48135185   4.253   7.094   6.146  2.2953  1.4852  0.1075
   73MOL   H48235186   4.506   7.068   6.297  1.3658  2.6360  0.7469
   74MOL     O135187   6.441   5.284   3.275  0.5618 -0.1553  0.3820
   74MOL     C235188   6.503   5.237   3.392  0.1613  0.5856 -0.6639
   74MOL     C335189   6.596   5.348   3.451 -0.2252 -0.1012 -0.6526
   74MOL     C435190   6.730   5.370   3.366  0.2104  0.4399 -0.6829
   74MOL     C535191   6.839   5.456   3.439 -0.2370 -0.1267  0.0872
   74MOL     O635192   6.884   5.400   3.566  0.4920 -0.5417 -0.1861
   74MOL     C735193   7.001   5.440   3.619 -0.1486  0.7523  0.1856
   74MOL     O835194   7.074   5.518   3.568 -0.7090  0.1139  0.0868
   74MOL     C935195   7.040   5.363   3.747 -0.2736 -0.3789  0.2227
   74MOL    C1035196   6.941   5.396   3.859  0.0729  0.6255  0.6423
   74MOL    C1135197   7.013   5.399   3.991 -0.2999  0.2068 -0.8873
   74MOL    O1235198   7.006   5.312   4.081 -0.0429  0.1879  0.2401
   74MOL    H1335199   6.421   5.216   3.460  1.2840 -0.0256  0.5343
   74MOL    H1435200   6.554   5.141   3.379 -2.5997 -1.0431  0.0516
   74MOL    H1535201   6.621   5.318   3.553 -1.5591 -0.3267 -0.3871
   74MOL    H1635202   6.533   5.434   3.471 -0.3844 -0.6096  1.1240
   74MOL    H1735203   6.722   5.413   3.266 -2.5438  0.7841 -0.3530
   74MOL    H1835204   6.779   5.273   3.352 -1.2375 -0.8966  2.8635
   74MOL    H1935205   6.923   5.467   3.371 -1.3783 -1.6033 -1.6398
   74MOL    H2035206   6.804   5.558   3.454  0.2209 -0.0728  0.8254
   74MOL    H2135207   7.139   5.407   3.761 -0.9503  1.5972 -0.8682
   74MOL    H2235208   7.055   5.257   3.726  0.7789 -0.1512 -0.2570
   74MOL    H2335209   6.907   5.499   3.848  0.9747  0.9817  1.1426
   74MOL    H2435210   6.844   5.347   3.862 -0.0436  0.8183  0.0928
   74MOL    H2535211   6.383   5.217   3.243  0.2224  0.1910  0.2699
   74MOL    O2635212   7.093   5.505   3.987 -0.4081  0.0647 -0.1791
   74MOL    C2735213   7.149   5.544   4.105 -0.1569  0.1527 -0.1696
   74MOL    C2835214   7.225   5.674   4.076 -0.3810 -0.6951 -0.3939
   74MOL    C2935215   7.315   5.725   4.188  0.1865 -0.6519  0.1554
   74MOL    C3035216   7.242   5.820   4.283 -0.2581 -0.7471 -0.1442
   74MOL    O3135217   7.328   5.903   4.365  0.1092 -0.3146  0.3700
   74MOL    C3235218   7.380   5.864   4.478  0.0140  0.2801  0.0027
   74MOL    O3335219   7.378   5.743   4.522 -0.2006  0.2521  0.2334
   74MOL    C3435220   7.443   5.977   4.562  0.0041 -0.2056  0.1533
   74MOL    C3535221   7.369   6.007   4.691 -0.7333 -0.0643 -0.0201
   74MOL    C3635222   7.327   6.155   4.708  0.1466 -0.0692  0.5914
   74MOL    O3735223   7.366   6.242   4.633  0.4446 -0.0208  0.0547
   74MOL    H3835224   7.078   5.555   4.187  0.0841 -3.5091  0.6344
   74MOL    H3935225   7.213   5.464   4.142  1.0550  0.5963 -1.2737
   74MOL    H4035226   7.158   5.752   4.041 -0.1992 -0.7885 -0.9533
   74MOL    H4135227   7.285   5.651   3.988  0.8905  5.0944 -1.2298
   74MOL    H4235228   7.394   5.781   4.137 -0.1959  0.5012  0.7970
   74MOL    H4335229   7.372   5.646   4.236  0.0331 -0.3795  0.7912
   74MOL    H4435230   7.172   5.886   4.231  1.5532 -0.1607 -1.9019
   74MOL    H4535231   7.173   5.769   4.350 -0.9640 -2.3505 -2.0178
   74MOL    H4635232   7.428   6.057   4.490  1.4409 -1.1946 -1.2808
   74MOL    H4735233   7.547   5.945   4.563  0.3869  0.9616  2.4898
   74MOL    H4835234   7.285   5.938   4.700 -1.9999  1.3773 -0.5077
   74MOL    H4935235   7.434   5.985   4.775 -0.0676  1.2013 -0.1947
   74MOL    O5035236   7.248   6.170   4.811  0.8013 -0.5133  0.5588
   74MOL    C5135237   7.169   6.291   4.825  0.0028 -0.1643  0.8555
   74MOL    C5235238   7.021   6.246   4.816 -0.6761  0.3292  0.4616
   74MOL    C5335239   6.932   6.378   4.814 -0.3278 -0.1282  0.2269
   74MOL    C5435240   6.786   6.356   4.775 -0.2438  0.3244  0.2324
   74MOL    O5535241   6.707   6.328   4.892  0.0433 -0.1061  0.4969
   74MOL    C5635242   6.677   6.198   4.918  0.0715 -0.3654  0.1437
   74MOL    O5735243   6.708   6.106   4.843 -0.6068  0.1677 -0.2747
   74MOL    C5835244   6.594   6.174   5.047 -0.8497  0.6073  0.7248
   74MOL    C5935245   6.627   6.048   5.125  0.3202  0.2950  0.2019
   74MOL    C6035246   6.637   6.058   5.277 -0.3408  0.0851 -0.5053
   74MOL    O6135247   6.607   6.153   5.350  0.0241  0.2371 -0.6841
   74MOL    H6235248   7.197   6.346   4.914 -0.4064  0.3901  0.6381
   74MOL    H6335249   7.186   6.362   4.745  1.1811  0.8714  2.0185
   74MOL    H6435250   6.989   6.183   4.899  0.5116  0.0953  0.7439
   74MOL    H6535251   7.008   6.197   4.719 -1.5645  1.6833 -0.1198
   74MOL    H6635252   6.970   6.451   4.744 -0.6980 -0.0763  0.0819
   74MOL    H6735253   6.942   6.426   4.912  2.1742  1.7356 -0.8816
   74MOL    H6835254   6.738   6.447   4.740 -0.2196  0.4435  0.5020
   74MOL    H6935255   6.778   6.282   4.696 -0.9082  2.2882 -1.5675
   74MOL    H7035256   6.490   6.173   5.015 -0.5275  0.5051 -0.3172
   74MOL    H7135257   6.597   6.259   5.116  0.0885  0.9969  0.2057
   74MOL    H7235258   6.554   5.971   5.103 -1.0317  1.2757  1.1735
   74MOL    H7335259   6.718   6.008   5.081 -1.2120 -3.3675  0.2330
   74MOL    O7435260   6.674   5.946   5.334 -0.5814  0.6553 -0.1484
   74MOL    C7535261   6.701   5.938   5.475  0.1249  0.3058  0.2006
   74MOL    C7635262   6.815   5.837   5.502  0.1947 -0.3173  0.4053
   74MOL    C7735263   6.883   5.847   5.641 -0.3115  0.0841 -0.3133
   74MOL    C7835264   7.001   5.756   5.658 -0.2635  0.0893  0.2528
   74MOL    O7935265   7.104   5.791   5.565 -0.9899  0.5783  0.0413
   74MOL    C8035266   7.237   5.774   5.592 -0.3650 -0.2824 -1.0546
   74MOL    O8135267   7.281   5.733   5.701 -0.4966 -0.3662 -0.0301
   74MOL    C8235268   7.329   5.804   5.478  0.3030 -0.6555 -0.0577
   74MOL    C8335269   7.476   5.798   5.498 -0.0330  0.0187  0.0901
   74MOL    C8435270   7.547   5.721   5.387  0.4095  0.3400 -0.1735
   74MOL    O8535271   7.487   5.646   5.304  0.5940  0.2183 -0.5318
   74MOL    H8635272   6.730   6.031   5.525 -1.0400 -0.4116  2.2689
   74MOL    H8735273   6.607   5.909   5.522  0.5641 -0.5594  0.5418
   74MOL    H8835274   6.885   5.860   5.422 -0.4417  0.5210  0.0788
   74MOL    H8935275   6.768   5.740   5.491  1.4533 -0.7420 -1.3603
   74MOL    H9035276   6.813   5.834   5.723 -0.5434 -1.0151 -0.6852
   74MOL    H9135277   6.930   5.946   5.641  1.6774 -0.8381 -0.5522
   74MOL    H9235278   7.030   5.764   5.763 -3.1419 -0.8461  1.1693
   74MOL    H9335279   6.982   5.648   5.655  1.0297 -0.1565  0.5327
   74MOL    H9435280   7.306   5.908   5.456  0.2446 -0.1006  2.4497
   74MOL    H9535281   7.299   5.739   5.397  3.3956 -0.9320 -1.0532
   74MOL    H9635282   7.515   5.899   5.510  0.7368 -0.5446  2.7223
   74MOL    H9735283   7.503   5.729   5.578  1.2341  1.2897  0.7888
   74MOL    O9835284   7.678   5.747   5.398 -0.3675  0.6805  0.0321
   74MOL    C9935285   7.765   5.649   5.344  0.8079  0.1042  0.0086
   74MOL   C10035286   0.037   5.666   5.389  0.8517 -0.7716 -0.2196
   74MOL   C10135287   0.102   5.765   5.296  0.0644  0.4042 -0.9267
   74MOL   C10235288   0.251   5.785   5.334 -0.4398 -0.1385 -0.0096
   74MOL   O10335289   0.253   5.841   5.463  0.0089 -0.1510 -0.0397
   74MOL   C10435290   0.366   5.877   5.528  0.0964 -0.3916 -0.2052
   74MOL   O10535291   0.476   5.858   5.484 -0.0392  0.6642  0.5498
   74MOL   C10635292   0.347   5.930   5.675 -0.3910  0.2155 -0.3214
   74MOL   C10735293   0.342   5.825   5.796  0.0836 -0.3518 -0.3384
   74MOL   C10835294   0.487   5.794   5.849 -0.3161 -0.3138 -0.2322
   74MOL   O10935295   0.567   5.888   5.858  0.4137  0.1020  0.1108
   74MOL   H11035296   7.728   5.552   5.375 -2.4985  1.5003  0.6237
   74MOL   H11135297   7.752   5.658   5.236 -0.4775  2.9129  0.3506
   74MOL   H11235298   0.086   5.569   5.375  1.6804 -0.3552 -0.2820
   74MOL   H11335299   0.049   5.709   5.488  0.9619  1.7603 -1.3026
   74MOL   H11435300   0.063   5.866   5.307 -0.0810  0.4984 -2.1800
   74MOL   H11535301   0.087   5.731   5.193 -1.7101 -0.8445 -0.2783
   74MOL   H11635302   0.308   5.693   5.345  0.7235  0.7293  1.3042
   74MOL   H11735303   0.296   5.843   5.253 -2.1614  0.9745 -0.2120
   74MOL   H11835304   0.246   5.971   5.682 -0.4580 -0.0993  0.5037
   74MOL   H11935305   0.417   6.012   5.695  1.4181 -1.6938  1.3778
   74MOL   H12035306   0.277   5.861   5.875  1.1852  1.9217 -0.4210
   74MOL   H12135307   0.302   5.726   5.774  1.2145 -0.4116 -2.2953
   74MOL   O12235308   0.518   5.662   5.853 -0.3559  0.5013  0.3441
   74MOL   C12335309   0.651   5.606   5.878  0.2037  0.3926 -0.6175
   74MOL   C12435310   0.742   5.619   5.756  0.3545 -0.1435 -0.0247
   74MOL   C12535311   0.862   5.518   5.772 -0.1346  0.8731 -0.6689
   74MOL   C12635312   0.830   5.372   5.749 -0.7176  0.7242 -0.5690
   74MOL   O12735313   0.950   5.295   5.759 -0.1086 -0.0300  0.0474
   74MOL   C12835314   0.944   5.162   5.755 -0.0568 -0.6948  0.3829
   74MOL   O12935315   0.837   5.102   5.746 -0.0315  0.2998  0.1549
   74MOL   C13035316   1.080   5.094   5.760  0.3096 -0.0920  0.3496
   74MOL   C13135317   1.151   5.104   5.621 -0.3949 -0.5911 -0.1050
   74MOL   C13235318   1.276   5.197   5.633 -0.2639  0.5879 -0.8324
   74MOL   O13335319   1.282   5.312   5.580 -0.6730 -1.0643 -0.2611
   74MOL   H13435320   0.700   5.653   5.963  2.2691 -0.9552 -1.0050
   74MOL   H13535321   0.635   5.503   5.908 -0.0504 -0.0645 -2.2766
   74MOL   H13635322   0.777   5.721   5.745  2.0834 -0.5287  1.6169
   74MOL   H13735323   0.683   5.587   5.670 -0.7748 -0.3853  0.8236
   74MOL   H13835324   0.904   5.535   5.871  0.3537  0.3674 -0.7872
   74MOL   H13935325   0.946   5.541   5.707  0.9721 -2.2743 -0.4619
   74MOL   H14035326   0.762   5.316   5.813 -1.3429  2.3523  0.1875
   74MOL   H14135327   0.797   5.364   5.645 -3.3546  3.7485 -0.0239
   74MOL   H14235328   1.051   4.989   5.769 -2.1236  0.6218  1.3220
   74MOL   H14335329   1.136   5.110   5.852  1.9621 -1.3908 -0.3939
   74MOL   H14435330   1.191   5.005   5.596 -1.0614 -1.0942  0.7836
   74MOL   H14535331   1.094   5.145   5.538  1.1762  1.1077 -0.3829
   74MOL   O14635332   1.377   5.137   5.690  0.0010 -0.1787  0.4304
   74MOL   C14735333   1.506   5.202   5.705 -0.2020  0.6291  0.7702
   74MOL   C14835334   1.495   5.281   5.830 -0.3907 -0.0469 -0.0571
   74MOL   C14935335   1.478   5.189   5.956  0.2624  0.5295  0.0080
   74MOL   C15035336   1.430   5.263   6.084 -0.0856  0.5448 -0.4805
   74MOL   O15135337   1.293   5.289   6.067  0.3992 -0.8834 -0.1884
   74MOL   C15235338   1.239   5.382   6.134 -0.8894 -0.1467 -1.2553
   74MOL   O15335339   1.297   5.446   6.220  0.0276  0.4461 -0.2954
   74MOL   C15435340   1.093   5.397   6.109 -0.0721 -0.4287 -0.1724
   74MOL   C15535341   1.010   5.305   6.204  0.1164  0.2625  0.3337
   74MOL   C15635342   0.947   5.196   6.125 -0.3168 -0.5376  0.2462
   74MOL   O15735343   1.016   5.110   6.072  0.0255 -0.4561 -0.1356
   74MOL   H15835344   1.591   5.133   5.703 -2.1537 -1.8472  0.6609
   74MOL   H15935345   1.519   5.269   5.621 -3.0383 -0.3503 -0.5057
   74MOL   H16035346   1.418   5.357   5.816  0.2136  0.9758  1.9891
   74MOL   H16135347   1.575   5.348   5.859 -1.8238  1.3958  0.6800
   74MOL   H16235348   1.578   5.148   5.965 -0.0568 -0.1393  0.4853
   74MOL   H16335349   1.406   5.110   5.933  2.5667 -1.4894 -0.4101
   74MOL   H16435350   1.454   5.194   6.165 -1.8342 -0.4762 -0.8080
   74MOL   H16535351   1.484   5.356   6.104 -0.1789  0.7893 -1.3216
   74MOL   H16635352   1.071   5.381   6.004 -0.2825  1.9357 -0.5166
   74MOL   H16735353   1.060   5.499   6.131  0.3001 -0.6404  1.4738
   74MOL   H16835354   1.060   5.278   6.297 -0.7987  1.6012  1.2379
   74MOL   H16935355   0.929   5.372   6.234 -2.1875 -1.9247 -0.8099
   74MOL   O17035356   0.812   5.193   6.137 -0.5618  0.3482 -0.3241
   74MOL   C17135357   0.745   5.082   6.083  0.8064  0.0175 -0.5253
   74MOL   C17235358   0.590   5.081   6.094  0.3451  0.3505 -0.5577
   74MOL   C17335359   0.539   5.205   6.020  0.3326  1.1797  0.4351
   74MOL   C17435360   0.388   5.223   6.029  0.3522  0.1040 -0.4223
   74MOL   O17535361   0.311   5.133   5.952  0.1726  0.5105 -0.1563
   74MOL   C17635362   0.179   5.136   5.973  0.0246 -0.1125  0.1186
   74MOL   O17735363   0.122   5.193   6.069 -0.5191 -0.2484  0.4173
   74MOL   C17835364   0.092   5.067   5.864 -0.5666 -0.3489  0.4451
   74MOL   C17935365   0.078   4.918   5.898 -0.0894 -0.3735  0.5629
   74MOL   C18035366   7.838   4.855   5.817  0.3522  0.7302  0.4124
   74MOL   O18135367   7.795   4.745   5.859 -0.4291  0.2091 -0.4875
   74MOL   H18235368   0.771   5.083   5.977  2.3313  1.6433 -0.1741
   74MOL   H18335369   0.782   4.992   6.132  0.5024  0.0349 -0.2656
   74MOL   H18435370   0.561   5.071   6.198 -0.9318 -0.7434 -1.0014
   74MOL   H18535371   0.542   4.993   6.051 -0.7777  0.1760  1.0060
   74MOL   H18635372   0.560   5.211   5.914  0.2761  1.1017  0.4194
   74MOL   H18735373   0.589   5.293   6.060  1.9767  0.3050  0.3464
   74MOL   H18835374   0.364   5.204   6.134 -0.4571  0.0309 -0.6199
   74MOL   H18935375   0.361   5.326   6.009  0.4512  0.6186  1.9376
   74MOL   H19035376   0.139   5.071   5.766  1.1090 -0.0599  1.2346
   74MOL   H19135377   7.873   5.123   5.857 -0.5953 -0.6456 -1.9235
   74MOL   H19235378   0.171   4.862   5.884 -0.2622 -0.8008  1.1066
   74MOL   H19335379   0.049   4.912   6.003  1.4494  0.7143  1.0814
   74MOL   O19435380   7.801   4.923   5.708 -0.5921  0.7787  0.3207
   74MOL   C19535381   7.718   4.868   5.605  0.1024 -0.3051 -0.3564
   74MOL   C19635382   7.728   4.969   5.486 -0.7394  0.3702 -0.5489
   74MOL   C19735383   7.678   4.901   5.359 -0.1231  0.4621  0.1300
   74MOL   C19835384   7.721   4.986   5.240  0.2251 -0.4571  0.5122
   74MOL   O19935385   7.665   5.120   5.248  1.1131 -0.3107  0.4985
   74MOL   C20035386   7.650   5.185   5.134 -0.3008 -1.0133 -0.3910
   74MOL   O20135387   7.697   5.159   5.027 -0.2558  0.2845  0.1880
   74MOL   C20235388   7.560   5.310   5.148 -0.5306 -0.3614  0.1490
   74MOL   C20335389   7.423   5.275   5.204 -0.1467 -0.1172 -0.5852
   74MOL   C20435390   7.318   5.283   5.104  0.2118 -0.3538  0.2035
   74MOL   O20535391   7.258   5.179   5.065 -0.5002 -0.1157  0.3894
   74MOL   H20635392   7.761   4.771   5.578  0.1757 -0.7680  1.3722
   74MOL   H20735393   7.617   4.862   5.644  1.5584  0.0645  3.6792
   74MOL   H20835394   7.830   5.007   5.485 -0.0107 -1.5429 -0.6919
   74MOL   H20935395   7.670   5.060   5.504 -0.3055  0.3645  0.9642
   74MOL   H21035396   7.570   4.889   5.353 -0.1464  0.2178  0.9344
   74MOL   H21135397   7.721   4.802   5.344  0.1405  0.3499  1.5387
   74MOL   H21235398   7.829   4.988   5.231  0.0660  0.4033 -1.5056
   74MOL   H21335399   7.694   4.920   5.158  2.4104 -0.3809 -0.2699
   74MOL   H21435400   7.554   5.356   5.049 -1.3698 -2.5952 -0.8784
   74MOL   H21535401   7.611   5.378   5.216  0.3597  0.2683 -1.1206
   74MOL   H21635402   7.410   5.173   5.239  1.1148 -0.8783 -2.2850
   74MOL   H21735403   7.408   5.349   5.283 -0.4237  0.1081 -0.8485
   74MOL   O21835404   7.294   5.415   5.057 -0.7371 -0.0702 -0.1244
   74MOL   C21935405   7.233   5.437   4.931  0.3076  0.1571  0.1863
   74MOL   C22035406   7.343   5.447   4.822 -0.5881 -0.2800 -0.1816
   74MOL   C22135407   7.413   5.592   4.820 -0.0834 -0.3699  0.1787
   74MOL   C22235408   7.514   5.614   4.938  0.1621  0.6291 -0.3433
   74MOL   O22335409   7.600   5.732   4.929  0.8179 -0.8153 -0.0786
   74MOL   C22435410   7.567   5.851   4.983  0.0681 -0.1662  0.3128
   74MOL   O22535411   7.464   5.889   5.032  0.0259  0.1381 -0.4985
   74MOL   C22635412   7.697   5.947   4.961 -0.0491 -0.2432 -0.1108
   74MOL   C22735413   7.820   5.903   5.039 -0.1473 -0.0974  0.2866
   74MOL   C22835414   0.067   5.877   4.952 -0.2925  0.6930  0.3834
   74MOL   O22935415   0.065   5.793   4.863 -0.1546  0.1188  0.4599
   74MOL   H23035416   7.165   5.353   4.920 -0.2501  0.7185 -0.7473
   74MOL   H23135417   7.167   5.524   4.922 -2.7469 -2.1529 -0.7081
   74MOL   H23235418   7.277   5.432   4.736 -0.2259  1.6116 -0.8113
   74MOL   H23335419   7.414   5.366   4.840  2.9299  2.5686 -0.7184
   74MOL   H23435420   7.340   5.673   4.813 -0.3134 -0.6272 -0.4565
   74MOL   H23535421   7.472   5.594   4.728 -1.9965  0.8631 -1.0744
   74MOL   H23635422   7.453   5.624   5.028  1.7768 -0.8994  0.9554
   74MOL   H23735423   7.567   5.519   4.940 -1.9312 -0.6619 -2.8572
   74MOL   H23835424   7.652   6.040   4.995  1.5764  1.0720 -1.5109
   74MOL   H23935425   7.726   5.952   4.857 -0.1798  0.9785 -0.0962
   74MOL   H24035426   7.848   5.983   5.108  0.5792 -0.1810  0.0970
   74MOL   H24135427   7.795   5.807   5.083  0.1610 -2.0294 -3.5900
   74MOL   O24235428   0.171   5.944   5.004  0.2113 -0.7573  0.0231
   74MOL   C24335429   0.288   5.946   4.930  0.4622 -0.8145 -0.5804
   74MOL   C24435430   0.394   5.855   4.979  0.2234 -0.8824 -0.8367
   74MOL   C24535431   0.366   5.710   4.965  0.0772  0.4140 -0.6704
   74MOL   C24635432   0.470   5.618   5.034 -0.5568  0.1477  0.1728
   74MOL   O24735433   0.486   5.627   5.176 -0.6385  0.1297 -0.0370
   74MOL   C24835434   0.569   5.537   5.243 -0.0510  0.8498  0.0677
   74MOL   O24935435   0.623   5.438   5.190  0.0090 -0.1937  0.1326
   74MOL   C25035436   0.571   5.557   5.393  0.1629  0.1725 -0.3184
   74MOL   C25135437   0.446   5.491   5.449 -0.2847  0.7046 -0.8955
   74MOL   C25235438   0.486   5.392   5.559  0.4275 -0.1783  0.4387
   74MOL   O25335439   0.507   5.429   5.675 -0.7802  0.1544  0.2488
   74MOL   H25435440   0.278   5.943   4.821  1.4773 -0.4597 -0.6951
   74MOL   H25535441   0.314   6.052   4.927 -2.1727 -0.0969  0.2379
   74MOL   H25635442   0.407   5.889   5.082 -1.6823  0.0980 -0.8875
   74MOL   H25735443   0.484   5.874   4.921  0.5476 -0.3060 -0.1595
   74MOL   H25835444   0.361   5.684   4.859 -0.8419 -0.0090 -0.5327
   74MOL   H25935445   0.271   5.680   5.009  1.2365 -0.0915  1.6079
   74MOL   H26035446   0.467   5.515   5.000 -2.1801  0.7520 -1.5546
   74MOL   H26135447   0.570   5.644   4.999  0.3770 -0.7437  2.0686
   74MOL   H26235448   0.572   5.664   5.410 -2.0172 -0.2502  3.1742
   74MOL   H26335449   0.664   5.510   5.426 -0.6378 -0.0566  1.6829
   74MOL   H26435450   0.378   5.568   5.486  0.0109  0.6337 -0.2084
   74MOL   H26535451   0.386   5.436   5.376 -0.1428  1.8350 -1.8896
   74MOL   O26635452   0.505   5.263   5.512  0.0601  0.4580  0.9751
   74MOL   C26735453   0.560   5.170   5.608  0.6306  0.3700 -0.4926
   74MOL   C26835454   0.464   5.064   5.646 -0.2373 -0.2917  0.0621
   74MOL   C26935455   0.393   4.985   5.527 -0.1815  0.1795 -0.3050
   74MOL   C27035456   0.286   4.888   5.584 -0.5457  0.2584  1.1443
   74MOL   O27135457   0.361   4.779   5.626  0.8314 -0.3415  0.1100
   74MOL   C27235458   0.294   4.672   5.683  0.2889  0.1411  0.1428
   74MOL   O27335459   0.173   4.667   5.696 -0.0671 -0.1581 -0.3460
   74MOL   C27435460   0.382   4.554   5.706  0.5440 -0.5605  0.2204
   74MOL   C27535461   0.430   4.506   5.570 -0.3257  0.4894  0.8436
   74MOL   C27635462   0.491   4.369   5.580  0.5402 -0.4548 -0.5213
   74MOL   O27735463   0.429   4.269   5.549 -0.1489  0.7862 -0.1350
   74MOL   H27835464   0.629   5.120   5.540  1.2505  1.8036 -0.9334
   74MOL   H27935465   0.613   5.213   5.692 -0.2203  0.7892 -0.1629
   74MOL   H28035466   0.387   5.117   5.701  0.4518  1.4032 -0.5516
   74MOL   H28135467   0.509   5.004   5.725 -1.0629 -1.1679 -0.1224
   74MOL   H28235468   0.457   4.922   5.466 -1.2256 -0.9286 -0.2718
   74MOL   H28335469   0.355   5.065   5.463  0.6654  1.3542  0.6214
   74MOL   H28435470   0.242   4.942   5.668  1.4193 -0.4626  2.6745
   74MOL   H28535471   0.205   4.865   5.515  2.2534 -1.4506 -1.7129
   74MOL   H28635472   0.326   4.475   5.757 -2.8222  0.4495 -1.7055
   74MOL   H28735473   0.466   4.574   5.772  0.5845  2.9794 -0.8342
   74MOL   H28835474   0.347   4.499   5.500 -0.9157  0.0750  1.5725
   74MOL   H28935475   0.503   4.569   5.520 -0.1410 -0.7064 -0.4469
   74MOL   O29035476   0.620   4.364   5.635 -0.0208 -0.1996 -0.4673
   74MOL   C29135477   0.687   4.241   5.640  0.2146 -0.1754  0.1024
   74MOL   C29235478   0.827   4.249   5.701 -0.0030 -0.8523 -0.1132
   74MOL   C29335479   0.830   4.218   5.847  0.3056  0.3129 -0.0182
   74MOL   C29435480   0.740   4.306   5.928 -0.3307  0.6079 -0.0095
   74MOL   O29535481   0.723   4.250   6.060  0.0419 -0.1383  0.4983
   74MOL   C29635482   0.640   4.310   6.149  0.8344  0.5872 -1.2360
   74MOL   O29735483   0.566   4.405   6.123  0.2658 -0.8302 -0.1150
   74MOL   C29835484   0.644   4.250   6.282 -0.2896 -0.6676 -0.5283
   74MOL   C29935485   0.575   4.114   6.277 -0.1137 -0.4990  1.4023
   74MOL   C30035486   0.676   4.013   6.220  0.4872 -0.2122  0.1691
   74MOL   O30135487   0.687   3.992   6.103  1.1183  0.3867 -0.3135
   74MOL   H30235488   0.624   4.179   5.704 -0.7779  1.0238  0.3153
   74MOL   H30335489   0.688   4.189   5.545 -0.2305  1.0203 -0.5761
   74MOL   H30435490   0.870   4.348   5.686 -1.9265  0.0620  0.2764
   74MOL   H30535491   0.893   4.183   5.645  0.8203 -2.0834  2.2510
   74MOL   H30635492   0.933   4.203   5.879  0.6199 -0.4052 -1.3290
   74MOL   H30735493   0.771   4.130   5.870 -1.9031  2.1633  1.6294
   74MOL   H30835494   0.793   4.400   5.947  0.3744  0.5512 -1.6446
   74MOL   H30935495   0.645   4.331   5.883 -0.7215 -2.4760 -0.9937
   74MOL   H31035496   0.587   4.302   6.358 -0.4419 -0.1896 -0.9730
   74MOL   H31135497   0.748   4.246   6.317  0.1927  1.3599 -1.6737
   74MOL   H31235498   0.554   4.080   6.378 -0.8237 -2.3171  0.6516
   74MOL   H31335499   0.490   4.120   6.209 -0.7881 -0.2712  2.2588
   74MOL   O31435500   0.740   3.949   6.321  0.2540 -0.0475  0.0595
   74MOL   C31535501   0.832   3.838   6.289 -0.1367 -0.1405  0.6371
   74MOL   C31635502   0.893   3.788   6.411  0.1959  0.2664  1.0719
   74MOL   C31735503   0.996   3.894   6.463  0.2739  0.0368 -0.3414
   74MOL   C31835504   1.089   3.842   6.569 -0.7832 -0.3369 -0.6399
   74MOL   O31935505   1.173   3.736   6.526 -0.5223  0.1451  0.0337
   74MOL   C32035506   1.155   3.608   6.561 -0.3137  0.5404 -0.4873
   74MOL   O32135507   1.063   3.561   6.627  0.2395  0.0304  0.2262
   74MOL   C32235508   1.267   3.515   6.509 -0.2053  0.5943 -0.3838
   74MOL   C32335509   1.258   3.510   6.355 -0.2197  0.5979 -0.4948
   74MOL   C32435510   1.360   3.602   6.289  0.6814  0.4862  0.0948
   74MOL   O32535511   1.480   3.576   6.274  0.5899 -0.4223 -0.0494
   74MOL   H32635512   0.789   3.753   6.236 -1.0163  0.6023  0.1311
   74MOL   H32735513   0.915   3.868   6.226 -0.3255  0.7714  0.8124
   74MOL   H32835514   0.946   3.695   6.388  0.1483  0.4054  0.4221
   74MOL   H32935515   0.816   3.760   6.483  1.5227 -2.6461  1.4373
   74MOL   H33035516   0.936   3.978   6.497 -1.5257 -1.6832  0.8663
   74MOL   H33135517   1.063   3.935   6.388  0.9853  1.0365  0.8365
   74MOL   H33235518   1.150   3.928   6.595 -0.7750 -0.5188 -0.0424
   74MOL   H33335519   1.026   3.808   6.651 -0.1139  1.9453  0.8664
   74MOL   H33435520   1.234   3.418   6.549  0.4008  1.2436  1.7669
   74MOL   H33535521   1.370   3.540   6.535  0.0448  0.6717 -1.4350
   74MOL   H33635522   1.272   3.406   6.324 -1.8831 -0.2976  1.5997
   74MOL   H33735523   1.157   3.532   6.319 -0.6190 -0.4053 -0.0300
   74MOL   O33835524   1.301   3.715   6.240  0.3168 -0.2845  0.4897
   74MOL   C33935525   1.381   3.808   6.172 -0.4711  0.2689 -0.0051
   74MOL   C34035526   1.444   3.910   6.267  0.0520  0.8343 -0.1580
   74MOL   C34135527   1.541   4.005   6.197  0.1016 -0.0792 -0.0950
   74MOL   C34235528   1.475   4.132   6.146  0.0032  0.3356  0.7349
   74MOL   O34335529   1.577   4.224   6.112 -0.2953  0.3218 -0.4339
   74MOL   C34435530   1.550   4.350   6.075  0.0737 -0.0975 -0.0297
   74MOL   O34535531   1.436   4.386   6.045 -0.2840  0.0315  0.2236
   74MOL   C34635532   1.670   4.443   6.047 -0.0287 -0.4276 -0.3183
   74MOL   C34735533   1.805   4.395   6.111  0.5827  0.1193  0.0426
   74MOL   C34835534   1.809   4.409   6.261 -0.1077 -0.4270  0.6315
   74MOL   O34935535   1.727   4.478   6.324  0.1414 -0.4428 -0.1346
   74MOL   H35035536   1.459   3.761   6.112 -0.8677 -1.7673  1.0323
   74MOL   H35135537   1.315   3.863   6.105 -2.3601 -0.2358  1.3935
   74MOL   H35235538   1.498   3.839   6.330 -2.2980  0.4935  1.5148
   74MOL   H35335539   1.365   3.959   6.323  0.0957  0.2692  0.4059
   74MOL   H35435540   1.606   3.966   6.119  0.7488  1.7538 -0.5067
   74MOL   H35535541   1.612   4.030   6.276 -1.0289 -2.8424  1.8542
   74MOL   H35635542   1.403   4.118   6.066  1.0104 -0.3813 -0.0632
   74MOL   H35735543   1.418   4.166   6.232  2.9593  2.3245  1.9596
   74MOL   H35835544   1.644   4.538   6.095  1.3912 -0.2262  0.0753
   74MOL   H35935545   1.677   4.461   5.939  0.8949 -3.4313 -0.7878
   74MOL   H36035546   1.828   4.292   6.084 -1.7458 -0.1357 -1.1871
   74MOL   H36135547   1.882   4.468   6.090 -0.0029  1.0994  1.2223
   74MOL   O36235548   1.910   4.338   6.314 -0.3756 -0.4464 -0.1802
   74MOL   C36335549   1.911   4.311   6.454 -0.4640  0.2568 -0.0602
   74MOL   C36435550   2.044   4.369   6.512 -0.2404 -0.0107  0.3628
   74MOL   C36535551   2.047   4.527   6.525  0.3074 -0.0492  1.4384
   74MOL   C36635552   1.957   4.585   6.631 -0.5624 -0.1620  0.1471
   74MOL   O36735553   2.006   4.561   6.763 -0.1675 -0.2421 -0.2973
   74MOL   C36835554   2.018   4.660   6.853  0.0949 -0.1034 -0.2363
   74MOL   O36935555   1.982   4.777   6.840  0.1851  0.6260  0.3937
   74MOL   C37035556   2.081   4.604   6.982 -0.0514  0.2504 -0.0991
   74MOL   C37135557   1.988   4.536   7.078 -0.0081 -0.3265 -0.0527
   74MOL   C37235558   1.975   4.630   7.201 -0.2242 -0.1211 -0.1970
   74MOL   O37335559   1.867   4.669   7.234 -0.0961  0.1319  0.2700
   74MOL   H37435560   1.828   4.350   6.511  0.5553  1.1945  0.8015
   74MOL   H37535561   1.918   4.205   6.481  0.6608 -0.0600 -1.4987
   74MOL   H37635562   2.130   4.340   6.452  0.3398 -0.3643  1.3480
   74MOL   H37735563   2.062   4.332   6.613 -0.6355  0.9661  0.8022
   74MOL   H37835564   2.015   4.575   6.432  0.4414 -0.0805  1.3766
   74MOL   H37935565   2.145   4.574   6.532  0.2487  0.8955 -2.6987
   74MOL   H38035566   1.935   4.692   6.622 -0.4889  0.0451  2.1127
   74MOL   H38135567   1.859   4.542   6.612 -1.1509  2.5862 -3.6518
   74MOL   H38235568   2.136   4.688   7.024 -0.4037 -0.5974  2.1162
   74MOL   H38335569   2.170   4.542   6.966  0.1807  1.1714 -2.6578
   74MOL   H38435570   1.897   4.513   7.023  0.0257  1.3822 -0.8615
   74MOL   H38535571   2.026   4.441   7.115 -1.2562  0.2257  2.8502
   74MOL   O38635572   2.086   4.668   7.256  0.1186  0.2978  0.2948
   74MOL   C38735573   2.091   4.759   7.365 -0.2205 -0.0054 -0.1658
   74MOL   C38835574   2.227   4.823   7.379  0.0127 -0.0701 -0.3313
   74MOL   C38935575   2.324   4.714   7.419 -0.0385  0.7011  0.6479
   74MOL   C39035576   2.464   4.775   7.448  1.0597 -0.1315  0.2709
   74MOL   O39135577   2.554   4.678   7.502 -0.3402  0.5405 -0.2945
   74MOL   C39235578   2.641   4.614   7.419 -0.3880  0.3256  0.0349
   74MOL   O39335579   2.662   4.629   7.298  0.3776 -0.3193 -0.6327
   74MOL   C39435580   2.715   4.506   7.490 -0.5842  0.9303  0.1052
   74MOL   C39535581   2.860   4.558   7.523 -0.4263 -0.5813  0.2290
   74MOL   C39635582   2.963   4.473   7.455  0.2688 -0.4819  0.5461
   74MOL   O39735583   3.047   4.521   7.372  0.2874 -0.3800 -0.2116
   74MOL   H39835584   2.015   4.836   7.353 -1.2371 -0.6609  1.8713
   74MOL   H39935585   2.059   4.707   7.456  0.9463 -0.6132 -0.0837
   74MOL   H40035586   2.215   4.885   7.467 -1.3178 -0.1098 -0.4765
   74MOL   H40135587   2.267   4.891   7.303 -0.8833  1.1540  0.2880
   74MOL   H40235588   2.332   4.640   7.339  1.5745  1.3080  0.2183
   74MOL   H40335589   2.292   4.661   7.508  2.2081 -0.3063  0.8900
   74MOL   H40435590   2.507   4.823   7.360  1.0811  1.0236  0.9009
   74MOL   H40535591   2.465   4.843   7.533 -1.2901  1.8009 -1.1908
   74MOL   H40635592   2.711   4.417   7.426  0.3375  0.0812  1.1985
   74MOL   H40735593   2.662   4.465   7.576  1.3898  0.3599  1.0734
   74MOL   H40835594   2.879   4.658   7.482 -0.5725 -1.1642 -1.2712
   74MOL   H40935595   2.874   4.570   7.631  0.0720  4.7833 -0.2958
   74MOL   O41035596   2.965   4.344   7.494  0.8259 -0.9858  0.2609
   74MOL   C41135597   3.049   4.249   7.428  0.8328 -0.3283  0.4267
   74MOL   C41235598   3.004   4.100   7.462 -0.2824 -0.3772 -0.0532
   74MOL   C41335599   3.030   4.065   7.611 -0.1804 -0.2996  0.9213
   74MOL   C41435600   2.957   3.946   7.668  1.0919 -0.2289  0.1824
   74MOL   O41535601   2.970   3.823   7.590  0.3550 -0.6368  0.3589
   74MOL   C41635602   2.959   3.701   7.648  0.3306 -0.0185 -0.0307
   74MOL   O41735603   2.952   3.684   7.767 -0.0999 -0.5076  0.4235
   74MOL   C41835604   2.953   3.591   7.546  0.3780  0.0314  0.1079
   74MOL   C41935605   2.881   3.628   7.412  0.0505  0.6450 -0.6518
   74MOL   C42035606   2.968   3.598   7.291 -0.8463  0.0384 -1.1475
   74MOL   O42135607   2.917   3.540   7.196  0.0028  0.0678 -0.0348
   74MOL   H42235608   3.052   4.271   7.322 -2.2622  3.4621  0.9654
   74MOL   H42335609   3.147   4.269   7.469 -0.6476  3.1475  2.4960
   74MOL   H42435610   3.042   4.020   7.397 -1.1032 -1.7113  1.0787
   74MOL   H42535611   2.896   4.094   7.447 -0.0938 -0.1272 -1.5716
   74MOL   H42635612   2.997   4.147   7.675  2.1764  0.1499  1.6199
   74MOL   H42735613   3.137   4.056   7.632  0.5779  2.8559 -1.1388
   74MOL   H42835614   2.988   3.927   7.771  0.9671  0.7672  0.4012
   74MOL   H42935615   2.848   3.956   7.667  1.0667 -0.4008  0.8739
   74MOL   H43035616   2.903   3.501   7.582 -0.0073 -0.1984 -0.9817
   74MOL   H43135617   3.055   3.562   7.521  0.8465 -0.1520  2.1443
   74MOL   H43235618   2.783   3.582   7.399 -0.5080  1.4843  0.5185
   74MOL   H43335619   2.861   3.735   7.409  0.0602  0.6710  0.0400
   74MOL   O43435620   3.087   3.659   7.298  0.7902  0.1740  0.6359
   74MOL   C43535621   3.173   3.656   7.189  0.2202 -0.2866  0.1849
   74MOL   C43635622   3.289   3.754   7.207 -0.1663 -0.2403 -0.4863
   74MOL   C43735623   3.352   3.734   7.347  1.0307 -0.0114  0.5904
   74MOL   C43835624   3.475   3.821   7.363 -0.0910  0.5859  0.4522
   74MOL   O43935625   3.443   3.950   7.414  0.2730 -0.5867  0.6958
   74MOL   C44035626   3.425   4.056   7.333 -0.5509 -0.2769  0.2277
   74MOL   O44135627   3.412   4.057   7.210 -0.2767 -0.3047  0.1397
   74MOL   C44235628   3.407   4.184   7.413  0.7626  0.3552 -0.5368
   74MOL   C44335629   3.372   4.302   7.324 -0.2983  0.2601 -0.2108
   74MOL   C44435630   3.479   4.406   7.294 -0.2370  0.4820 -0.2595
   74MOL   O44535631   3.584   4.406   7.360 -0.1764  0.1249 -0.4690
   74MOL   H44635632   3.218   3.557   7.185 -1.9782 -1.2521 -1.7146
   74MOL   H44735633   3.119   3.679   7.097  0.3437  1.7098  0.5738
   74MOL   H44835634   3.260   3.859   7.192 -1.9965 -1.1973 -4.1932
   74MOL   H44935635   3.361   3.732   7.128  2.2053 -2.8058  2.2773
   74MOL   H45035636   3.384   3.631   7.359  1.4616  0.0236 -0.2178
   74MOL   H45135637   3.275   3.757   7.420 -0.4077  0.7268 -1.1409
   74MOL   H45235638   3.546   3.770   7.429  0.3717 -1.6714 -1.7010
   74MOL   H45335639   3.538   3.824   7.274 -1.5050  4.9263 -0.5170
   74MOL   H45435640   3.503   4.212   7.456  0.3094 -0.1770  0.8749
   74MOL   H45535641   3.326   4.170   7.486  1.2358  0.1191 -0.0525
   74MOL   H45635642   3.326   4.268   7.231 -1.0975  0.8916 -0.0398
   74MOL   H45735643   3.289   4.354   7.371  1.6519  1.5305  1.9065
   74MOL   O45835644   3.440   4.493   7.201  0.0429 -0.2492 -0.1497
   74MOL   C45935645   3.520   4.605   7.177 -0.0406 -1.5145  0.1339
   74MOL   C46035646   3.632   4.572   7.083 -0.1358  0.0702 -0.4604
   74MOL   C46135647   3.587   4.506   6.955  0.2946  0.2451 -0.5166
   74MOL   C46235648   3.694   4.491   6.844 -0.2308 -0.3116 -0.1741
   74MOL   O46335649   3.635   4.399   6.752  1.0645 -0.3557  1.4793
   74MOL   C46435650   3.691   4.378   6.640 -0.1533 -0.4880 -0.0014
   74MOL   O46535651   3.802   4.416   6.604  0.3043 -0.1407  0.3850
   74MOL   C46635652   3.595   4.324   6.534 -0.8426 -0.0446 -0.2065
   74MOL   C46735653   3.590   4.166   6.537  0.4222  0.2155  0.0102
   74MOL   C46835654   3.678   4.098   6.424 -0.0874 -0.0674 -0.3626
   74MOL   O46935655   3.692   4.156   6.315  0.0309 -0.4141 -0.5491
   74MOL   H47035656   3.456   4.684   7.137  2.6283  1.3582  1.3486
   74MOL   H47135657   3.552   4.647   7.273 -2.6365 -0.5363  0.6090
   74MOL   H47235658   3.719   4.515   7.118 -0.5562  0.4985  1.3290
   74MOL   H47335659   3.687   4.665   7.070 -2.7939  1.5224 -1.6729
   74MOL   H47435660   3.496   4.562   6.930  0.8502  0.5206 -1.9489
   74MOL   H47535661   3.550   4.411   6.994 -3.2785  1.7846  0.0684
   74MOL   H47635662   3.714   4.589   6.802  0.0920  0.6899  2.2396
   74MOL   H47735663   3.784   4.448   6.888  0.5863  0.6668 -0.8915
   74MOL   H47835664   3.624   4.362   6.436  0.3024  0.0213  0.1482
   74MOL   H47935665   3.497   4.366   6.559 -0.5641 -0.1302  1.0750
   74MOL   H48035666   3.618   4.126   6.634  0.1504 -0.8792 -0.3454
   74MOL   H48135667   3.488   4.135   6.514  0.9453 -1.8718  0.3462
   74MOL   H48235668   3.722   4.002   6.451  1.1898  0.4744 -0.4895
   75MOL     O135669   2.085   5.426   5.422 -0.3249  0.5887  0.4631
   75MOL     C235670   2.207   5.378   5.359  0.7277  0.5669  0.1126
   75MOL     C335671   2.160   5.275   5.244  0.4063  0.4091 -0.0594
   75MOL     C435672   2.081   5.340   5.131  0.1416 -0.2183 -0.7518
   75MOL     C535673   2.074   5.250   5.002 -0.4617  0.1715 -0.0949
   75MOL     O635674   1.970   5.164   5.022  0.2871 -0.4646 -0.1784
   75MOL     C735675   1.836   5.199   5.000 -0.0454 -0.6545 -0.4825
   75MOL     O835676   1.803   5.318   4.993  0.7600  0.0738 -0.4392
   75MOL     C935677   1.740   5.088   4.985 -0.0179 -0.4329 -0.4166
   75MOL    C1035678   1.707   5.062   4.835 -0.0783 -0.8127 -0.7661
   75MOL    C1135679   1.799   4.959   4.778 -0.0197 -0.6062 -0.3949
   75MOL    O1235680   1.920   4.954   4.802 -0.6484  0.0838  0.4660
   75MOL    H1335681   2.252   5.472   5.328  0.1609  0.7192 -0.2677
   75MOL    H1435682   2.274   5.332   5.432  0.5289  1.0087  0.5758
   75MOL    H1535683   2.092   5.201   5.286  0.0015  0.2468 -0.9828
   75MOL    H1635684   2.248   5.231   5.196  1.0682 -1.1762  2.5413
   75MOL    H1735685   2.112   5.440   5.103 -0.1280  0.7836  2.3704
   75MOL    H1835686   1.982   5.359   5.172 -0.3164  0.0992 -1.9665
   75MOL    H1935687   2.055   5.319   4.920 -2.7570 -2.3157 -1.7435
   75MOL    H2035688   2.164   5.190   4.987 -1.4265 -1.2880 -0.1842
   75MOL    H2135689   1.649   5.119   5.037 -0.6699  0.2971 -1.9725
   75MOL    H2235690   1.777   4.992   5.023  0.2102 -1.4231 -2.9850
   75MOL    H2335691   1.608   5.017   4.834  0.3186 -1.6940 -1.8089
   75MOL    H2435692   1.703   5.147   4.768 -2.5883 -0.7789 -0.6039
   75MOL    H2535693   2.082   5.371   5.499 -2.7813 -2.1911 -1.4799
   75MOL    O2635694   1.734   4.869   4.696  0.1950 -0.2690 -0.2135
   75MOL    C2735695   1.810   4.769   4.635 -0.1805 -0.2872  0.1097
   75MOL    C2835696   1.741   4.710   4.509  0.7964  0.3992 -0.0503
   75MOL    C2935697   1.819   4.610   4.428 -0.1366  0.5797  0.1488
   75MOL    C3035698   1.746   4.550   4.304  0.2833  0.0140 -0.1456
   75MOL    O3135699   1.640   4.467   4.351  0.2702 -0.4014 -0.2935
   75MOL    C3235700   1.522   4.452   4.287 -0.4880 -0.7225 -0.8138
   75MOL    O3335701   1.494   4.492   4.172  0.0947 -0.5429  0.4816
   75MOL    C3435702   1.418   4.406   4.391  0.2598 -0.8679 -0.4592
   75MOL    C3535703   1.275   4.379   4.327 -0.4934 -0.3210 -0.3376
   75MOL    C3635704   1.210   4.258   4.396  0.7343  0.4003 -0.1257
   75MOL    O3735705   1.235   4.142   4.351  0.1579 -0.4239  0.1624
   75MOL    H3835706   1.911   4.804   4.614  0.0565 -2.1859 -2.1039
   75MOL    H3935707   1.829   4.691   4.708  2.2745  0.4946  0.3493
   75MOL    H4035708   1.721   4.798   4.447 -0.8791  0.6655  0.8317
   75MOL    H4135709   1.647   4.664   4.541  0.7432  0.3871 -0.2236
   75MOL    H4235710   1.855   4.528   4.491  1.0560 -0.2800 -1.6121
   75MOL    H4335711   1.908   4.656   4.386  1.3992 -3.1324 -0.8241
   75MOL    H4435712   1.709   4.634   4.245 -3.1302 -2.8932 -2.3458
   75MOL    H4535713   1.815   4.483   4.253  2.2756  1.0278  1.1835
   75MOL    H4635714   1.414   4.475   4.475  1.1195 -1.2128 -0.1306
   75MOL    H4735715   1.451   4.313   4.438  3.1189 -0.3015 -1.2743
   75MOL    H4835716   1.225   4.475   4.340  2.4443  1.0491  1.6136
   75MOL    H4935717   1.280   4.384   4.218  2.6675  3.9129 -0.1448
   75MOL    O5035718   1.128   4.294   4.494  0.1941  0.2995 -0.3474
   75MOL    C5135719   1.050   4.191   4.544  0.1541  0.0205  0.0717
   75MOL    C5235720   1.071   4.171   4.689 -0.4084  0.3493 -0.2581
   75MOL    C5335721   1.214   4.146   4.737  0.0612 -0.4731 -0.3973
   75MOL    C5435722   1.235   4.114   4.885  0.3149  0.2784 -0.0245
   75MOL    O5535723   1.175   3.990   4.931  0.2804  0.7336 -0.0099
   75MOL    C5635724   1.046   3.993   4.986 -0.1564 -0.1411 -0.0891
   75MOL    O5735725   0.958   4.082   4.962  0.4040 -0.2762 -0.0193
   75MOL    C5835726   1.007   3.880   5.083  0.2595  0.0058 -0.5893
   75MOL    C5935727   1.010   3.736   5.020  0.1393  0.5422  0.2660
   75MOL    C6035728   1.142   3.677   5.033  0.8648  0.3792  0.4386
   75MOL    O6135729   1.218   3.665   4.941 -0.3519  0.0722 -0.3588
   75MOL    H6235730   0.945   4.215   4.524 -0.1843 -0.6838  0.9525
   75MOL    H6335731   1.063   4.096   4.491 -0.3833  0.5039 -0.9368
   75MOL    H6435732   1.025   4.076   4.719 -0.5068  0.5949  0.3662
   75MOL    H6535733   1.031   4.250   4.752 -0.1237  0.4633 -0.2192
   75MOL    H6635734   1.275   4.232   4.708 -0.2597  0.2338  0.9927
   75MOL    H6735735   1.265   4.067   4.682 -1.8357 -0.7643 -1.7968
   75MOL    H6835736   1.341   4.108   4.906  0.2735 -0.4625 -0.0131
   75MOL    H6935737   1.203   4.201   4.943 -0.7127 -0.4374  0.5057
   75MOL    H7035738   0.914   3.908   5.132 -0.5124 -0.3684 -1.8352
   75MOL    H7135739   1.075   3.887   5.168  1.2793  0.5790 -1.4343
   75MOL    H7235740   0.948   3.672   5.083  0.7438 -2.3017 -1.9520
   75MOL    H7335741   0.967   3.733   4.920 -1.1367  0.0182  0.8144
   75MOL    O7435742   1.181   3.650   5.162 -0.6275 -0.4842  0.0537
   75MOL    C7535743   1.314   3.598   5.181  0.1350  0.1415  0.2271
   75MOL    C7635744   1.369   3.605   5.322  0.1401 -0.1138  0.0707
   75MOL    C7735745   1.308   3.495   5.411 -0.2846  0.5606  0.3629
   75MOL    C7835746   1.391   3.477   5.543  0.1447 -0.5961 -0.7956
   75MOL    O7935747   1.372   3.591   5.638 -0.2562 -0.1594 -0.3714
   75MOL    C8035748   1.261   3.615   5.702  0.4813  0.1851  0.1339
   75MOL    O8135749   1.146   3.577   5.677 -0.0712 -0.2080 -0.4832
   75MOL    C8235750   1.289   3.726   5.801  0.0696 -0.1079 -0.4161
   75MOL    C8335751   1.313   3.862   5.725 -0.0885  0.6449 -0.0388
   75MOL    C8435752   1.281   3.989   5.798 -0.2617 -0.1683 -0.0320
   75MOL    O8535753   1.248   3.990   5.919 -0.3246  0.5191 -0.0722
   75MOL    H8635754   1.323   3.498   5.139  0.7407  0.5016 -0.5024
   75MOL    H8735755   1.385   3.659   5.126 -0.9585  1.1321 -0.1010
   75MOL    H8835756   1.349   3.700   5.372 -0.9205  0.4030 -1.3034
   75MOL    H8935757   1.472   3.568   5.320  0.2436  0.1918 -0.5361
   75MOL    H9035758   1.325   3.399   5.363  0.5461  0.3538  1.0588
   75MOL    H9135759   1.199   3.502   5.417 -0.5205 -2.0920 -0.2866
   75MOL    H9235760   1.361   3.382   5.587  2.4261 -1.2515 -0.6249
   75MOL    H9335761   1.496   3.470   5.516  0.4475 -0.7109  0.3784
   75MOL    H9435762   1.369   3.698   5.869  0.7471  0.3729 -1.0095
   75MOL    H9535763   1.199   3.745   5.859 -0.9449 -0.4640 -1.8385
   75MOL    H9635764   1.413   3.863   5.681 -0.1420  0.8808 -0.1542
   75MOL    H9735765   1.250   3.864   5.637  0.4398 -0.7698 -0.4584
   75MOL    O9835766   1.293   4.093   5.720  0.1867  0.5939  0.5812
   75MOL    C9935767   1.274   4.224   5.778  0.0906  0.7452  1.0605
   75MOL   C10035768   1.359   4.324   5.699  0.1884  0.0901 -0.2497
   75MOL   C10135769   1.283   4.385   5.576  0.1969 -0.5382  0.0494
   75MOL   C10235770   1.353   4.496   5.497  0.1882  0.1400 -0.1169
   75MOL   O10335771   1.262   4.568   5.422  0.0625  0.0092  0.1198
   75MOL   C10435772   1.202   4.678   5.472  0.6197  0.0098  0.3720
   75MOL   O10535773   1.233   4.729   5.583  0.0344  0.0273  0.3138
   75MOL   C10635774   1.099   4.733   5.387  0.0172  0.2603 -0.2387
   75MOL   C10735775   1.014   4.836   5.469 -0.1298 -0.1736  0.3742
   75MOL   C10835776   0.868   4.781   5.492  0.2931  0.4848 -0.3715
   75MOL   O10935777   0.796   4.731   5.404 -0.0210  0.1350 -0.2959
   75MOL   H11035778   1.166   4.240   5.777  0.2482  1.8286 -0.3667
   75MOL   H11135779   1.307   4.225   5.882 -2.2385 -1.5500  1.8870
   75MOL   H11235780   1.445   4.273   5.656 -1.1414 -0.1075 -2.8019
   75MOL   H11335781   1.386   4.407   5.764  0.3230 -0.0348 -0.1472
   75MOL   H11435782   1.185   4.423   5.606 -1.2289 -1.7748 -2.7869
   75MOL   H11535783   1.261   4.304   5.506 -1.8974  0.6341 -0.6896
   75MOL   H11635784   1.412   4.567   5.555 -0.2043  2.5157 -2.5495
   75MOL   H11735785   1.423   4.457   5.424  1.0128  1.2035  0.0969
   75MOL   H11835786   1.038   4.657   5.336  1.2247  1.1906 -3.1485
   75MOL   H11935787   1.147   4.790   5.308  0.0839 -0.0567 -0.4291
   75MOL   H12035788   1.048   4.860   5.569  0.9638 -0.9875  0.2154
   75MOL   H12135789   1.007   4.936   5.425  0.0612 -0.3259 -0.0123
   75MOL   O12235790   0.825   4.803   5.623  0.2367  0.4210  0.0519
   75MOL   C12335791   0.691   4.787   5.653 -0.3853  0.3592  0.3921
   75MOL   C12435792   0.684   4.798   5.804 -0.4427 -0.3160  0.4083
   75MOL   C12535793   0.759   4.685   5.877  0.4824 -0.2666  0.3228
   75MOL   C12635794   0.722   4.682   6.030 -1.0267  0.1178  0.1587
   75MOL   O12735795   0.829   4.742   6.105 -0.1484 -0.3805 -0.7432
   75MOL   C12835796   0.834   4.743   6.229 -0.4250 -0.5301 -0.2360
   75MOL   O12935797   0.751   4.693   6.303 -0.4232  0.1968 -0.3813
   75MOL   C13035798   0.970   4.795   6.287  0.2407  0.3706  0.3572
   75MOL   C13135799   0.952   4.925   6.363  0.4741  0.2877  0.7589
   75MOL   C13235800   0.964   4.921   6.514  0.3200  0.5040 -0.4336
   75MOL   O13335801   0.868   4.919   6.593 -0.0803  0.6888 -0.0360
   75MOL   H13435802   0.645   4.869   5.599 -0.9582 -0.3951 -0.2636
   75MOL   H13535803   0.657   4.687   5.625  0.5573 -0.6305  2.6215
   75MOL   H13635804   0.578   4.793   5.827 -1.2626  3.7018 -2.0155
   75MOL   H13735805   0.716   4.893   5.847 -1.4304  0.6038 -0.8471
   75MOL   H13835806   0.865   4.684   5.854  0.5780 -1.3373  0.7833
   75MOL   H13935807   0.713   4.596   5.833 -0.9068  2.0552 -3.1899
   75MOL   H14035808   0.635   4.742   6.058  0.6020  3.4296 -1.5294
   75MOL   H14135809   0.715   4.576   6.053  1.1509  0.1889  1.2070
   75MOL   H14235810   1.038   4.797   6.203  0.0370 -1.7456  0.1083
   75MOL   H14335811   1.011   4.722   6.358  0.6209  0.4579  0.2265
   75MOL   H14435812   1.030   4.988   6.320 -1.2600  1.1383 -1.1833
   75MOL   H14535813   0.855   4.970   6.344  0.1751 -0.0216  1.5193
   75MOL   O14635814   1.085   4.927   6.555  0.4129  0.0946 -0.1489
   75MOL   C14735815   1.108   4.910   6.688  0.0806  0.1970 -0.5373
   75MOL   C14835816   1.251   4.952   6.727 -0.4311  0.2291 -0.2972
   75MOL   C14935817   1.293   5.097   6.699 -0.3249 -1.2579 -0.5957
   75MOL   C15035818   1.281   5.144   6.554 -0.0771 -0.0166  0.5774
   75MOL   O15135819   1.357   5.260   6.533 -0.0198  0.0814  0.2268
   75MOL   C15235820   1.474   5.251   6.476 -0.1224 -0.0192  0.6203
   75MOL   O15335821   1.528   5.153   6.432 -0.1554 -0.0180 -0.1868
   75MOL   C15435822   1.537   5.389   6.454  0.8788 -0.0955  0.4716
   75MOL   C15535823   1.557   5.471   6.582 -0.9060  0.2180  0.2247
   75MOL   C15635824   1.698   5.502   6.613 -0.0484 -0.0803 -0.3759
   75MOL   O15735825   1.781   5.541   6.528 -0.0981  0.1261 -0.2929
   75MOL   H15835826   1.045   4.977   6.748  0.1897 -0.0847 -0.1049
   75MOL   H15935827   1.100   4.804   6.711  1.9624  0.4197  1.3564
   75MOL   H16035828   1.319   4.886   6.673  1.4306  0.5765  1.5480
   75MOL   H16135829   1.271   4.919   6.829 -0.4958 -0.5244 -0.5214
   75MOL   H16235830   1.400   5.106   6.722 -0.4672  4.1344 -1.2018
   75MOL   H16335831   1.235   5.165   6.761  1.1957 -1.1337  0.7441
   75MOL   H16435832   1.307   5.066   6.483  1.0288 -0.6793  1.6971
   75MOL   H16535833   1.178   5.177   6.542 -0.2982 -1.0642 -0.4756
   75MOL   H16635834   1.464   5.436   6.389 -3.5024 -3.1402  2.9641
   75MOL   H16735835   1.626   5.372   6.394  0.6354  1.7368 -0.4340
   75MOL   H16835836   1.504   5.566   6.574 -1.7644 -0.1984  0.8995
   75MOL   H16935837   1.507   5.414   6.660 -0.3113 -0.8514 -0.1740
   75MOL   O17035838   1.732   5.475   6.746  0.2543 -0.5768  0.2844
   75MOL   C17135839   1.863   5.491   6.785 -0.1171  0.0489 -1.1958
   75MOL   C17235840   1.868   5.603   6.893  0.9589  0.8932  0.0490
   75MOL   C17335841   2.004   5.602   6.965 -0.0103  1.4428 -0.2961
   75MOL   C17435842   2.026   5.728   7.052 -0.3174 -0.1366  0.0066
   75MOL   O17535843   1.919   5.726   7.145  0.6258  0.0753  0.0256
   75MOL   C17635844   1.923   5.669   7.265  0.0530  0.7965 -0.4300
   75MOL   O17735845   2.013   5.596   7.305  0.4529 -0.1440  0.2974
   75MOL   C17835846   1.795   5.704   7.338 -0.6104  0.1491  0.3644
   75MOL   C17935847   1.777   5.613   7.463  0.2727 -0.0615  0.1817
   75MOL   C18035848   1.810   5.676   7.593 -0.0640 -0.0106  0.3405
   75MOL   O18135849   1.863   5.610   7.685  0.5288  0.3973  0.1261
   75MOL   H18235850   1.898   5.395   6.823 -0.8271  0.3178  0.1847
   75MOL   H18335851   1.924   5.526   6.702 -0.1470  1.9598 -0.4462
   75MOL   H18435852   1.800   5.604   6.978 -2.3851  0.0906 -2.5144
   75MOL   H18535853   1.850   5.700   6.847  2.1340  0.4316 -1.4295
   75MOL   H18635854   2.083   5.602   6.889  0.7193 -1.0377  0.4294
   75MOL   H18735855   2.011   5.515   7.029  0.6334  3.0771  1.9150
   75MOL   H18835856   2.126   5.719   7.095 -0.5024 -0.8494  0.2957
   75MOL   H18935857   2.015   5.815   6.988  0.4190 -1.2575 -1.6778
   75MOL   H19035858   1.721   5.675   7.264 -0.6453  0.7875  0.1483
   75MOL   H19135859   1.788   5.811   7.358 -1.9936  0.0997  0.1856
   75MOL   H19235860   1.673   5.583   7.457  0.2527  0.3332 -2.1299
   75MOL   H19335861   1.819   5.514   7.445 -1.4620 -0.4036 -2.2775
   75MOL   O19435862   1.764   5.800   7.606  0.4724  0.8724  0.4074
   75MOL   C19535863   1.802   5.870   7.726  0.3417 -0.3688 -0.0100
   75MOL   C19635864   1.742   6.018   7.736 -0.2568  0.4934 -0.8104
   75MOL   C19735865   1.793   6.107   7.628 -0.1689 -1.2994  0.9142
   75MOL   C19835866   1.717   6.079   7.497 -0.0609 -0.4056 -0.1496
   75MOL   O19935867   1.720   6.191   7.409 -0.3602  0.0421  0.1490
   75MOL   C20035868   1.674   6.175   7.287 -0.2098 -0.3730 -0.4727
   75MOL   O20135869   1.638   6.068   7.235  0.5107 -0.3915 -0.3356
   75MOL   C20235870   1.706   6.302   7.205 -0.3389  0.4116 -0.5038
   75MOL   C20335871   1.598   6.335   7.099 -0.4715  0.3691 -0.2799
   75MOL   C20435872   1.645   6.395   6.969  0.3730  0.3915  0.7757
   75MOL   O20535873   1.689   6.324   6.875  0.1366 -0.0995 -0.2742
   75MOL   H20635874   1.774   5.803   7.808  0.9271 -0.3958  0.1716
   75MOL   H20735875   1.909   5.865   7.749  0.9942  2.1736 -2.2549
   75MOL   H20835876   1.763   6.063   7.833 -0.2484 -0.2684 -0.4600
   75MOL   H20935877   1.634   6.001   7.740 -0.6050  2.7318  0.0875
   75MOL   H21035878   1.896   6.072   7.620 -0.0292 -0.7349  0.1334
   75MOL   H21135879   1.798   6.211   7.659  1.8115 -0.6477 -1.4092
   75MOL   H21235880   1.752   5.988   7.449  0.3229 -1.6200  2.3320
   75MOL   H21335881   1.615   6.054   7.526 -0.2917 -0.9046 -1.3533
   75MOL   H21435882   1.804   6.286   7.159  0.5283  0.1524  1.4221
   75MOL   H21535883   1.729   6.394   7.260 -0.4561  0.2956 -0.2643
   75MOL   H21635884   1.543   6.244   7.075  0.5083 -0.9909  2.3180
   75MOL   H21735885   1.516   6.395   7.135 -1.8660 -1.5505 -0.1679
   75MOL   O21835886   1.622   6.526   6.958 -0.5080 -0.2243 -0.3417
   75MOL   C21935887   1.646   6.604   6.842  0.2418 -0.5394  0.4328
   75MOL   C22035888   1.705   6.739   6.887  0.4608  0.1939 -0.0733
   75MOL   C22135889   1.597   6.830   6.950  0.4543 -0.1581 -0.0583
   75MOL   C22235890   1.646   6.928   7.056  0.6170  0.6868  0.3733
   75MOL   O22335891   1.646   6.866   7.183 -0.0171 -0.4022  0.0620
   75MOL   C22435892   1.538   6.882   7.267 -0.0348 -0.0520  0.1739
   75MOL   O22535893   1.432   6.926   7.237 -0.0120 -0.2474  0.0977
   75MOL   C22635894   1.564   6.813   7.397 -0.0587  0.0245 -0.5954
   75MOL   C22735895   1.464   6.695   7.417  0.4384  0.3837 -0.4263
   75MOL   C22835896   1.487   6.628   7.549 -0.5122  0.4495 -0.2689
   75MOL   O22935897   1.405   6.634   7.640 -0.0291  0.3728  0.0096
   75MOL   H23035898   1.719   6.555   6.778  1.2096 -1.0367  1.9061
   75MOL   H23135899   1.553   6.618   6.787  0.4275 -0.4781  0.1351
   75MOL   H23235900   1.766   6.788   6.812  1.8161  0.6725  1.2992
   75MOL   H23335901   1.785   6.716   6.958  0.8891  2.3583  0.1694
   75MOL   H23435902   1.527   6.757   6.991  0.0549  0.1341 -0.2136
   75MOL   H23535903   1.533   6.883   6.879 -1.9718  0.3485  2.4389
   75MOL   H23635904   1.746   6.966   7.033 -0.1950  1.0577 -2.7437
   75MOL   H23735905   1.586   7.018   7.068 -0.7200 -0.2037  0.4405
   75MOL   H23835906   1.557   6.895   7.469  0.4345  0.2741 -0.8240
   75MOL   H23935907   1.667   6.776   7.394  0.1423  0.5766 -0.5847
   75MOL   H24035908   1.358   6.714   7.399 -0.6553 -1.1118  3.8286
   75MOL   H24135909   1.490   6.619   7.344 -1.8221 -1.1863  0.3676
   75MOL   O24235910   1.616   6.576   7.566 -0.1020 -0.4206  0.1103
   75MOL   C24335911   1.649   6.507   7.686  0.1713 -0.0191  0.4071
   75MOL   C24435912   1.791   6.549   7.735  0.3670  0.0298  0.3015
   75MOL   C24535913   1.901   6.470   7.664 -0.8226 -0.7847  0.2480
   75MOL   C24635914   2.034   6.551   7.650  0.7673  0.9074 -0.4091
   75MOL   O24735915   2.026   6.651   7.554  0.4931  0.3767  0.3052
   75MOL   C24835916   2.033   6.614   7.422  0.5258 -0.9681  0.1174
   75MOL   O24935917   2.030   6.501   7.368  0.4588 -0.4896  0.2071
   75MOL   C25035918   2.030   6.738   7.335 -0.0446  0.1392  0.2467
   75MOL   C25135919   1.959   6.710   7.209 -0.0266  0.6021 -1.0184
   75MOL   C25235920   2.044   6.709   7.083 -0.3938  0.4153 -0.7362
   75MOL   O25335921   2.118   6.800   7.056  0.1141  0.1758  0.0453
   75MOL   H25435922   1.579   6.532   7.765  0.3734 -2.8649  1.4992
   75MOL   H25535923   1.634   6.400   7.672  0.7065 -0.2349  1.4267
   75MOL   H25635924   1.810   6.523   7.839  1.4775  2.5830  0.7750
   75MOL   H25735925   1.815   6.655   7.731  1.2772 -0.1497  0.9027
   75MOL   H25835926   1.864   6.428   7.571 -2.1616 -0.9679  0.8480
   75MOL   H25935927   1.913   6.381   7.726  1.4555 -0.0305  0.9456
   75MOL   H26035928   2.057   6.599   7.745  1.0084 -0.1674  0.0910
   75MOL   H26135929   2.110   6.484   7.610 -1.6844 -0.0489 -3.7001
   75MOL   H26235930   2.131   6.776   7.320 -0.5078  1.0208 -0.7202
   75MOL   H26335931   1.980   6.821   7.386 -2.4998 -0.3835 -1.2337
   75MOL   H26435932   1.900   6.619   7.218 -0.1456  0.7311 -0.4647
   75MOL   H26535933   1.883   6.788   7.210 -0.4535  0.1852  1.5672
   75MOL   O26635934   2.015   6.604   7.008 -0.2678  0.0303  0.1512
   75MOL   C26735935   2.106   6.583   6.886 -0.2644 -0.1827  0.6103
   75MOL   C26835936   2.129   6.432   6.874 -0.3716 -0.2501  0.1543
   75MOL   C26935937   2.010   6.341   6.856  0.1713  0.3989 -0.1719
   75MOL   C27035938   2.046   6.190   6.855 -0.4347  0.6770 -0.2090
   75MOL   O27135939   2.074   6.143   6.984 -0.0071 -0.5970 -0.4800
   75MOL   C27235940   1.989   6.073   7.051  0.1749  0.2838 -0.6708
   75MOL   O27335941   1.885   6.031   6.999  0.7307  0.2633  0.1678
   75MOL   C27435942   2.021   6.049   7.197  0.8639 -0.0901 -0.1551
   75MOL   C27535943   2.067   6.178   7.271  0.0736 -0.3368  0.1809
   75MOL   C27635944   2.160   6.137   7.393  0.0987  0.6872  0.1396
   75MOL   O27735945   2.264   6.188   7.430 -0.6795 -0.1575  0.0344
   75MOL   H27835946   2.056   6.617   6.795 -0.1565  0.1139  0.6639
   75MOL   H27935947   2.201   6.637   6.885 -1.1189  1.3354  0.1081
   75MOL   H28035948   2.181   6.400   6.965  0.1525  1.3087  0.4136
   75MOL   H28135949   2.204   6.411   6.798  1.2908  0.0964  1.6373
   75MOL   H28235950   1.954   6.368   6.766 -2.6489 -2.5196  0.6065
   75MOL   H28335951   1.937   6.364   6.934  1.3784  2.4942  0.3850
   75MOL   H28435952   1.965   6.131   6.813 -1.3062  1.2330  0.6780
   75MOL   H28535953   2.134   6.169   6.793 -0.9512  0.3422 -0.8355
   75MOL   H28635954   2.095   5.969   7.202  0.4630 -0.3245  2.3043
   75MOL   H28735955   1.937   6.012   7.255  0.9749 -1.5696 -0.9299
   75MOL   H28835956   2.140   6.236   7.214  0.2081  0.1800  0.8643
   75MOL   H28935957   1.994   6.253   7.301  0.2548 -0.7258  1.6444
   75MOL   O29035958   2.098   6.033   7.459 -0.3744 -0.1390  0.1552
   75MOL   C29135959   2.135   6.000   7.585 -0.0581 -0.0896  0.2388
   75MOL   C29235960   2.246   5.895   7.583 -1.0402 -0.4576  0.4759
   75MOL   C29335961   2.223   5.773   7.490 -0.1895  0.1239 -0.6662
   75MOL   C29435962   2.335   5.677   7.499  0.7068 -0.6985 -0.5408
   75MOL   O29535963   2.331   5.588   7.396 -0.1224  0.3945  0.7174
   75MOL   C29635964   2.285   5.466   7.412  0.4928  0.9584 -0.6876
   75MOL   O29735965   2.239   5.422   7.518 -0.0041 -0.6440 -0.1804
   75MOL   C29835966   2.303   5.371   7.292 -0.6613 -0.1207 -0.7811
   75MOL   C29935967   2.225   5.420   7.168  0.1779 -0.6626  0.2387
   75MOL   C30035968   2.256   5.349   7.034 -0.0531 -0.3465  0.4224
   75MOL   O30135969   2.284   5.231   7.025  0.3340 -0.4914  0.0024
   75MOL   H30235970   2.167   6.086   7.643  0.5500 -0.4508  0.4442
   75MOL   H30335971   2.052   5.957   7.641 -0.1925 -0.6668 -0.3964
   75MOL   H30435972   2.266   5.870   7.687  2.4804  2.8080  0.6877
   75MOL   H30535973   2.343   5.939   7.559  0.0261 -1.6172  2.4864
   75MOL   H30635974   2.219   5.809   7.387  1.2720 -1.1016 -1.1666
   75MOL   H30735975   2.121   5.735   7.503 -0.3566  0.9699  0.5535
   75MOL   H30835976   2.428   5.731   7.479  1.0948 -1.2123 -0.1349
   75MOL   H30935977   2.345   5.640   7.601 -0.5325 -1.7948 -0.8177
   75MOL   H31035978   2.269   5.271   7.320  1.3302 -0.8513 -0.9019
   75MOL   H31135979   2.410   5.368   7.272 -0.9552 -2.0110 -2.2115
   75MOL   H31235980   2.118   5.426   7.190 -0.5347 -0.6604 -2.8767
   75MOL   H31335981   2.253   5.524   7.150  0.5007 -1.1228 -2.0921
   75MOL   O31435982   2.261   5.436   6.926 -0.5847  0.0108  0.4540
   75MOL   C31535983   2.287   5.390   6.788  0.0682 -0.5185  0.0926
   75MOL   C31635984   2.335   5.485   6.689 -0.4008 -0.5023 -0.2951
   75MOL   C31735985   2.479   5.533   6.711  0.3979 -0.1728  0.7938
   75MOL   C31835986   2.492   5.629   6.830 -0.3643 -0.3119  0.2461
   75MOL   O31935987   2.422   5.747   6.797  0.3044  0.4997 -0.9046
   75MOL   C32035988   2.379   5.830   6.896  0.6881  0.2294  0.4202
   75MOL   O32135989   2.349   5.795   7.007  0.3945  0.3573 -0.0100
   75MOL   C32235990   2.340   5.966   6.841  0.2250 -0.1133  0.0920
   75MOL   C32335991   2.452   6.037   6.764 -0.0658 -0.2136 -0.2366
   75MOL   C32435992   2.405   6.056   6.618 -0.1348 -0.0840 -1.3339
   75MOL   O32535993   2.468   5.997   6.532  0.0497  0.1698  0.4712
   75MOL   H32635994   2.350   5.301   6.786  0.4892 -0.2037 -1.4604
   75MOL   H32735995   2.199   5.340   6.747 -1.0280  0.1771  1.5491
   75MOL   H32835996   2.268   5.571   6.690 -0.4151 -0.4934 -1.2022
   75MOL   H32935997   2.332   5.447   6.586  1.8136  2.1747 -1.3991
   75MOL   H33035998   2.525   5.575   6.623  1.0349 -0.5966  0.9207
   75MOL   H33135999   2.544   5.449   6.737  1.4845  0.3616 -0.1974
   75MOL   H33236000   2.449   5.604   6.927 -1.1784  2.2175  0.5821
   75MOL   H33336001   2.595   5.659   6.848 -0.3629 -0.0947 -0.1166
   75MOL   H33436002   2.278   6.033   6.901 -0.9602  0.5490 -1.8030
   75MOL   H33536003   2.265   5.937   6.768 -0.0734 -1.4219  0.9076
   75MOL   H33636004   2.472   6.133   6.811 -2.5330  0.7350 -1.0227
   75MOL   H33736005   2.548   5.985   6.768  0.9438  1.6613  0.3552
   75MOL   O33836006   2.306   6.145   6.598  0.1341  0.5957  0.2995
   75MOL   C33936007   2.290   6.181   6.459 -0.3453  0.1002 -0.2158
   75MOL   C34036008   2.204   6.308   6.446  0.1410 -0.3607 -0.5503
   75MOL   C34136009   2.056   6.278   6.462 -0.1533 -0.0458  0.3893
   75MOL   C34236010   1.968   6.405   6.480  0.1232  0.0158 -0.4646
   75MOL   O34336011   1.843   6.358   6.509 -0.1586  0.1265 -0.2708
   75MOL   C34436012   1.741   6.447   6.509  0.3073  0.0434 -0.2743
   75MOL   O34536013   1.750   6.565   6.497 -0.0023 -0.0290  0.3261
   75MOL   C34636014   1.607   6.384   6.534  0.6682 -0.0885  0.5974
   75MOL   C34736015   1.514   6.397   6.414 -0.1315 -0.0214  0.1191
   75MOL   C34836016   1.535   6.292   6.307 -0.4470 -0.0521  0.3133
   75MOL   O34936017   1.457   6.200   6.285 -0.0694 -0.2471 -0.1409
   75MOL   H35036018   2.387   6.202   6.413 -0.3318 -0.6570 -0.5211
   75MOL   H35136019   2.248   6.106   6.392 -0.0754  0.7255 -1.0907
   75MOL   H35236020   2.224   6.359   6.351 -2.4800 -0.5214 -1.2293
   75MOL   H35336021   2.239   6.379   6.521 -1.4891 -0.6130  0.4654
   75MOL   H35436022   2.049   6.218   6.553 -0.2107 -0.2734  0.2348
   75MOL   H35536023   2.021   6.220   6.376  0.5874 -0.4595  0.3650
   75MOL   H35636024   2.004   6.452   6.571 -2.0803 -0.1329  0.5239
   75MOL   H35736025   1.968   6.459   6.386  1.1412 -1.1393 -1.1459
   75MOL   H35836026   1.564   6.427   6.625 -1.0963  3.0262 -1.6123
   75MOL   H35936027   1.613   6.279   6.563 -0.0366 -0.7477 -1.5912
   75MOL   H36036028   1.411   6.411   6.446  0.5525  1.1411  1.9279
   75MOL   H36136029   1.535   6.491   6.362 -1.7825  0.8628  1.0246
   75MOL   O36236030   1.658   6.303   6.245 -0.5689  0.3386 -0.2865
   75MOL   C36336031   1.691   6.214   6.139 -0.0488  0.5658  0.3145
   75MOL   C36436032   1.844   6.199   6.112 -0.0373  0.3946  0.4265
   75MOL   C36536033   1.893   6.345   6.077  0.0257  0.1028  0.3015
   75MOL   C36636034   2.055   6.356   6.088  0.6017 -0.0208 -0.3654
   75MOL   O36736035   2.116   6.276   5.989  0.0511  0.4170 -0.6345
   75MOL   C36836036   2.192   6.173   6.021 -0.2767 -0.1867 -0.0694
   75MOL   O36936037   2.215   6.128   6.130  0.9184  0.4203 -0.0209
   75MOL   C37036038   2.237   6.101   5.900  0.9529 -0.7014 -0.3956
   75MOL   C37136039   2.140   6.007   5.838  0.2751  0.3587  0.1524
   75MOL   C37236040   2.072   6.056   5.712 -0.2850  0.1262  0.3889
   75MOL   O37336041   1.947   6.064   5.704  0.8745 -0.6520  0.8455
   75MOL   H37436042   1.653   6.113   6.156  0.2198  0.5914  1.0746
   75MOL   H37536043   1.640   6.235   6.044  1.1308  0.2511 -0.3889
   75MOL   H37636044   1.868   6.135   6.027  1.1996  0.7449  0.5070
   75MOL   H37736045   1.903   6.157   6.193 -0.5794  0.0934  0.6718
   75MOL   H37836046   1.849   6.424   6.137  1.2876  1.0811 -0.0446
   75MOL   H37936047   1.854   6.368   5.978 -1.1905 -0.0597  0.7354
   75MOL   H38036048   2.090   6.459   6.075 -0.5681  0.4360  0.0603
   75MOL   H38136049   2.078   6.333   6.192  1.5328  2.4500  0.0048
   75MOL   H38236050   2.313   6.036   5.943 -0.9208 -3.0696 -0.5947
   75MOL   H38336051   2.281   6.167   5.825  0.6033  1.4641  1.2829
   75MOL   H38436052   2.191   5.914   5.815 -0.3497 -0.3809  1.7118
   75MOL   H38536053   2.062   5.981   5.910  0.4243 -0.4597  0.0189
   75MOL   O38636054   2.164   6.082   5.609 -0.4106  0.4804  0.1021
   75MOL   C38736055   2.120   6.093   5.476  0.2067 -0.5770 -0.6244
   75MOL   C38836056   2.114   5.961   5.405  0.7030  0.1343  0.2295
   75MOL   C38936057   2.111   5.960   5.253 -0.0118  0.0774 -0.3639
   75MOL   C39036058   2.113   5.825   5.180  0.1400 -0.3972 -0.5102
   75MOL   O39136059   2.238   5.760   5.205 -0.2298 -0.6761  0.3541
   75MOL   C39236060   2.294   5.686   5.102  0.7997 -0.4745 -0.0439
   75MOL   O39336061   2.251   5.679   4.988 -0.2140  0.3635 -0.2727
   75MOL   C39436062   2.417   5.604   5.134  0.0575  0.5641 -0.7444
   75MOL   C39536063   2.545   5.688   5.097 -0.0547 -0.2866 -0.3455
   75MOL   C39636064   2.608   5.755   5.228  0.5526 -0.1707  0.2588
   75MOL   O39736065   2.725   5.740   5.257  0.0921 -0.1602 -0.8218
   75MOL   H39836066   2.025   6.145   5.465  0.2596 -0.6710 -1.5662
   75MOL   H39936067   2.191   6.160   5.428 -1.6368  1.6888 -0.2904
   75MOL   H40036068   2.026   5.907   5.440  2.1504 -1.8723  0.8641
   75MOL   H40136069   2.197   5.900   5.440  1.2367 -0.3490 -1.8205
   75MOL   H40236070   2.198   6.013   5.211  1.9374 -1.2968  1.8597
   75MOL   H40336071   2.017   6.004   5.220 -0.1602 -0.0294 -0.0710
   75MOL   H40436072   2.032   5.757   5.206  0.6268 -0.7102  0.2212
   75MOL   H40536073   2.107   5.850   5.074  0.9081  0.2013 -0.4193
   75MOL   H40636074   2.414   5.519   5.066 -2.0175  0.5484 -0.6633
   75MOL   H40736075   2.420   5.569   5.237 -0.2332  1.7317 -0.3326
   75MOL   H40836076   2.621   5.630   5.044  0.7126 -0.9459  1.4370
   75MOL   H40936077   2.522   5.772   5.032  1.3532  0.7023  0.3923
   75MOL   O41036078   2.522   5.836   5.288 -0.3662  0.4846  0.4373
   75MOL   C41136079   2.553   5.903   5.409  0.2260 -0.5736 -0.1530
   75MOL   C41236080   2.507   6.048   5.404 -0.3638  0.1848 -0.7936
   75MOL   C41336081   2.520   6.120   5.539 -0.0065  0.2956 -0.4313
   75MOL   C41436082   2.454   6.259   5.528  0.1536 -0.3137  0.3358
   75MOL   O41536083   2.468   6.310   5.657  0.2464 -0.2135 -0.2000
   75MOL   C41636084   2.439   6.433   5.687 -0.0915 -0.4581 -0.1654
   75MOL   O41736085   2.408   6.520   5.602 -0.0163  0.2551 -0.1016
   75MOL   C41836086   2.440   6.455   5.836 -0.2766  0.5325  0.4095
   75MOL   C41936087   2.409   6.596   5.884 -0.0930 -0.3819 -0.5672
   75MOL   C42036088   2.350   6.614   6.022  0.8504  0.3861 -0.0201
   75MOL   O42136089   2.343   6.522   6.101  0.3760 -0.5789 -0.0955
   75MOL   H42236090   2.506   5.853   5.494  0.7320 -3.0718 -1.2930
   75MOL   H42336091   2.658   5.896   5.437  0.4892  1.3629 -0.6297
   75MOL   H42436092   2.408   6.042   5.359  0.0025  0.3248 -1.6261
   75MOL   H42536093   2.575   6.103   5.339 -0.8915 -1.3074 -2.6754
   75MOL   H42636094   2.624   6.125   5.571 -0.0931 -1.7262  0.2600
   75MOL   H42736095   2.468   6.072   5.622 -0.0328  1.4926  0.2688
   75MOL   H42836096   2.488   6.333   5.456 -1.0206  0.6374  0.7486
   75MOL   H42936097   2.346   6.247   5.519  0.1798 -1.0634  0.9750
   75MOL   H43036098   2.538   6.421   5.871  0.9993  0.5873 -2.9437
   75MOL   H43136099   2.369   6.389   5.885  0.8342 -1.8013 -1.0600
   75MOL   H43236100   2.497   6.659   5.874 -0.1952 -0.1889 -0.2534
   75MOL   H43336101   2.324   6.627   5.824 -0.9459 -1.9316 -0.1841
   75MOL   O43436102   2.296   6.731   6.046  0.2670 -0.5713 -0.1105
   75MOL   C43536103   2.264   6.773   6.175 -0.4529 -0.0395 -0.3581
   75MOL   C43636104   2.126   6.826   6.161  0.0877  0.0453 -0.0401
   75MOL   C43736105   2.020   6.724   6.119 -0.3780 -0.0839 -0.1267
   75MOL   C43836106   1.882   6.792   6.092  0.3473  0.2125 -0.2934
   75MOL   O43936107   1.793   6.690   6.052 -0.3772 -0.7997 -0.2260
   75MOL   C44036108   1.661   6.697   6.089 -0.3735 -0.2834  0.3206
   75MOL   O44136109   1.610   6.774   6.165 -0.1741  0.1668 -0.2458
   75MOL   C44236110   1.584   6.573   6.044  0.3354 -0.8612 -0.5655
   75MOL   C44336111   1.518   6.600   5.900  0.0541  0.3653 -0.0594
   75MOL   C44436112   1.573   6.509   5.792  0.2640 -0.0083  0.0666
   75MOL   O44536113   1.490   6.448   5.725  0.1489 -0.3257  0.2214
   75MOL   H44636114   2.273   6.701   6.256  1.1295  1.8750  1.2600
   75MOL   H44736115   2.327   6.855   6.212  1.4532 -1.3240 -0.6927
   75MOL   H44836116   2.121   6.909   6.091  3.7147  0.1160 -0.2921
   75MOL   H44936117   2.086   6.856   6.258 -0.9629 -2.1834  0.2547
   75MOL   H45036118   2.018   6.645   6.193 -0.7883 -0.8787 -0.9765
   75MOL   H45136119   2.060   6.684   6.025 -0.4108  0.0963 -0.2170
   75MOL   H45236120   1.846   6.849   6.177  0.6793 -1.0847  0.7425
   75MOL   H45336121   1.895   6.864   6.012  0.0494  0.4632 -0.1165
   75MOL   H45436122   1.505   6.559   6.118  0.0704  0.4050 -0.5968
   75MOL   H45536123   1.629   6.475   6.057  0.0076 -1.0421 -0.8050
   75MOL   H45636124   1.412   6.576   5.914 -0.0443 -0.0396 -1.4703
   75MOL   H45736125   1.514   6.704   5.870 -2.0626  0.5298  0.7181
   75MOL   O45836126   1.707   6.504   5.788  0.7410  0.3304  0.4675
   75MOL   C45936127   1.765   6.416   5.696 -0.0415  0.1476  0.2613
   75MOL   C46036128   1.915   6.441   5.678 -0.1165  0.1759 -0.2452
   75MOL   C46136129   1.954   6.563   5.591 -0.8099 -0.6469  0.3961
   75MOL   C46236130   2.107   6.566   5.580 -1.0461 -0.1445  0.1662
   75MOL   O46336131   2.157   6.674   5.494 -0.0082 -0.1860 -0.5360
   75MOL   C46436132   2.196   6.643   5.368  0.5565 -0.2360  0.1931
   75MOL   O46536133   2.202   6.526   5.321  0.5259  0.0404 -0.3152
   75MOL   C46636134   2.226   6.768   5.286  0.0267  0.1782  0.4116
   75MOL   C46736135   2.099   6.861   5.273  0.0682  0.0713  0.6133
   75MOL   C46836136   2.014   6.838   5.145 -0.5123 -0.4514  0.4858
   75MOL   O46936137   2.045   6.886   5.037  0.7154 -0.0307 -0.2981
   75MOL   H47036138   1.749   6.313   5.731 -0.9277 -0.5394 -2.0663
   75MOL   H47136139   1.713   6.408   5.601 -1.6660 -0.9881  1.2169
   75MOL   H47236140   1.983   6.360   5.651 -2.5217 -1.9788  0.0175
   75MOL   H47336141   1.951   6.462   5.779 -0.3833 -0.2753 -0.0522
   75MOL   H47436142   1.916   6.656   5.633 -1.7520 -1.1798  0.7580
   75MOL   H47536143   1.922   6.555   5.487  0.7220 -1.4058 -0.0361
   75MOL   H47636144   2.146   6.584   5.681  0.1705  0.6822 -0.4447
   75MOL   H47736145   2.154   6.472   5.554 -0.6643 -0.5225  2.0964
   75MOL   H47836146   2.264   6.736   5.189 -0.8251  2.6987 -0.7991
   75MOL   H47936147   2.301   6.826   5.340  1.7986  0.4371 -2.2005
   75MOL   H48036148   2.036   6.862   5.362 -0.5310  0.8233  0.1884
   75MOL   H48136149   2.138   6.962   5.260  1.6399 -0.6024 -0.0637
   75MOL   H48236150   1.929   6.771   5.157 -0.8356 -0.4481 -1.5405
   76MOL     O136151   3.086   2.068   3.521 -0.5089  0.2101 -0.6277
   76MOL     C236152   3.186   2.012   3.431 -0.1822 -0.2362 -0.3116
   76MOL     C336153   3.228   2.111   3.321  0.3355 -0.4632 -0.5017
   76MOL     C436154   3.308   2.224   3.389  0.2663 -0.1804 -0.1867
   76MOL     C536155   3.372   2.316   3.277  0.5567  0.0979 -0.0308
   76MOL     O636156   3.283   2.347   3.169  0.4241 -0.1921 -0.5226
   76MOL     C736157   3.269   2.474   3.116  0.1478  0.0182  0.0474
   76MOL     O836158   3.330   2.568   3.158 -0.4250 -0.0978  0.1912
   76MOL     C936159   3.193   2.483   2.985  0.1162 -0.2248 -0.2870
   76MOL    C1036160   3.061   2.564   2.996 -0.1206 -0.7128  0.2349
   76MOL    C1136161   2.938   2.487   2.955 -0.5593  0.0112  0.1679
   76MOL    O1236162   2.860   2.517   2.865  0.3810 -0.0774 -0.1495
   76MOL    H1336163   3.270   1.978   3.491 -1.1757  0.4783  1.5305
   76MOL    H1436164   3.140   1.927   3.382 -1.9511  1.2021 -1.2132
   76MOL    H1536165   3.147   2.165   3.272 -1.4894  0.6929  3.5473
   76MOL    H1636166   3.290   2.055   3.252 -0.1916  0.4357 -1.7132
   76MOL    H1736167   3.375   2.181   3.464 -0.4013 -1.6161 -0.3899
   76MOL    H1836168   3.246   2.293   3.446 -1.0907 -1.9346  0.5180
   76MOL    H1936169   3.411   2.401   3.332 -1.4836  0.3803  1.0360
   76MOL    H2036170   3.456   2.264   3.231 -0.1827  0.2142 -1.5509
   76MOL    H2136171   3.176   2.384   2.943 -0.0093 -1.6335  2.9804
   76MOL    H2236172   3.259   2.535   2.915  0.4194  0.1680  0.2834
   76MOL    H2336173   3.059   2.576   3.104  2.5905 -0.6858  0.3293
   76MOL    H2436174   3.071   2.660   2.945 -2.2830 -0.6321 -0.0630
   76MOL    H2536175   3.059   2.006   3.586 -0.7766  1.9128  0.9225
   76MOL    O2636176   2.916   2.393   3.041 -0.6581  0.1025  0.0747
   76MOL    C2736177   2.783   2.333   3.035 -0.4429 -0.2363  0.8746
   76MOL    C2836178   2.783   2.237   3.154 -0.2541  0.6508 -0.1702
   76MOL    C2936179   2.863   2.105   3.129 -0.6970  0.7199  0.0703
   76MOL    C3036180   2.866   2.007   3.242 -0.3152 -0.4244 -0.5930
   76MOL    O3136181   2.945   1.893   3.199 -0.0579  0.6339  0.0188
   76MOL    C3236182   2.881   1.775   3.194 -0.0356 -0.2234 -0.3985
   76MOL    O3336183   2.762   1.753   3.223  0.3919  0.4776 -0.6143
   76MOL    C3436184   2.977   1.664   3.154  0.3665  0.1741 -0.0433
   76MOL    C3536185   2.900   1.532   3.097  0.5882 -0.7690 -0.4819
   76MOL    C3636186   2.992   1.442   3.023  0.0733  0.4125 -0.3258
   76MOL    O3736187   3.104   1.475   2.986 -0.5115 -0.2612  0.0925
   76MOL    H3836188   2.704   2.405   3.054 -0.9624 -0.7906  0.8513
   76MOL    H3936189   2.757   2.281   2.942 -1.1567 -1.5389  1.7837
   76MOL    H4036190   2.683   2.202   3.182  1.5197 -1.2643  4.1329
   76MOL    H4136191   2.827   2.287   3.240  1.5833 -0.1233 -0.6360
   76MOL    H4236192   2.969   2.124   3.111 -0.5819  2.0022  1.9044
   76MOL    H4336193   2.826   2.055   3.040  2.2862 -1.5196 -0.0210
   76MOL    H4436194   2.910   2.046   3.334 -0.4369 -1.7986  0.0495
   76MOL    H4536195   2.767   1.988   3.282 -0.5489  0.3769 -0.7805
   76MOL    H4636196   3.042   1.629   3.234 -0.1226 -0.2254  0.1800
   76MOL    H4736197   3.045   1.708   3.082  2.4089 -0.6726  1.3169
   76MOL    H4836198   2.851   1.479   3.179 -2.9391  0.2861 -1.8330
   76MOL    H4936199   2.823   1.568   3.029 -0.0153  0.3505  0.7638
   76MOL    O5036200   2.927   1.327   2.995  0.5800  0.2527  0.5269
   76MOL    C5136201   2.968   1.246   2.887 -0.4443  0.9507  0.0844
   76MOL    C5236202   2.876   1.126   2.867 -0.1174 -0.3257  0.4436
   76MOL    C5336203   2.733   1.150   2.842 -0.3413 -0.4131  0.1209
   76MOL    C5436204   2.666   1.027   2.783 -0.2961 -0.1691 -0.7317
   76MOL    O5536205   2.662   0.924   2.887  0.0820  0.3636 -0.8379
   76MOL    C5636206   2.654   0.799   2.853 -0.6930 -0.9234 -0.0038
   76MOL    O5736207   2.662   0.754   2.744 -0.5094  0.4063 -0.1896
   76MOL    C5836208   2.626   0.723   2.979 -0.6417 -0.8133  0.5260
   76MOL    C5936209   2.588   0.568   2.958 -0.0892 -0.2011  0.4946
   76MOL    C6036210   2.604   0.477   3.072  0.0984  0.0766 -0.3328
   76MOL    O6136211   2.641   0.516   3.181 -0.2297  0.2126  0.2769
   76MOL    H6236212   2.977   1.311   2.800  0.7523 -0.3321 -0.7703
   76MOL    H6336213   3.074   1.228   2.902 -0.9458 -2.6355 -0.1923
   76MOL    H6436214   2.890   1.055   2.949 -0.2518  1.0277  1.6559
   76MOL    H6536215   2.925   1.076   2.784 -0.4824  2.4226 -1.4914
   76MOL    H6636216   2.717   1.240   2.783 -0.6786  0.1575  1.0741
   76MOL    H6736217   2.695   1.184   2.938 -0.3896 -0.5291  0.1436
   76MOL    H6836218   2.569   1.055   2.743  0.2242  2.6718 -0.0853
   76MOL    H6936219   2.724   0.987   2.699  1.3166 -0.8430  0.6708
   76MOL    H7036220   2.537   0.776   3.013 -0.6585 -0.1440 -0.5532
   76MOL    H7136221   2.710   0.746   3.044 -0.4711  0.1279 -0.0270
   76MOL    H7236222   2.486   0.551   2.921  0.8786 -1.2044 -1.7979
   76MOL    H7336223   2.648   0.530   2.876  2.0103 -0.1953  1.9974
   76MOL    O7436224   2.574   0.351   3.035 -0.2459  0.0819  0.1730
   76MOL    C7536225   2.566   0.250   3.134  0.1010 -0.9861  0.1672
   76MOL    C7636226   2.669   0.146   3.092  0.2431  0.5221 -0.1658
   76MOL    C7736227   2.701   0.035   3.199 -0.2407 -0.0750 -0.3823
   76MOL    C7836228   2.795   7.791   3.167  0.6467  0.2113  0.5083
   76MOL    O7936229   2.716   7.695   3.104  0.4513 -0.2757  0.9371
   76MOL    C8036230   2.744   7.669   2.976 -0.2100  0.9802 -0.0530
   76MOL    O8136231   2.835   7.713   2.907 -1.1071  0.1065 -0.0712
   76MOL    C8236232   2.652   7.561   2.911  0.1463  0.3710 -0.4277
   76MOL    C8336233   2.731   7.466   2.817  0.3761 -0.0361  0.5936
   76MOL    C8436234   2.670   7.332   2.803 -0.2103  0.2580 -0.2384
   76MOL    O8536235   2.725   7.232   2.850  0.3469 -0.1465  0.1768
   76MOL    H8636236   2.556   0.287   3.236  3.4948  0.2296  0.1051
   76MOL    H8736237   2.471   0.198   3.121 -2.2640  2.9962  0.8857
   76MOL    H8836238   2.754   0.207   3.064  2.8957 -2.9186  0.0249
   76MOL    H8936239   2.636   0.096   3.000 -2.7234 -0.0743  1.1533
   76MOL    H9036240   2.609   7.870   3.243  0.6496  0.8670  2.4301
   76MOL    H9136241   2.749   0.085   3.283  0.0861  1.0696 -1.2531
   76MOL    H9236242   2.883   7.819   3.108  0.8583 -0.1667  0.6407
   76MOL    H9336243   2.836   7.756   3.262  0.6695 -1.7117 -0.1914
   76MOL    H9436244   2.563   7.603   2.863  0.4054  0.1280 -1.1223
   76MOL    H9536245   2.606   7.504   2.992 -0.2113 -0.0845 -0.9460
   76MOL    H9636246   2.736   7.510   2.717  2.4894  1.4189  1.3226
   76MOL    H9736247   2.834   7.457   2.850  1.3016 -1.9726 -2.5185
   76MOL    O9836248   2.552   7.336   2.734 -0.1067  0.5419 -0.1028
   76MOL    C9936249   2.496   7.210   2.701  0.0735 -0.2246 -0.0848
   76MOL   C10036250   2.344   7.228   2.717  0.1811 -0.1292 -0.8485
   76MOL   C10136251   2.268   7.101   2.678 -0.5309 -0.2814  0.0431
   76MOL   C10236252   2.115   7.112   2.670  0.3767  0.1587 -0.1781
   76MOL   O10336253   2.084   7.193   2.562  0.4140  0.1804 -0.4378
   76MOL   C10436254   1.954   7.231   2.539  0.0879  0.2765 -0.5172
   76MOL   O10536255   1.859   7.195   2.608 -0.0054  0.3313 -0.1919
   76MOL   C10636256   1.942   7.326   2.412  0.0308 -0.3346 -0.4522
   76MOL   C10736257   1.797   7.379   2.398 -0.0559  0.6384  0.1074
   76MOL   C10836258   1.775   7.507   2.482  0.9738  0.4080 -0.0968
   76MOL   O10936259   1.693   7.521   2.575 -0.3393  0.0739  0.2041
   76MOL   H11036260   2.524   7.188   2.598 -1.3213 -1.7520 -0.1453
   76MOL   H11136261   2.533   7.131   2.766 -1.1465  1.4540  2.7131
   76MOL   H11236262   2.319   7.298   2.637  1.1682 -0.4759 -1.4769
   76MOL   H11336263   2.316   7.269   2.814  1.7199  0.8122 -0.7940
   76MOL   H11436264   2.292   7.014   2.738 -0.5170 -2.2723 -2.7947
   76MOL   H11536265   2.299   7.080   2.576 -0.9104 -0.6213 -0.0008
   76MOL   H11636266   2.076   7.012   2.650 -0.1095  0.0621  1.1939
   76MOL   H11736267   2.078   7.146   2.767  1.0971 -1.1086  0.5522
   76MOL   H11836268   1.964   7.272   2.320  0.6777  0.3964 -0.7338
   76MOL   H11936269   2.020   7.401   2.424  1.8356 -2.0441 -1.1834
   76MOL   H12036270   1.769   7.405   2.296 -2.9705 -2.6775 -0.0143
   76MOL   H12136271   1.722   7.310   2.436 -1.0653  0.7331 -1.6736
   76MOL   O12236272   1.872   7.591   2.448  0.2759 -0.6395  0.5397
   76MOL   C12336273   1.908   7.689   2.544 -0.0254  0.4405  0.3317
   76MOL   C12436274   1.848   7.832   2.520 -0.4655  0.3850 -0.0159
   76MOL   C12536275   1.918   0.037   2.415  0.2390 -0.5805  0.1485
   76MOL   C12636276   1.877   0.186   2.431 -0.0168 -0.5208  0.1837
   76MOL   O12736277   1.949   0.273   2.342 -0.4235  0.3545 -0.0331
   76MOL   C12836278   1.889   0.353   2.263  0.5751  0.1464  0.1725
   76MOL   O12936279   1.774   0.342   2.226  0.6674 -0.3512  0.0796
   76MOL   C13036280   1.982   0.474   2.214  0.2491  1.0380 -0.5767
   76MOL   C13136281   1.948   0.521   2.065  0.5707 -0.1028 -0.2877
   76MOL   C13236282   1.910   0.670   2.060 -0.2535  0.2247 -0.4445
   76MOL   O13336283   1.890   0.734   2.166 -0.0192  0.2221 -0.4450
   76MOL   H13436284   1.866   7.656   2.639  0.4170  0.6796  0.6082
   76MOL   H13536285   2.016   7.691   2.549  0.0316 -1.4446  0.3751
   76MOL   H13636286   1.846   0.016   2.613  0.6239  0.1321  0.1731
   76MOL   H13736287   1.740   7.829   2.507 -0.4407  1.2561 -0.4693
   76MOL   H13836288   1.894   7.871   2.317 -0.0416  1.5300 -0.6997
   76MOL   H13936289   2.024   0.029   2.439  0.4772 -1.5454 -1.1872
   76MOL   H14036290   1.769   0.197   2.422  0.2627  2.1418 -0.5959
   76MOL   H14136291   1.900   0.223   2.531  0.3690 -0.4286  0.0634
   76MOL   H14236292   2.083   0.434   2.216 -0.2615 -0.2664  2.1452
   76MOL   H14336293   1.976   0.549   2.293  3.1640  1.7975 -1.0274
   76MOL   H14436294   2.040   0.514   2.007  1.4091  2.3764  0.6903
   76MOL   H14536295   1.858   0.468   2.032 -0.4498 -0.0952  2.3748
   76MOL   O14636296   1.902   0.719   1.941  0.6100  0.1734  0.3011
   76MOL   C14736297   1.885   0.858   1.910 -0.4106 -0.3107 -0.1005
   76MOL   C14836298   1.891   0.885   1.758  0.3397  0.0866  0.5739
   76MOL   C14936299   1.758   0.843   1.695 -1.0730 -0.1405  0.5300
   76MOL   C15036300   1.764   0.840   1.539 -0.3629 -0.0519  0.0378
   76MOL   O15136301   1.636   0.844   1.485 -0.6586  0.1454 -0.0574
   76MOL   C15236302   1.599   0.738   1.408  0.5496 -0.2811  0.0216
   76MOL   O15336303   1.648   0.632   1.408 -0.3665  0.8016  0.2724
   76MOL   C15436304   1.472   0.761   1.335  0.2462  0.0312  0.6012
   76MOL   C15536305   1.418   0.657   1.241  0.1703  0.3648  0.4569
   76MOL   C15636306   1.453   0.677   1.095 -0.3308 -0.1137  0.1921
   76MOL   O15736307   1.525   0.773   1.059 -0.2441 -0.0580  0.6587
   76MOL   H15836308   1.786   0.889   1.944 -0.0779  0.5228  0.1192
   76MOL   H15936309   1.966   0.918   1.951 -0.3917 -1.0309  0.9049
   76MOL   H16036310   1.970   0.825   1.714  0.5433  1.0907 -0.4426
   76MOL   H16136311   1.894   0.994   1.748 -1.4087  0.2829  1.9447
   76MOL   H16236312   1.684   0.911   1.736 -0.8808  0.2795  0.1783
   76MOL   H16336313   1.732   0.742   1.727 -1.9372  0.3292  1.3194
   76MOL   H16436314   1.803   0.935   1.501 -1.3542  0.4403  0.2107
   76MOL   H16536315   1.820   0.752   1.509 -0.6713  0.1042 -1.0229
   76MOL   H16636316   1.477   0.862   1.294 -0.6013 -1.0764 -2.3335
   76MOL   H16736317   1.391   0.768   1.408 -0.1458  0.1678  0.1577
   76MOL   H16836318   1.466   0.565   1.275 -2.1370 -1.1609 -0.2305
   76MOL   H16936319   1.312   0.631   1.252  0.2207  0.4212  1.1429
   76MOL   O17036320   1.405   0.575   1.020  0.2256  0.0981  0.3848
   76MOL   C17136321   1.451   0.565   0.884  0.1719  0.3421  0.1791
   76MOL   C17236322   1.590   0.505   0.876 -1.1954 -0.1193 -0.1264
   76MOL   C17336323   1.601   0.445   0.739  0.1519 -0.3307 -0.2531
   76MOL   C17436324   1.752   0.430   0.704  0.7718 -0.0156 -0.7172
   76MOL   O17536325   1.798   0.318   0.774 -0.5405 -0.5608 -0.4675
   76MOL   C17636326   1.801   0.200   0.716  0.6007 -0.3758  1.1838
   76MOL   O17736327   1.783   0.186   0.594  0.0452  0.4728  0.0091
   76MOL   C17836328   1.828   0.083   0.805 -0.7484  0.0524  0.6325
   76MOL   C17936329   1.905   7.844   0.720 -0.4416  0.1886 -0.1135
   76MOL   C18036330   1.879   7.706   0.784 -0.0131 -0.4556 -0.1572
   76MOL   O18136331   1.843   7.609   0.722 -0.7108  0.1394  0.2157
   76MOL   H18236332   1.385   0.498   0.830  2.5853 -2.3787  0.4522
   76MOL   H18336333   1.461   0.659   0.830  0.9530 -0.9100 -1.9308
   76MOL   H18436334   1.606   0.419   0.941  5.2934 -0.3074 -1.6860
   76MOL   H18536335   1.664   0.581   0.903  0.2879 -2.2110  1.9124
   76MOL   H18636336   1.556   0.509   0.663 -2.4853 -2.0983 -0.2436
   76MOL   H18736337   1.550   0.350   0.728  0.2709 -0.1202 -3.0135
   76MOL   H18836338   1.756   0.426   0.595 -1.9206 -3.3049 -0.7749
   76MOL   H18936339   1.808   0.520   0.730 -0.0651  0.2476  0.2255
   76MOL   H19036340   1.729   0.046   0.828  0.2809 -2.5682  1.0985
   76MOL   H19136341   1.871   0.115   0.899  0.7696 -0.4907  0.1423
   76MOL   H19236342   1.874   7.848   0.616 -1.0063  0.6669  0.0709
   76MOL   H19336343   2.013   7.860   0.709 -0.8767  1.8040 -2.4483
   76MOL   O19436344   1.904   7.701   0.915  0.1347 -0.0817  0.7456
   76MOL   C19536345   1.899   7.577   0.984 -0.1880 -0.8691  0.2197
   76MOL   C19636346   1.918   7.602   1.132  0.0736  0.4069 -0.5618
   76MOL   C19736347   1.796   7.647   1.203  0.8160 -0.3204 -0.0512
   76MOL   C19836348   1.823   7.642   1.356  0.4208  0.1698  0.6170
   76MOL   O19936349   1.953   7.693   1.396 -0.4099  0.2361 -0.1457
   76MOL   C20036350   1.968   7.821   1.424  0.1528  0.3075  0.3072
   76MOL   O20136351   1.889   0.036   1.422  0.3564  0.0091  0.1447
   76MOL   C20236352   2.113   7.863   1.440  0.4156  0.3287  0.3092
   76MOL   C20336353   2.209   7.860   1.322 -0.1142  0.1731  0.6898
   76MOL   C20436354   2.303   0.109   1.317 -0.0679 -0.4633  0.1085
   76MOL   O20536355   2.291   0.188   1.229 -0.0912 -0.0368  0.6180
   76MOL   H20636356   1.805   7.530   0.956  0.3329 -1.4419 -0.5828
   76MOL   H20736357   1.979   7.516   0.943  1.6548  0.5412  1.5992
   76MOL   H20836358   2.010   7.657   1.152  0.1294  0.0232  0.2659
   76MOL   H20936359   1.924   7.501   1.173  0.2750  0.4965 -0.3723
   76MOL   H21036360   1.708   7.590   1.173  0.0418  0.7886  0.0679
   76MOL   H21136361   1.781   7.749   1.167 -2.9746  0.2022  2.7510
   76MOL   H21236362   1.744   7.702   1.401  0.5425 -0.8628  2.2760
   76MOL   H21336363   1.807   7.541   1.394 -1.2600  0.3151  0.3322
   76MOL   H21436364   2.161   7.821   1.529  0.1474  0.2033  0.3952
   76MOL   H21536365   2.114   0.094   1.468 -1.6853  0.8912 -1.5904
   76MOL   H21636366   2.267   7.769   1.338 -0.8479 -0.5620 -0.7070
   76MOL   H21736367   2.149   7.846   1.232  2.2638  0.4630 -0.9604
   76MOL   O21836368   2.391   0.110   1.415  0.3997 -0.0092 -1.0461
   76MOL   C21936369   2.491   0.209   1.418 -0.7551 -0.9667  0.3096
   76MOL   C22036370   2.555   0.217   1.555  0.2452  0.1671 -0.0463
   76MOL   C22136371   2.458   0.275   1.665 -0.7004  0.2810 -0.1468
   76MOL   C22236372   2.385   0.405   1.634  0.3238 -0.2559  0.4426
   76MOL   O22336373   2.249   0.391   1.591 -0.8133 -0.4882 -0.0932
   76MOL   C22436374   2.145   0.388   1.681  0.0734 -0.1734 -0.1432
   76MOL   O22536375   2.150   0.400   1.806  0.4868  0.0833 -0.5803
   76MOL   C22636376   2.012   0.375   1.610 -0.5640  0.4535 -0.4131
   76MOL   C22736377   1.925   0.500   1.637 -0.1381  0.3524  0.1382
   76MOL   C22836378   1.787   0.454   1.672  0.4795 -0.6693  0.1839
   76MOL   O22936379   1.713   0.401   1.588  0.1001 -0.3413  0.1136
   76MOL   H23036380   2.574   0.179   1.353 -0.8045  3.1672 -1.8604
   76MOL   H23136381   2.448   0.298   1.372  1.3290 -0.6633 -1.1226
   76MOL   H23236382   2.639   0.283   1.535  0.0995  0.0535 -1.0557
   76MOL   H23336383   2.603   0.123   1.581  1.5946  0.4657 -1.3936
   76MOL   H23436384   2.531   0.300   1.742 -0.8142  1.4105 -0.3955
   76MOL   H23536385   2.382   0.206   1.701  0.3377 -0.2893  0.9770
   76MOL   H23636386   2.388   0.467   1.723 -0.5419  0.1523  0.1916
   76MOL   H23736387   2.444   0.473   1.572 -0.1886 -0.3028 -0.1075
   76MOL   H23836388   1.978   0.280   1.653  1.1231  0.6931  1.5020
   76MOL   H23936389   2.034   0.366   1.503 -1.8725 -2.0202 -0.5321
   76MOL   H24036390   1.966   0.565   1.714  0.1634  0.3341 -0.0026
   76MOL   H24136391   1.923   0.563   1.548 -1.6443  1.8340  1.2111
   76MOL   O24236392   1.753   0.467   1.805 -0.2836  0.0992 -0.4093
   76MOL   C24336393   1.629   0.425   1.841  0.3043 -0.3162 -0.0479
   76MOL   C24436394   1.528   0.539   1.884 -0.8306  0.2056 -0.1036
   76MOL   C24536395   1.474   0.616   1.762  0.3469  0.8051  1.1996
   76MOL   C24636396   1.416   0.752   1.795 -1.1564 -0.1328 -0.1982
   76MOL   O24736397   1.384   0.826   1.685  0.4202 -0.3839  0.7225
   76MOL   C24836398   1.317   0.939   1.698 -0.3128  0.5196 -0.5722
   76MOL   O24936399   1.289   0.987   1.809 -0.3744  0.1874 -0.1841
   76MOL   C25036400   1.272   1.006   1.571 -0.5670  0.2891 -0.7347
   76MOL   C25136401   1.336   1.144   1.563  0.1303 -0.4583  0.2357
   76MOL   C25236402   1.391   1.185   1.423 -0.2193  1.1262 -0.2857
   76MOL   O25336403   1.373   1.116   1.320  0.8591 -0.1292  0.2749
   76MOL   H25436404   1.598   0.349   1.768  2.8192 -0.2781 -1.1985
   76MOL   H25536405   1.636   0.362   1.930 -1.4624  0.3424  0.5807
   76MOL   H25636406   1.582   0.616   1.939  0.5531 -1.3236  0.7379
   76MOL   H25736407   1.449   0.487   1.939  0.5969 -0.7133  1.1073
   76MOL   H25836408   1.391   0.560   1.719  2.2604  0.4789 -2.1868
   76MOL   H25936409   1.549   0.623   1.684  1.5085  1.6678  2.3697
   76MOL   H26036410   1.332   0.742   1.863 -0.3648 -0.7661  0.7012
   76MOL   H26136411   1.488   0.811   1.853  0.0629 -3.2958  1.6303
   76MOL   H26236412   1.164   1.021   1.572 -0.6777 -0.5143  0.1159
   76MOL   H26336413   1.303   0.939   1.491  2.1849  0.3878  0.1916
   76MOL   H26436414   1.269   1.223   1.595  1.0984  1.4596 -2.2881
   76MOL   H26536415   1.427   1.138   1.623 -0.8439 -1.1981  1.6671
   76MOL   O26636416   1.453   1.297   1.430  0.4194 -0.1858  0.4053
   76MOL   C26736417   1.518   1.357   1.319  0.1761  0.6489 -0.6132
   76MOL   C26836418   1.652   1.417   1.349  0.3369  0.7525  0.2313
   76MOL   C26936419   1.717   1.467   1.223  0.7856 -0.2823  0.1366
   76MOL   C27036420   1.840   1.551   1.261 -0.1093 -0.0527  0.1250
   76MOL   O27136421   1.902   1.588   1.146  0.1463  0.3295  0.0399
   76MOL   C27236422   1.984   1.505   1.075  0.4294  0.5285  0.2216
   76MOL   O27336423   2.028   1.396   1.114  0.2237 -0.0319 -0.2820
   76MOL   C27436424   2.028   1.557   0.940 -0.3070 -0.2755  0.1618
   76MOL   C27536425   1.927   1.620   0.847 -0.5113  0.0668  0.0456
   76MOL   C27636426   1.785   1.565   0.843 -0.5266  0.7358  0.7171
   76MOL   O27736427   1.747   1.453   0.883  0.3831 -0.3028 -0.7297
   76MOL   H27836428   1.532   1.285   1.239 -0.4623 -3.3699  2.6691
   76MOL   H27936429   1.446   1.431   1.283 -0.8832  0.1691  0.4641
   76MOL   H28036430   1.725   1.346   1.388  0.2041 -0.8223 -2.2669
   76MOL   H28136431   1.644   1.498   1.421  0.7591 -0.9690  2.2470
   76MOL   H28236432   1.650   1.538   1.174  1.7541  0.5796  0.0576
   76MOL   H28336433   1.740   1.387   1.153 -1.0744 -1.2165  0.5416
   76MOL   H28436434   1.813   1.644   1.312 -0.6036  0.9157 -1.8040
   76MOL   H28536435   1.900   1.497   1.333 -1.2966 -1.6889 -0.0973
   76MOL   H28636436   2.075   1.471   0.893 -0.1503  0.2801 -0.6939
   76MOL   H28736437   2.106   1.630   0.961  0.3236 -0.4101 -1.6821
   76MOL   H28836438   1.916   1.726   0.873 -1.0754 -0.1267  0.6299
   76MOL   H28936439   1.961   1.616   0.744 -1.0699 -1.9569 -0.0807
   76MOL   O29036440   1.700   1.644   0.779  0.0453  0.4956 -0.3352
   76MOL   C29136441   1.565   1.601   0.755  0.4824 -0.9511  0.0705
   76MOL   C29236442   1.479   1.699   0.683  0.4227 -0.0154 -0.6267
   76MOL   C29336443   1.341   1.654   0.641 -0.2788  0.0680 -0.5029
   76MOL   C29436444   1.257   1.773   0.598 -0.9165 -0.2998 -0.0767
   76MOL   O29536445   1.231   1.864   0.704 -0.7081 -0.2492 -0.1037
   76MOL   C29636446   1.205   1.994   0.675  0.4687  0.1176  0.0191
   76MOL   O29736447   1.220   2.031   0.559  0.3029  0.2177  0.0731
   76MOL   C29836448   1.163   2.083   0.790  0.5626 -0.0806  0.4477
   76MOL   C29936449   1.277   2.185   0.828  0.2290 -0.4554 -0.1036
   76MOL   C30036450   1.410   2.123   0.873  0.1960  1.0133 -1.4361
   76MOL   O30136451   1.518   2.179   0.849  0.2309  0.5959 -0.3659
   76MOL   H30236452   1.563   1.502   0.709 -0.7709 -0.8123 -0.1920
   76MOL   H30336453   1.514   1.593   0.851 -0.3393  0.5571 -0.2173
   76MOL   H30436454   1.537   1.715   0.592  1.1686  0.0459 -0.1461
   76MOL   H30536455   1.470   1.796   0.732  0.9145  0.1622 -0.8849
   76MOL   H30636456   1.293   1.609   0.727  2.0670 -0.2075  0.7136
   76MOL   H30736457   1.337   1.575   0.565 -1.8543  0.2887 -0.6619
   76MOL   H30836458   1.313   1.824   0.519  2.5475  1.2988  3.2290
   76MOL   H30936459   1.157   1.742   0.569  0.0669 -2.1451 -1.6750
   76MOL   H31036460   1.132   2.022   0.875  0.7054 -0.7941 -0.0044
   76MOL   H31136461   1.072   2.138   0.767  2.2268  2.1101 -1.0378
   76MOL   H31236462   1.302   2.249   0.744  1.7602 -2.8339 -1.5245
   76MOL   H31336463   1.237   2.247   0.909  0.4980  0.3853 -0.6074
   76MOL   O31436464   1.400   2.014   0.958  0.5138 -0.4564 -0.0304
   76MOL   C31536465   1.519   1.961   1.019 -0.4899  0.4979  0.5235
   76MOL   C31636466   1.497   1.825   1.080  0.4241 -1.1895  0.5962
   76MOL   C31736467   1.385   1.823   1.188 -0.3212 -0.1634 -0.1580
   76MOL   C31836468   1.398   1.692   1.267  0.2233 -0.2931  0.2021
   76MOL   O31936469   1.291   1.680   1.353 -0.1338  0.0601 -0.0521
   76MOL   C32036470   1.188   1.612   1.312 -0.0510 -0.0100 -0.2465
   76MOL   O32136471   1.159   1.592   1.199 -0.5491  0.0783 -0.0349
   76MOL   C32236472   1.105   1.554   1.428  0.1161 -0.2506 -0.1463
   76MOL   C32336473   1.093   1.650   1.548  0.1387 -0.0776 -0.0946
   76MOL   C32436474   1.180   1.616   1.667  0.7674  0.9142  0.1831
   76MOL   O32536475   1.296   1.656   1.674  0.2909 -0.0773 -0.4033
   76MOL   H32636476   1.599   1.950   0.946  0.6090  0.7015  1.6926
   76MOL   H32736477   1.553   2.030   1.096 -2.3792  0.3597  1.5173
   76MOL   H32836478   1.587   1.792   1.132  0.6087 -1.4165  0.1446
   76MOL   H32936479   1.471   1.757   0.999  2.3056 -0.2450 -0.8491
   76MOL   H33036480   1.282   1.833   1.155 -0.2311 -1.0978 -0.7296
   76MOL   H33136481   1.403   1.910   1.252  2.5082  1.1047 -2.5467
   76MOL   H33236482   1.415   1.601   1.210  2.4460 -0.6943  1.4528
   76MOL   H33336483   1.489   1.704   1.326  0.2526  1.1878 -0.1202
   76MOL   H33436484   1.160   1.465   1.461 -0.1498 -0.9720 -1.5820
   76MOL   H33536485   1.008   1.532   1.383  0.7703  1.0478 -2.2538
   76MOL   H33636486   1.118   1.752   1.517  0.8098 -0.0659  0.4771
   76MOL   H33736487   0.989   1.658   1.580  0.2820 -0.0303  0.3648
   76MOL   O33836488   1.117   1.527   1.756 -0.0233 -0.5851  0.5135
   76MOL   C33936489   1.170   1.508   1.883 -1.3602 -0.0954  0.0914
   76MOL   C34036490   1.265   1.386   1.882 -0.2400 -0.0280  0.0044
   76MOL   C34136491   1.324   1.359   2.027 -0.2642 -0.4599 -0.2916
   76MOL   C34236492   1.415   1.235   2.034 -0.7758 -1.0557  0.5091
   76MOL   O34336493   1.534   1.258   1.967  0.1787  0.1748 -0.0486
   76MOL   C34436494   1.617   1.163   1.944 -1.1078 -0.5617  0.5699
   76MOL   O34536495   1.605   1.041   1.975  0.0499 -0.0749 -0.3130
   76MOL   C34636496   1.752   1.223   1.899 -0.3417 -0.3488  0.1451
   76MOL   C34736497   1.780   1.249   1.754 -0.2374  0.5241  0.2059
   76MOL   C34836498   1.746   1.390   1.709  0.1334  0.0366  0.2524
   76MOL   O34936499   1.814   1.448   1.626  0.2869 -0.1590  0.1223
   76MOL   H35036500   1.207   1.606   1.913 -2.6133  0.5945 -0.6164
   76MOL   H35136501   1.088   1.481   1.950 -2.5690 -3.4211 -2.5859
   76MOL   H35236502   1.348   1.423   1.821 -0.7470  1.4745  0.2064
   76MOL   H35336503   1.218   1.300   1.835  1.4050 -0.3825 -1.0353
   76MOL   H35436504   1.235   1.327   2.080 -1.3541  0.0283 -1.7939
   76MOL   H35536505   1.364   1.444   2.081  1.4580  0.2496 -2.6016
   76MOL   H35636506   1.423   1.208   2.140 -0.9793 -2.5811  0.1361
   76MOL   H35736507   1.366   1.151   1.986  1.1321 -1.5635 -0.5568
   76MOL   H35836508   1.822   1.153   1.943 -1.4153 -1.0525  0.7612
   76MOL   H35936509   1.789   1.306   1.960 -4.5905 -0.1445  2.7132
   76MOL   H36036510   1.887   1.232   1.751  0.0833  2.6306 -1.9852
   76MOL   H36136511   1.734   1.179   1.684  3.5032 -2.2564  0.3527
   76MOL   O36236512   1.641   1.450   1.764 -0.2325 -0.5244  0.2537
   76MOL   C36336513   1.621   1.590   1.733  0.3137 -1.0550 -0.3314
   76MOL   C36436514   1.647   1.682   1.849  0.1922 -0.4203 -0.0300
   76MOL   C36536515   1.559   1.653   1.968 -0.4001 -0.3610  0.4203
   76MOL   C36636516   1.598   1.750   2.082 -0.0079 -0.1028  0.6491
   76MOL   O36736517   1.498   1.745   2.193  0.8119 -0.0294  0.0306
   76MOL   C36836518   1.521   1.666   2.298  0.2069  0.0924  0.2802
   76MOL   O36936519   1.621   1.601   2.316  0.1929  0.0719 -0.1936
   76MOL   C37036520   1.417   1.685   2.409 -0.6507  0.7870 -0.7029
   76MOL   C37136521   1.382   1.834   2.448 -0.1654 -0.2841  0.4057
   76MOL   C37236522   1.233   1.859   2.451  0.6246 -0.7900 -0.3401
   76MOL   O37336523   1.166   1.810   2.357 -0.3652 -0.1533 -0.6289
   76MOL   H37436524   1.664   1.623   1.639 -1.4498 -1.3549 -1.2548
   76MOL   H37536525   1.520   1.600   1.693 -0.3243  1.5826  1.8567
   76MOL   H37636526   1.637   1.788   1.830  2.1600 -0.5585 -2.0870
   76MOL   H37736527   1.753   1.675   1.877  0.5244  0.4592 -1.0358
   76MOL   H37836528   1.569   1.550   2.004 -0.2582  0.6401  3.3694
   76MOL   H37936529   1.456   1.657   1.933 -0.2707  3.0050  0.2676
   76MOL   H38036530   1.698   1.735   2.122 -0.7865 -1.1360  2.2591
   76MOL   H38136531   1.602   1.850   2.039  2.3367 -0.7524 -0.7239
   76MOL   H38236532   1.468   1.642   2.494 -2.9444 -1.9962 -0.6646
   76MOL   H38336533   1.327   1.624   2.400  0.5100 -0.9479 -0.7452
   76MOL   H38436534   1.432   1.862   2.541  1.6367 -1.1041 -0.2932
   76MOL   H38536535   1.428   1.896   2.371  0.6012 -0.1206  0.9918
   76MOL   O38636536   1.186   1.918   2.558  0.1705  0.7992 -0.1326
   76MOL   C38736537   1.050   1.952   2.559 -1.0399 -0.3040 -0.0273
   76MOL   C38836538   1.033   2.074   2.645 -0.4874  0.1544 -1.0872
   76MOL   C38936539   1.090   2.198   2.574 -0.1754 -0.2795 -0.1616
   76MOL   C39036540   1.088   2.319   2.667 -0.4720  0.1561  0.0948
   76MOL   O39136541   1.164   2.424   2.632  0.0050  0.1505 -0.6683
   76MOL   C39236542   1.166   2.535   2.704  0.4242  0.0970 -0.4846
   76MOL   O39336543   1.097   2.565   2.800 -0.4927 -0.3646 -0.3328
   76MOL   C39436544   1.278   2.627   2.657 -0.2202 -0.1079  0.1844
   76MOL   C39536545   1.417   2.574   2.686 -0.5471  0.9303 -0.3392
   76MOL   C39636546   1.516   2.655   2.607 -0.1009  0.9288 -0.0057
   76MOL   O39736547   1.500   2.776   2.593  0.4095  0.2104 -0.4593
   76MOL   H39836548   1.005   1.986   2.465 -1.8421 -0.9668  0.1188
   76MOL   H39936549   0.995   1.865   2.594 -1.3620  0.0375  0.3269
   76MOL   H40036550   1.081   2.048   2.740  0.1090 -0.9150 -1.6812
   76MOL   H40136551   0.929   2.085   2.676 -0.2761 -0.3799 -0.1467
   76MOL   H40236552   1.044   2.226   2.479 -0.1641  1.4904  0.3344
   76MOL   H40336553   1.196   2.182   2.552  0.2288 -1.6250  2.5860
   76MOL   H40436554   0.985   2.354   2.659 -0.8039 -0.6578  0.6591
   76MOL   H40536555   1.110   2.290   2.770  1.4832 -0.5637 -0.4921
   76MOL   H40636556   1.283   2.716   2.720 -0.7538 -0.1870  0.3382
   76MOL   H40736557   1.264   2.648   2.551 -1.5251 -0.3179  0.3047
   76MOL   H40836558   1.443   2.584   2.792  0.2231  0.0273 -0.4452
   76MOL   H40936559   1.416   2.470   2.654  0.8094  1.1626 -1.1547
   76MOL   O41036560   1.621   2.574   2.552  0.1536  0.0853  0.8975
   76MOL   C41136561   1.707   2.639   2.456  0.5606  0.1249 -0.0568
   76MOL   C41236562   1.644   2.628   2.321  0.6077  0.0255 -0.8139
   76MOL   C41336563   1.728   2.693   2.212 -0.1182  0.4889  0.2364
   76MOL   C41436564   1.663   2.694   2.072  0.6203 -0.7372 -0.6207
   76MOL   O41536565   1.750   2.764   1.983  0.3159  0.4889 -0.3986
   76MOL   C41636566   1.702   2.811   1.866  0.4599  0.0072  0.1471
   76MOL   O41736567   1.581   2.838   1.841  0.2550  0.7096  1.2400
   76MOL   C41836568   1.814   2.833   1.764  0.0593 -0.1137  0.0086
   76MOL   C41936569   1.761   2.837   1.614 -0.7137  0.2565  0.2549
   76MOL   C42036570   1.788   2.707   1.538  0.0287  0.2172  0.5553
   76MOL   O42136571   1.723   2.607   1.560  0.8104  0.6959  0.1420
   76MOL   H42236572   1.735   2.739   2.487 -0.8763  0.7648 -0.8025
   76MOL   H42336573   1.810   2.602   2.456 -0.3543 -2.5129  0.4697
   76MOL   H42436574   1.551   2.684   2.315  0.3486 -0.0426  1.8930
   76MOL   H42536575   1.621   2.525   2.294  0.5711 -0.0878 -0.3581
   76MOL   H42636576   1.820   2.635   2.198 -2.5582 -2.9070 -2.4389
   76MOL   H42736577   1.764   2.791   2.243  1.7937  0.4101 -1.5946
   76MOL   H42836578   1.658   2.593   2.031  0.3095 -1.0720  0.2128
   76MOL   H42936579   1.565   2.742   2.072 -0.1915 -2.2353  2.4991
   76MOL   H43036580   1.879   2.746   1.767 -0.2336 -0.4920 -2.6459
   76MOL   H43136581   1.874   2.921   1.784 -0.4508  0.0621  0.7898
   76MOL   H43236582   1.656   2.868   1.615 -0.6826  0.4955 -1.6863
   76MOL   H43336583   1.808   2.922   1.564  1.3403 -0.8046  0.3450
   76MOL   O43436584   1.904   2.707   1.470 -0.2000 -0.2286  0.5999
   76MOL   C43536585   1.939   2.601   1.384  0.0666  0.2819  0.1793
   76MOL   C43636586   2.095   2.610   1.343 -0.1751 -0.5872 -0.4694
   76MOL   C43736587   2.139   2.486   1.250 -0.7368  0.3576 -0.0896
   76MOL   C43836588   2.282   2.489   1.207  0.0131  0.1724 -0.1438
   76MOL   O43936589   2.315   2.601   1.136 -0.4723 -0.7620  0.5093
   76MOL   C44036590   2.442   2.637   1.126  0.1011  0.6809  0.1594
   76MOL   O44136591   2.535   2.561   1.150 -0.4184 -0.5453  0.1111
   76MOL   C44236592   2.478   2.770   1.062 -0.5006  0.7919  0.5880
   76MOL   C44336593   2.445   2.894   1.151 -0.4584  0.5521  0.0056
   76MOL   C44436594   2.554   3.002   1.175  0.7892 -0.3123 -0.5172
   76MOL   O44536595   2.656   2.975   1.239 -0.8200  0.1039  0.2310
   76MOL   H44636596   1.928   2.500   1.424 -0.0108  0.0474 -0.4353
   76MOL   H44736597   1.877   2.611   1.295  0.1787 -0.5004  0.0081
   76MOL   H44836598   2.153   2.613   1.435 -1.2896 -2.5470  0.3251
   76MOL   H44936599   2.111   2.706   1.294  1.0733 -0.3290  0.4116
   76MOL   H45036600   2.071   2.467   1.167  0.1104  1.8494 -1.1494
   76MOL   H45136601   2.129   2.399   1.314  4.8314  0.0689  0.6090
   76MOL   H45236602   2.347   2.471   1.293 -0.0989  1.4056  0.2031
   76MOL   H45336603   2.297   2.406   1.138  2.5961  2.5070 -2.5218
   76MOL   H45436604   2.409   2.766   0.978  0.9964  0.5416 -0.6571
   76MOL   H45536605   2.579   2.773   1.019  0.3072 -0.1878  2.3336
   76MOL   H45636606   2.367   2.954   1.104  2.2815  2.2317 -2.6288
   76MOL   H45736607   2.399   2.855   1.242 -0.9349  2.0067  0.4036
   76MOL   O45836608   2.529   3.113   1.104 -0.2674 -0.3775  0.2492
   76MOL   C45936609   2.624   3.224   1.103 -0.2096 -0.2555 -0.3995
   76MOL   C46036610   2.611   3.284   0.965  0.4503 -0.8455  0.0536
   76MOL   C46136611   2.508   3.398   0.971 -0.1503  0.5215 -0.1379
   76MOL   C46236612   2.451   3.427   0.835 -0.8605  0.3049 -0.8226
   76MOL   O46336613   2.343   3.518   0.866 -0.4319  0.2983 -0.2952
   76MOL   C46436614   2.234   3.521   0.787  0.0298 -0.3590  0.4967
   76MOL   O46536615   2.223   3.465   0.678  0.0142 -0.0421  0.1619
   76MOL   C46636616   2.123   3.616   0.842 -0.5794 -0.0690 -0.3198
   76MOL   C46736617   1.997   3.627   0.758  0.0155 -0.1357  0.4375
   76MOL   C46836618   1.927   3.489   0.748  0.3176 -0.2365  0.6106
   76MOL   O46936619   1.808   3.486   0.735 -0.7755 -0.4349 -0.8072
   76MOL   H47036620   2.599   3.298   1.178  1.3461  0.3849 -0.4961
   76MOL   H47136621   2.725   3.192   1.126 -0.6425 -0.9522  0.5619
   76MOL   H47236622   2.588   3.214   0.884 -0.8006 -0.6876  0.2491
   76MOL   H47336623   2.705   3.330   0.936 -0.6641  1.5182  0.1061
   76MOL   H47436624   2.538   3.496   1.006  2.1716 -0.0099 -0.5894
   76MOL   H47536625   2.425   3.364   1.033  0.2768 -1.6324 -0.7067
   76MOL   H47636626   2.522   3.474   0.766  0.7123 -1.8960 -0.7885
   76MOL   H47736627   2.421   3.335   0.784 -2.9583  0.8533 -0.5892
   76MOL   H47836628   2.167   3.712   0.866 -1.3443  0.1223  0.3590
   76MOL   H47936629   2.096   3.578   0.941  0.8614  1.3596  0.6524
   76MOL   H48036630   1.927   3.704   0.790  0.0131 -0.4755  1.2523
   76MOL   H48136631   2.021   3.651   0.654 -1.7986  1.8374  0.4549
   76MOL   H48236632   1.989   3.400   0.755  0.9716  0.3032  1.8965
   77MOL     O136633   5.449   5.742   4.862 -0.2163 -0.6114 -0.3491
   77MOL     C236634   5.493   5.759   5.004  0.3741 -0.1175  0.4077
   77MOL     C336635   5.644   5.725   5.022 -0.6226  0.2199 -0.0321
   77MOL     C436636   5.690   5.736   5.169  0.4161 -0.3332  0.2740
   77MOL     C536637   5.828   5.672   5.208  0.0005 -0.2376  0.3178
   77MOL     O636638   5.837   5.667   5.351  0.5198 -0.2691 -0.4624
   77MOL     C736639   5.796   5.567   5.425 -0.0936  0.7736 -0.7204
   77MOL     O836640   5.728   5.471   5.391  0.5902  0.2525  0.2179
   77MOL     C936641   5.839   5.588   5.569 -0.1291  0.5473  0.0888
   77MOL    C1036642   5.988   5.559   5.580  0.8240  0.4759  0.4314
   77MOL    C1136643   6.027   5.414   5.599 -0.2898  0.8435 -0.0014
   77MOL    O1236644   5.950   5.335   5.654 -0.5011 -0.1502  0.6816
   77MOL    H1336645   5.469   5.863   5.027 -0.6853 -0.3543  0.4076
   77MOL    H1436646   5.426   5.699   5.065 -0.1969 -0.8451 -0.9198
   77MOL    H1536647   5.713   5.780   4.957  0.6018 -1.2317  0.0127
   77MOL    H1636648   5.650   5.621   4.991 -2.7704  0.4719 -1.3534
   77MOL    H1736649   5.619   5.678   5.227  1.0394 -0.2807  1.1054
   77MOL    H1836650   5.688   5.839   5.206 -1.6111 -0.0177 -0.6612
   77MOL    H1936651   5.837   5.573   5.165  0.5328 -0.1077  0.1221
   77MOL    H2036652   5.909   5.729   5.163 -0.1625  2.6417  3.4013
   77MOL    H2136653   5.778   5.530   5.639  0.3011 -1.9974 -1.5924
   77MOL    H2236654   5.815   5.693   5.590 -2.2876  0.0806  0.1025
   77MOL    H2336655   6.042   5.598   5.494  1.9678  0.2438  1.0419
   77MOL    H2436656   6.033   5.627   5.652  1.9103  0.3808 -0.1480
   77MOL    H2536657   5.355   5.749   4.861 -0.0751  1.4839 -2.0363
   77MOL    O2636658   6.154   5.390   5.563 -0.7159 -0.4255  0.9254
   77MOL    C2736659   6.207   5.265   5.585 -0.1491 -0.6180  0.1343
   77MOL    C2836660   6.356   5.278   5.583 -0.3914  0.5954 -0.1327
   77MOL    C2936661   6.425   5.270   5.440  0.6592  0.0097 -1.0041
   77MOL    C3036662   6.367   5.371   5.336  0.1447  0.7311  0.4980
   77MOL    O3136663   6.256   5.321   5.273  0.5758 -0.6120 -0.0474
   77MOL    C3236664   6.187   5.378   5.170  0.6806  0.4053 -0.1818
   77MOL    O3336665   6.221   5.483   5.116  0.4390  0.1846 -0.0383
   77MOL    C3436666   6.075   5.288   5.121  0.5331 -0.2653 -0.1564
   77MOL    C3536667   5.957   5.299   5.214  0.9002 -0.0218  0.2882
   77MOL    C3636668   5.922   5.159   5.261  0.0132 -0.1740 -0.4748
   77MOL    O3736669   5.823   5.108   5.220 -0.6113 -0.0653  0.0364
   77MOL    H3836670   6.172   5.245   5.686 -1.8373  0.6213 -0.1776
   77MOL    H3936671   6.179   5.191   5.510 -0.1459  0.2003 -0.6840
   77MOL    H4036672   6.398   5.199   5.645 -1.0941  1.8956  2.0520
   77MOL    H4136673   6.375   5.370   5.638 -1.2838  1.5016 -1.3371
   77MOL    H4236674   6.420   5.166   5.408 -0.1605 -0.6042  1.0149
   77MOL    H4336675   6.532   5.285   5.456  1.1895 -3.0606 -1.4043
   77MOL    H4436676   6.339   5.464   5.386  0.7861  0.9786  0.4131
   77MOL    H4536677   6.443   5.396   5.261  1.4521  1.2366  1.9448
   77MOL    H4636678   6.117   5.188   5.108  0.2407 -0.5181  0.8164
   77MOL    H4736679   6.039   5.320   5.024 -0.1789  2.3954  0.9371
   77MOL    H4836680   5.986   5.365   5.296  1.7857  1.0434 -0.8630
   77MOL    H4936681   5.879   5.337   5.149  1.6415  1.6849  0.3558
   77MOL    O5036682   6.002   5.109   5.349 -0.9884  0.4479  0.4800
   77MOL    C5136683   5.987   4.974   5.397  0.1223  0.7212 -0.2756
   77MOL    C5236684   5.946   4.963   5.545 -0.4685 -0.1083 -0.0782
   77MOL    C5336685   5.928   4.816   5.586  0.1676 -0.5091  0.3297
   77MOL    C5436686   5.918   4.782   5.735  0.6591  0.1409 -0.1861
   77MOL    O5536687   5.902   4.638   5.739 -0.3575 -0.6896  0.2431
   77MOL    C5636688   5.875   4.576   5.852 -0.4251 -0.0973  0.1674
   77MOL    O5736689   5.862   4.630   5.963  0.1966  0.1723  0.5137
   77MOL    C5836690   5.840   4.429   5.818 -0.2477  0.7858  0.8378
   77MOL    C5936691   5.805   4.335   5.930 -0.3401  0.1811  0.3962
   77MOL    C6036692   5.915   4.232   5.956  0.2036  0.1715 -0.2270
   77MOL    O6136693   6.034   4.249   5.928 -0.8455  0.5145  0.3519
   77MOL    H6236694   5.918   4.916   5.335  0.4827  0.1037 -0.1084
   77MOL    H6336695   6.088   4.935   5.384  0.6631  1.4764  1.5716
   77MOL    H6436696   5.860   5.024   5.569 -0.6215 -0.7992  1.1943
   77MOL    H6536697   6.035   5.004   5.593 -0.1211 -1.7583  0.7384
   77MOL    H6636698   6.002   4.752   5.539 -0.7962 -0.9093 -0.6383
   77MOL    H6736699   5.836   4.788   5.535 -1.6455  0.4023  2.9902
   77MOL    H6836700   6.003   4.819   5.792  0.9629 -2.8311  1.3902
   77MOL    H6936701   5.825   4.824   5.771  0.2362 -2.1356  1.4438
   77MOL    H7036702   5.919   4.378   5.763 -1.7258 -1.0134  0.3259
   77MOL    H7136703   5.749   4.438   5.758 -0.5258  0.0326  1.1455
   77MOL    H7236704   5.766   4.377   6.023 -0.9898 -0.8700  0.6135
   77MOL    H7336705   5.726   4.281   5.878  0.1214 -1.5033  1.3916
   77MOL    O7436706   5.863   4.120   6.018 -0.3488 -0.4712 -0.0681
   77MOL    C7536707   5.941   4.011   6.064 -0.3095  0.6988 -0.0921
   77MOL    C7636708   5.874   3.878   6.029 -0.3648  0.0650  0.0596
   77MOL    C7736709   5.945   3.771   6.126 -0.3306  0.5974 -0.1253
   77MOL    C7836710   5.876   3.640   6.104  0.0781  0.1923  0.6232
   77MOL    O7936711   5.952   3.541   6.176 -0.3387 -0.0143  0.0902
   77MOL    C8036712   5.914   3.413   6.186  0.0853 -0.5123 -0.3533
   77MOL    O8136713   5.805   3.371   6.152 -0.2806 -0.2655  0.1180
   77MOL    C8236714   6.010   3.318   6.255 -0.4945  0.8396  0.2004
   77MOL    C8336715   6.159   3.363   6.233 -0.5001  0.1324 -0.0430
   77MOL    C8436716   6.254   3.256   6.179 -0.1677  0.4699  0.5434
   77MOL    O8536717   6.306   3.272   6.069 -1.0901 -0.1553 -0.0547
   77MOL    H8636718   6.046   4.013   6.033  0.0311  0.1598  0.9854
   77MOL    H8736719   5.938   4.011   6.173 -0.6636  1.6178 -0.1017
   77MOL    H8836720   5.888   3.852   5.924  0.9908 -0.3375  0.3244
   77MOL    H8936721   5.766   3.889   6.037 -0.6029 -2.9483  2.3136
   77MOL    H9036722   5.946   3.797   6.232  1.4282  2.8736 -0.6715
   77MOL    H9136723   6.052   3.762   6.107  0.2928 -0.4993  3.5776
   77MOL    H9236724   5.780   3.649   6.155 -0.5875  1.4231 -0.8061
   77MOL    H9336725   5.879   3.622   5.997 -2.1210 -1.7893  0.8474
   77MOL    H9436726   5.995   3.221   6.208  1.7521 -1.2164  3.5262
   77MOL    H9536727   5.975   3.307   6.357  3.3557  2.2298  1.7334
   77MOL    H9636728   6.170   3.447   6.165  0.2731 -0.4167 -0.6097
   77MOL    H9736729   6.201   3.395   6.329  1.1600 -2.1271  0.0298
   77MOL    O9836730   6.255   3.145   6.251 -0.9824 -0.0189  0.1076
   77MOL    C9936731   6.345   3.043   6.229  0.2344  0.3903  0.4185
   77MOL   C10036732   6.277   2.921   6.176  0.5202 -0.7551  1.0116
   77MOL   C10136733   6.204   2.836   6.283  0.3009 -0.1549  0.6887
   77MOL   C10236734   6.287   2.765   6.394 -0.4216  0.4396 -0.0558
   77MOL   O10336735   6.210   2.670   6.465 -1.3079  0.6119 -0.4831
   77MOL   C10436736   6.264   2.547   6.499  0.1756 -0.2922 -0.2690
   77MOL   O10536737   6.379   2.518   6.482 -0.1130 -0.2463 -0.4712
   77MOL   C10636738   6.159   2.457   6.564  0.1499  0.1428 -0.0497
   77MOL   C10736739   6.093   2.540   6.684  0.1954  1.0738 -0.4021
   77MOL   C10836740   5.949   2.518   6.690 -0.5589  1.0446  0.1129
   77MOL   O10936741   5.879   2.599   6.629 -0.1248 -0.0384  0.2067
   77MOL   H11036742   6.431   3.076   6.172 -0.6091 -0.2314 -1.2587
   77MOL   H11136743   6.386   3.024   6.328  0.5344 -0.6277  0.1029
   77MOL   H11236744   6.362   2.865   6.138 -1.0246 -1.2809 -1.8403
   77MOL   H11336745   6.219   2.944   6.087 -0.9803 -0.3974  2.0476
   77MOL   H11436746   6.162   2.752   6.228 -0.0818 -0.1153  0.9235
   77MOL   H11536747   6.116   2.885   6.323  0.3213  0.5089 -0.0675
   77MOL   H11636748   6.375   2.723   6.345 -1.0768 -2.3289  1.0510
   77MOL   H11736749   6.334   2.834   6.463 -2.4992  0.1440  1.7285
   77MOL   H11836750   6.196   2.362   6.604 -0.5494 -0.1781 -0.1633
   77MOL   H11936751   6.093   2.437   6.480 -0.8486  0.2624  0.6893
   77MOL   H12036752   6.153   2.513   6.772 -0.0572  0.5242 -0.3975
   77MOL   H12136753   6.092   2.648   6.677  2.4220  1.0775 -1.1065
   77MOL   O12236754   5.919   2.409   6.760  0.0292  0.2440 -0.3572
   77MOL   C12336755   5.791   2.353   6.770 -1.0248  0.3832 -0.3020
   77MOL   C12436756   5.811   2.205   6.756  0.5885  0.3877  0.6285
   77MOL   C12536757   5.858   2.143   6.889 -0.2378  0.0046 -0.3007
   77MOL   C12636758   5.827   1.998   6.881  0.3044  0.0043 -0.4308
   77MOL   O12736759   5.894   1.944   6.996 -0.2446  0.3245 -0.1752
   77MOL   C12836760   5.885   1.807   7.018 -0.0772  1.0891  0.5038
   77MOL   O12936761   5.836   1.730   6.938 -0.4580  0.3759  0.6795
   77MOL   C13036762   5.964   1.765   7.142 -0.0249 -0.3384  0.2081
   77MOL   C13136763   6.063   1.651   7.105 -0.6169  0.1274  0.1851
   77MOL   C13236764   6.199   1.705   7.069  0.4749 -0.1862 -0.2640
   77MOL   O13336765   6.205   1.781   6.976  0.1571  0.2355  0.2711
   77MOL   H13436766   5.745   2.384   6.863  0.5115 -0.1905  0.6602
   77MOL   H13536767   5.727   2.386   6.688 -1.3249  1.2620  0.2874
   77MOL   H13636768   5.884   2.192   6.675  1.4226  2.9579  0.9363
   77MOL   H13736769   5.709   2.168   6.741  0.6183  1.0898 -1.4471
   77MOL   H13836770   5.799   2.174   6.976 -0.8184 -0.6063 -0.4722
   77MOL   H13936771   5.959   2.175   6.912 -0.9238  1.9504  0.0905
   77MOL   H14036772   5.719   1.980   6.884  0.5535 -1.2730  2.9883
   77MOL   H14136773   5.879   1.975   6.789  0.5199  2.4078 -0.9554
   77MOL   H14236774   5.899   1.737   7.226 -0.9311  1.6201  0.1674
   77MOL   H14336775   6.017   1.849   7.186  1.5833 -0.1003 -2.1350
   77MOL   H14436776   6.072   1.586   7.192  1.2374 -1.0630 -0.8488
   77MOL   H14536777   6.029   1.602   7.014  1.6640  0.2992 -0.8084
   77MOL   O14636778   6.296   1.657   7.153  0.4548 -0.0783 -0.3658
   77MOL   C14736779   6.422   1.718   7.144 -0.4490  0.1597 -0.7349
   77MOL   C14836780   6.513   1.655   7.249 -0.8183  0.1616  0.1982
   77MOL   C14936781   6.543   1.505   7.215  0.1110 -0.0167 -0.5696
   77MOL   C15036782   6.661   1.458   7.299 -0.2982 -0.0542 -0.2318
   77MOL   O15136783   6.642   1.454   7.443  0.1367  0.4759 -0.2655
   77MOL   C15236784   6.747   1.447   7.527 -0.1874  0.7313 -0.3009
   77MOL   O15336785   6.857   1.447   7.485  0.2697  0.4949  0.1112
   77MOL   C15436786   6.711   1.417   7.670 -0.2636 -0.6311 -0.5309
   77MOL   C15536787   6.828   1.388   7.761  1.0136 -0.5968 -0.2942
   77MOL   C15636788   6.911   1.513   7.809  0.6861 -0.2676 -0.7471
   77MOL   O15736789   6.858   1.622   7.819  0.3875  0.5634 -0.2981
   77MOL   H15836790   6.469   1.699   7.047 -0.0045 -0.4821 -0.3966
   77MOL   H15936791   6.424   1.826   7.157 -0.1212  0.0235  0.3653
   77MOL   H16036792   6.488   1.682   7.352 -1.2732  0.5637 -0.0152
   77MOL   H16136793   6.602   1.714   7.228 -0.0323 -1.9999 -2.9403
   77MOL   H16236794   6.549   1.489   7.108 -0.8489 -2.3741 -0.2854
   77MOL   H16336795   6.458   1.441   7.238  1.4760 -1.7888 -0.3956
   77MOL   H16436796   6.701   1.361   7.268  1.2330  1.5025 -3.2509
   77MOL   H16536797   6.747   1.515   7.264  1.1228 -2.4936 -0.8172
   77MOL   H16636798   6.657   1.323   7.667 -0.6705 -0.3906 -0.7964
   77MOL   H16736799   6.643   1.496   7.701  1.6130  1.2807 -1.1440
   77MOL   H16836800   6.808   1.322   7.846 -0.5291 -0.1801 -0.3281
   77MOL   H16936801   6.894   1.320   7.707  0.0221  0.1950 -2.5305
   77MOL   O17036802   7.039   1.484   7.839  0.1757  0.2576 -0.3237
   77MOL   C17136803   7.120   1.592   0.016 -0.4031  0.5242  0.4656
   77MOL   C17236804   7.206   1.662   7.784 -0.1297  0.1026 -0.8971
   77MOL   C17336805   7.277   1.779   7.851  0.1135  0.3903 -0.2634
   77MOL   C17436806   7.358   1.861   7.748 -0.6324  0.2861 -0.1341
   77MOL   O17536807   7.484   1.799   7.720  0.3897 -0.0806 -0.2951
   77MOL   C17636808   7.586   1.875   7.653 -0.7077  0.0842 -0.2364
   77MOL   O17736809   7.581   1.991   7.610 -0.0075 -0.4167 -0.7226
   77MOL   C17836810   7.709   1.789   7.615  0.3840  0.2438 -0.3654
   77MOL   C17936811   7.828   1.878   7.579 -0.5516  0.6961 -0.2744
   77MOL   C18036812   0.027   1.933   7.697 -0.1488  0.3512  0.1973
   77MOL   O18136813   0.025   1.866   7.799 -0.9451 -0.2265 -0.2561
   77MOL   H18236814   7.062   1.671   0.062  0.5598  2.4886 -1.5984
   77MOL   H18336815   7.186   1.554   0.095 -0.3637  1.6051  0.9624
   77MOL   H18436816   7.153   1.703   7.698  0.4703  2.1014 -0.3566
   77MOL   H18536817   7.280   1.592   7.746  0.4996  0.6959 -0.7845
   77MOL   H18636818   7.348   1.744   0.051  0.8692 -0.0110 -1.1578
   77MOL   H18736819   7.207   1.853   0.014  1.2716  2.6649 -2.4351
   77MOL   H18836820   7.294   1.883   7.662 -1.5360  0.5081  0.5867
   77MOL   H18936821   7.392   1.954   7.793  1.0892  0.6992 -2.2002
   77MOL   H19036822   7.698   1.731   7.523 -0.6913  0.7977 -0.5960
   77MOL   H19136823   7.727   1.722   7.699  3.9112  0.3801 -0.9482
   77MOL   H19236824   0.023   1.823   7.515 -1.5651 -1.3607  0.3657
   77MOL   H19336825   7.808   1.964   7.515  1.4861  2.0632  0.8608
   77MOL   O19436826   0.095   2.045   7.672 -0.5201  0.1116  0.3226
   77MOL   C19536827   0.181   2.097   7.770 -0.5569  0.2415 -0.4133
   77MOL   C19636828   0.305   2.157   7.709 -0.1856 -0.3016 -0.1890
   77MOL   C19736829   0.378   2.054   7.619 -1.2378 -0.2923  0.1762
   77MOL   C19836830   0.508   2.101   7.544  0.0858 -0.2872  0.2221
   77MOL   O19936831   0.600   2.158   7.643 -0.1233  0.4668  0.4323
   77MOL   C20036832   0.717   2.095   7.683 -0.7896 -0.2590  0.5215
   77MOL   O20136833   0.753   1.988   7.639 -0.2130 -0.2988 -0.2198
   77MOL   C20236834   0.787   2.170   7.795 -0.4763  0.3675  0.1804
   77MOL   C20336835   0.692   2.185   0.035 -0.8363 -0.0023 -0.4916
   77MOL   C20436836   0.641   2.326   0.051  0.4808  0.4123 -0.0962
   77MOL   O20536837   0.529   2.352   0.010  0.7561  0.3106 -0.4292
   77MOL   H20636838   0.123   2.168   7.829  1.0009  0.1138  1.3164
   77MOL   H20736839   0.211   2.018   7.839 -0.8791 -0.1481 -0.7161
   77MOL   H20836840   0.370   2.176   7.795  1.5008  1.3029 -1.7775
   77MOL   H20936841   0.293   2.253   7.658  0.3234 -1.1785 -1.9722
   77MOL   H21036842   0.320   2.003   7.543  0.6793 -1.1235 -0.7523
   77MOL   H21136843   0.413   1.979   7.690  1.1318 -0.1832 -0.8275
   77MOL   H21236844   0.551   2.017   7.489  0.1639 -0.0347 -0.1085
   77MOL   H21336845   0.478   2.176   7.470  1.6319  0.8176  0.6781
   77MOL   H21436846   0.809   2.267   7.751  0.5609 -0.3482 -0.9226
   77MOL   H21536847   0.886   2.132   7.821 -0.3717  0.4989 -0.0291
   77MOL   H21636848   0.610   2.113   0.028 -0.4030 -0.5658  0.2427
   77MOL   H21736849   0.748   2.166   0.126 -0.0927  1.5946 -0.6021
   77MOL   O21836850   0.729   2.399   0.124  0.1917  0.6405 -0.0007
   77MOL   C21936851   0.689   2.531   0.152 -0.5142 -0.6851  0.7193
   77MOL   C22036852   0.605   2.538   0.278 -0.6513 -0.0342 -0.0202
   77MOL   C22136853   0.555   2.668   0.336  0.3089  0.5215 -0.4389
   77MOL   C22236854   0.455   2.651   0.453 -0.2707 -1.1364  0.2085
   77MOL   O22336855   0.497   2.591   0.575  0.2282  0.3891  0.2571
   77MOL   C22436856   0.474   2.462   0.593 -0.1434  0.7190 -0.1912
   77MOL   O22536857   0.423   2.382   0.507 -0.1895 -0.2104 -0.6712
   77MOL   C22636858   0.510   2.404   0.730  0.4550  0.3781  0.4489
   77MOL   C22736859   0.466   2.256   0.752 -0.2857 -0.8748  0.4238
   77MOL   C22836860   0.581   2.153   0.743 -0.2242 -0.1984 -0.6209
   77MOL   O22936861   0.621   2.097   0.846  0.5650  0.1641  0.2779
   77MOL   H23036862   0.783   2.587   0.156 -0.6649 -0.2359 -1.5027
   77MOL   H23136863   0.637   2.583   0.072  1.2538  0.8140  0.4889
   77MOL   H23236864   0.654   2.483   0.358 -0.4296  0.4311  0.1619
   77MOL   H23336865   0.511   2.487   0.253 -1.1216  0.9549 -0.3169
   77MOL   H23436866   0.503   2.717   0.254 -0.7691 -1.9574 -1.2741
   77MOL   H23536867   0.643   2.722   0.371  0.3414  0.3426 -0.2467
   77MOL   H23636868   0.409   2.750   0.456  0.8729 -0.5562 -1.1400
   77MOL   H23736869   0.367   2.591   0.427  0.0439 -1.2732 -0.5649
   77MOL   H23836870   0.463   2.470   0.803 -1.1232 -0.9861  0.7067
   77MOL   H23936871   0.618   2.419   0.737  0.6846 -0.6039 -0.7529
   77MOL   H24036872   0.415   2.249   0.849 -0.1144  1.4710  0.7015
   77MOL   H24136873   0.394   2.221   0.678  0.2027  0.9895 -0.9647
   77MOL   O24236874   0.636   2.148   0.625 -0.0478  0.0256  0.1754
   77MOL   C24336875   0.756   2.080   0.609 -0.3918 -0.2502 -0.6115
   77MOL   C24436876   0.870   2.163   0.537 -0.1774 -0.4380  0.1573
   77MOL   C24536877   0.827   2.201   0.396 -0.2168  0.3580 -0.6627
   77MOL   C24636878   0.928   2.284   0.322 -0.0925 -0.0308  0.0455
   77MOL   O24736879   0.925   2.415   0.381 -0.0138  0.0712 -0.0294
   77MOL   C24836880   0.994   2.520   0.340 -0.7712 -1.9009 -0.4228
   77MOL   O24936881   1.048   2.530   0.228  0.3555  0.1332 -0.1368
   77MOL   C25036882   0.990   2.634   0.440 -0.0856  0.3496 -0.2719
   77MOL   C25136883   1.012   2.591   0.583 -0.3756  0.5225  0.6481
   77MOL   C25236884   0.888   2.577   0.673 -0.2498 -0.5751 -0.0362
   77MOL   O25336885   0.776   2.548   0.638  0.0583 -0.4976  0.0675
   77MOL   H25436886   0.805   2.073   0.707 -1.0781 -1.3289 -0.3446
   77MOL   H25536887   0.736   1.983   0.565 -1.1964  0.8976 -2.8754
   77MOL   H25636888   0.955   2.096   0.531 -0.4326 -0.8387  0.8854
   77MOL   H25736889   0.902   2.240   0.607  0.1776  1.0217 -1.5973
   77MOL   H25836890   0.737   2.262   0.402 -0.3214 -0.0907  3.0920
   77MOL   H25936891   0.805   2.110   0.339 -1.0424 -0.1100  0.3769
   77MOL   H26036892   1.022   2.229   0.333 -1.2108 -1.7088  1.5364
   77MOL   H26136893   0.922   2.282   0.213  3.2013 -0.9277 -0.1878
   77MOL   H26236894   0.892   2.679   0.425  0.7625  2.3890  0.2028
   77MOL   H26336895   1.072   2.700   0.414  0.6889 -0.7648 -0.6761
   77MOL   H26436896   1.064   2.495   0.585 -0.9323  0.2215  2.4389
   77MOL   H26536897   1.077   2.665   0.631 -0.4926 -0.0630  1.7334
   77MOL   O26636898   0.919   2.598   0.803 -0.0712 -0.4008  0.4980
   77MOL   C26736899   0.833   2.561   0.905  0.4349 -0.7751  0.5911
   77MOL   C26836900   0.879   2.468   1.011 -0.1984  0.4315 -0.5113
   77MOL   C26936901   0.879   2.317   0.980 -0.3188  0.0676 -0.7108
   77MOL   C27036902   0.958   2.219   1.074  0.5893 -0.4039 -0.2045
   77MOL   O27136903   0.945   2.090   1.018 -0.9825  0.3433 -0.2109
   77MOL   C27236904   0.973   1.984   1.083 -0.6479  0.2136 -0.2077
   77MOL   O27336905   0.992   1.989   1.205  0.1141 -0.5062  0.5246
   77MOL   C27436906   0.986   1.854   1.005  0.3440 -0.0016 -0.4276
   77MOL   C27536907   0.903   1.739   1.069 -0.0404  0.9435  0.0006
   77MOL   C27636908   0.773   1.695   0.999 -1.0073 -0.5433  0.0193
   77MOL   O27736909   0.731   1.580   1.012  0.3108  0.2433  0.0067
   77MOL   H27836910   0.808   2.656   0.953  1.1287 -1.7972  3.0250
   77MOL   H27936911   0.744   2.517   0.859  0.2086  0.1932  0.0696
   77MOL   H28036912   0.815   2.471   1.099  0.0299 -2.0529 -0.2260
   77MOL   H28136913   0.980   2.499   1.041 -1.1149  1.3220  1.7381
   77MOL   H28236914   0.916   2.308   0.878  1.5278 -3.5066  0.2016
   77MOL   H28336915   0.776   2.281   0.978 -0.3930  0.2373 -0.0808
   77MOL   H28436916   1.059   2.253   1.095  0.7862 -1.2904  0.2945
   77MOL   H28536917   0.912   2.217   1.173  2.4769  0.4250  0.7082
   77MOL   H28636918   1.093   1.839   0.995  0.3079  0.8106 -2.1692
   77MOL   H28736919   0.958   1.857   0.900 -0.1924 -1.2080 -0.3337
   77MOL   H28836920   0.962   1.648   1.061 -0.0655  0.5775  3.1165
   77MOL   H28936921   0.889   1.754   1.176  0.3572  2.6285 -0.1649
   77MOL   O29036922   0.706   1.795   0.936  0.0555 -0.4592  0.4358
   77MOL   C29136923   0.593   1.769   0.862 -0.5988  0.2660  0.4459
   77MOL   C29236924   0.630   1.720   0.722 -0.5007 -0.8613  0.0483
   77MOL   C29336925   0.520   1.744   0.617  0.1477 -0.3982  0.3697
   77MOL   C29436926   0.548   1.692   0.472 -0.0517 -0.5327  0.3128
   77MOL   O29536927   0.459   1.742   0.371  0.3711 -0.0697 -0.5003
   77MOL   C29636928   0.484   1.853   0.301 -0.5244 -0.5405 -0.0312
   77MOL   O29736929   0.596   1.907   0.296  0.2603 -0.0599  0.5354
   77MOL   C29836930   0.359   1.902   0.224 -0.2166  0.9717  1.2288
   77MOL   C29936931   0.262   1.976   0.323  0.3544 -0.2009  0.3515
   77MOL   C30036932   0.131   2.021   0.259 -1.1573  0.0217  0.1381
   77MOL   O30136933   0.112   2.139   0.235  0.2682  0.3847  0.9184
   77MOL   H30236934   0.530   1.687   0.897 -1.8745  0.6382 -0.9462
   77MOL   H30336935   0.543   1.866   0.865  2.4070  1.8771  0.9858
   77MOL   H30436936   0.651   1.614   0.725  2.3805 -0.2719  1.7055
   77MOL   H30536937   0.721   1.767   0.685 -0.7034 -0.2171  0.3695
   77MOL   H30636938   0.491   1.849   0.609 -1.6683 -0.7786  1.6807
   77MOL   H30736939   0.438   1.685   0.658  0.0454 -0.6414 -0.1800
   77MOL   H30836940   0.645   1.732   0.441 -1.1237  0.9905 -1.1295
   77MOL   H30936941   0.549   1.583   0.475  0.3479 -0.5512 -0.3298
   77MOL   H31036942   0.314   1.825   0.161  4.9014 -0.1681 -1.3542
   77MOL   H31136943   0.386   1.987   0.161  0.1953  0.6236  0.9354
   77MOL   H31236944   0.235   1.926   0.416 -2.2393 -0.3425 -0.4329
   77MOL   H31336945   0.315   2.064   0.359  0.0062 -0.7254  2.1984
   77MOL   O31436946   0.047   1.924   0.245  0.5497  0.0601 -0.1237
   77MOL   C31536947   7.797   1.936   0.181  0.3679 -0.0239 -0.1736
   77MOL   C31636948   7.699   1.998   0.280  0.1741 -0.4059 -0.6637
   77MOL   C31736949   7.548   2.009   0.219  0.4129  0.0577 -0.3530
   77MOL   C31836950   7.441   2.056   0.326  1.6254 -0.6150  0.1811
   77MOL   O31936951   7.457   1.992   0.452  0.4355 -0.4524  0.1265
   77MOL   C32036952   7.383   2.028   0.559 -0.0724  0.2937 -0.2467
   77MOL   O32136953   7.309   2.127   0.562 -0.1878 -0.1602 -0.6103
   77MOL   C32236954   7.398   1.939   0.689 -0.6169 -0.0731 -0.3114
   77MOL   C32336955   7.507   1.988   0.791  0.0519 -0.1311  0.6859
   77MOL   C32436956   7.472   2.124   0.849 -0.5180  0.2062 -0.0626
   77MOL   O32536957   7.560   2.205   0.855  0.4128 -0.6839 -0.3392
   77MOL   H32636958   7.813   2.006   0.098  1.7969  0.4977  0.5200
   77MOL   H32736959   7.771   1.839   0.139  1.1277  0.1021 -0.9609
   77MOL   H32836960   7.742   2.089   0.323  1.9451 -0.6220 -1.9541
   77MOL   H32936961   7.704   1.937   0.371 -0.5052 -0.2658 -0.5260
   77MOL   H33036962   7.524   1.911   0.177 -0.1234  0.4457 -0.9570
   77MOL   H33136963   7.544   2.072   0.130  1.6412  0.5788 -0.0431
   77MOL   H33236964   7.454   2.163   0.337  0.8749 -0.6792  1.9273
   77MOL   H33336965   7.337   2.039   0.300  1.1206  1.0862  1.0170
   77MOL   H33436966   7.424   1.837   0.662 -1.0459  0.1375 -1.5372
   77MOL   H33536967   7.302   1.950   0.739  1.1907 -0.1738  3.3635
   77MOL   H33636968   7.504   1.910   0.868 -1.2198 -1.6631 -0.8544
   77MOL   H33736969   7.601   1.983   0.735 -0.1195 -3.1094  0.5656
   77MOL   O33836970   7.354   2.134   0.913 -0.5090  0.3214  0.6422
   77MOL   C33936971   7.312   2.255   0.970  0.0183 -0.1002 -0.1779
   77MOL   C34036972   7.209   2.333   0.879 -0.1386  1.2038  0.1326
   77MOL   C34136973   7.081   2.265   0.849 -0.1716 -0.3055 -0.2206
   77MOL   C34236974   6.994   2.350   0.754  0.4967  0.6217 -0.0708
   77MOL   O34336975   6.874   2.279   0.724  0.2835  0.1706 -0.5630
   77MOL   C34436976   6.766   2.287   0.803  0.8877 -0.7396 -0.6451
   77MOL   O34536977   6.753   2.340   0.911 -0.6197 -1.2870  0.7451
   77MOL   C34636978   6.645   2.217   0.741  1.1807  0.8097  0.3301
   77MOL   C34736979   6.514   2.275   0.800 -0.0900 -0.3112 -0.7771
   77MOL   C34836980   6.442   2.365   0.699 -0.6058  0.1192 -0.5751
   77MOL   O34936981   6.437   2.488   0.714  0.0799  0.3399  0.6562
   77MOL   H35036982   7.261   2.240   1.065 -0.0643 -1.5801 -0.4443
   77MOL   H35136983   7.393   2.324   0.995  1.2387 -1.2413 -0.9192
   77MOL   H35236984   7.258   2.352   0.783 -0.4945  0.3781 -0.2149
   77MOL   H35336985   7.198   2.423   0.940  0.1861  1.0268  0.4541
   77MOL   H35436986   7.032   2.224   0.937  0.2103  0.7900  0.5151
   77MOL   H35536987   7.112   2.173   0.800  1.8225  0.8261 -1.1530
   77MOL   H35636988   6.960   2.443   0.800  0.9046  0.2753  0.9633
   77MOL   H35736989   7.055   2.378   0.668  0.7414  2.0550  0.5542
   77MOL   H35836990   6.653   2.111   0.767  0.6796  0.8087  0.4726
   77MOL   H35936991   6.637   2.232   0.634 -0.6647 -0.4856  0.2569
   77MOL   H36036992   6.449   2.192   0.828 -1.2816  0.9632  0.2879
   77MOL   H36136993   6.522   2.336   0.890 -4.0198  0.4688 -0.8442
   77MOL   O36236994   6.388   2.290   0.600  0.1777  0.5584  0.4559
   77MOL   C36336995   6.296   2.338   0.498 -0.3534  0.3313  0.3006
   77MOL   C36436996   6.377   2.407   0.386  0.7685 -0.3815 -0.2642
   77MOL   C36536997   6.464   2.316   0.303 -0.1655 -0.3135  0.1533
   77MOL   C36636998   6.501   2.377   0.170 -0.5886  0.2450 -0.3623
   77MOL   O36736999   6.578   2.283   0.093  0.1699 -0.6929  0.2916
   77MOL   C36837000   6.552   2.274   7.838  0.2510 -0.1340 -0.3063
   77MOL   O36937001   6.463   2.337   7.786  0.5210 -0.1127  0.1355
   77MOL   C37037002   6.647   2.186   7.765 -0.0170 -0.3243 -0.5515
   77MOL   C37137003   6.796   2.225   7.787 -0.2391 -0.1771 -0.4267
   77MOL   C37237004   6.863   2.266   7.658  0.3750 -0.4405  0.7996
   77MOL   O37337005   6.942   2.191   7.594  0.3202  0.0403  0.5915
   77MOL   H37437006   6.251   2.255   0.444 -2.3161  0.9858  0.9092
   77MOL   H37537007   6.213   2.389   0.546 -0.6684 -2.2482  2.6157
   77MOL   H37637008   6.423   2.501   0.415 -0.1001 -0.3945  1.2035
   77MOL   H37737009   6.309   2.453   0.314  0.6743  0.5435  0.4028
   77MOL   H37837010   6.418   2.220   0.283  0.0832 -0.1712 -1.1195
   77MOL   H37937011   6.544   2.293   0.373 -0.5963  2.4652  1.6416
   77MOL   H38037012   6.421   2.417   0.109 -0.5322  0.7355 -0.1163
   77MOL   H38137013   6.567   2.462   0.186 -3.0532  2.2187 -0.5143
   77MOL   H38237014   6.609   2.183   7.662 -1.0346 -0.4052 -0.1776
   77MOL   H38337015   6.638   2.082   7.797  1.2751  0.0553  1.0580
   77MOL   H38437016   6.799   2.310   7.856 -0.5499 -0.3659 -0.1773
   77MOL   H38537017   6.844   2.146   7.844 -2.1220 -1.5656 -0.6976
   77MOL   O38637018   6.816   2.384   7.612  0.6205 -0.2355 -0.1692
   77MOL   C38737019   6.883   2.450   7.511  0.7410 -0.3234 -0.3266
   77MOL   C38837020   6.867   2.597   7.539  0.2145  0.4805 -0.4817
   77MOL   C38937021   6.948   2.679   7.444 -0.1197  0.1265  0.3728
   77MOL   C39037022   6.925   2.830   7.469 -0.3819 -0.0250  0.4019
   77MOL   O39137023   6.992   2.880   7.589  0.7650  0.2497  0.1132
   77MOL   C39237024   6.985   3.003   7.629 -0.5245  0.3162  1.4136
   77MOL   O39337025   6.940   3.104   7.567 -0.3183 -0.1794 -0.0261
   77MOL   C39437026   7.048   3.020   7.771 -0.0218 -0.2434 -0.0442
   77MOL   C39537027   6.997   3.137   7.847 -0.0451  0.0529  0.1957
   77MOL   C39637028   6.975   3.112   0.118 -0.6456  0.0640  0.2647
   77MOL   O39737029   6.863   3.121   0.169  0.1943  0.0954 -0.8591
   77MOL   H39837030   6.986   2.418   7.496  0.1625 -2.2930 -0.2311
   77MOL   H39937031   6.833   2.442   7.415 -1.8829 -0.3135  1.0147
   77MOL   H40037032   6.895   2.630   7.639 -2.6910  0.2330  0.4708
   77MOL   H40137033   6.759   2.616   7.533  0.0833  0.0177  0.3800
   77MOL   H40237034   6.918   2.660   7.341  1.6106  1.5965 -0.4319
   77MOL   H40337035   7.056   2.663   7.447  0.1373  1.9473  2.3922
   77MOL   H40437036   6.957   2.885   7.381  0.7145 -0.5336  0.4705
   77MOL   H40537037   6.825   2.872   7.468  0.1070  1.1766  0.9662
   77MOL   H40637038   7.157   3.019   7.765 -0.0199  0.7658 -0.2409
   77MOL   H40737039   7.012   2.930   7.821 -3.1930  0.0416 -1.6803
   77MOL   H40837040   7.067   3.220   7.832  1.7259 -1.1043  1.7756
   77MOL   H40937041   6.901   3.167   7.805 -0.6754 -0.5742  1.1745
   77MOL   O41037042   7.085   3.089   0.192 -0.0077  0.4779 -0.5787
   77MOL   C41137043   7.065   3.081   0.332 -0.0122  0.2373  0.3075
   77MOL   C41237044   7.196   3.073   0.409  0.0914  0.6122  0.1166
   77MOL   C41337045   7.293   2.965   0.369 -0.3170  0.7538 -0.5654
   77MOL   C41437046   7.441   2.993   0.410 -0.9435 -0.2720  0.4351
   77MOL   O41537047   7.523   2.871   0.391  0.1760  0.4515  0.2017
   77MOL   C41637048   7.657   2.888   0.380  0.2611  0.6992 -0.0257
   77MOL   O41737049   7.708   2.999   0.378 -0.1666  0.5770  0.2948
   77MOL   C41837050   7.741   2.758   0.381  0.4189 -0.9068 -0.4498
   77MOL   C41937051   0.013   2.794   0.373 -0.2217 -0.2272  0.4523
   77MOL   C42037052   0.094   2.662   0.385  0.4988 -0.8316  0.1334
   77MOL   O42137053   0.148   2.637   0.494  0.1425 -0.0887 -0.5745
   77MOL   H42237054   7.022   3.176   0.365 -0.8619 -0.7429  2.0686
   77MOL   H42337055   7.001   3.002   0.370  1.3629 -0.1673  1.7934
   77MOL   H42437056   7.180   3.072   0.517 -0.4991 -1.6141  0.0224
   77MOL   H42537057   7.252   3.163   0.384  0.2204  0.2349 -0.9682
   77MOL   H42637058   7.292   2.962   0.260  1.0286  0.4858 -0.5885
   77MOL   H42737059   7.252   2.870   0.405  1.3977  0.3986  0.5299
   77MOL   H42837060   7.477   3.084   0.364  1.0139 -1.2718 -0.0480
   77MOL   H42937061   7.450   3.019   0.516 -1.2934  0.8168  0.2011
   77MOL   H43037062   7.696   2.684   0.314  0.2929  1.0131 -2.5421
   77MOL   H43137063   7.725   2.716   0.480 -3.0480 -1.5487 -1.1811
   77MOL   H43237064   0.034   2.827   0.271 -2.3406 -0.3495 -0.0526
   77MOL   H43337065   0.051   2.872   0.439 -1.0260 -0.4046  1.1436
   77MOL   O43437066   0.098   2.595   0.269 -0.7312  0.1335 -0.2512
   77MOL   C43537067   0.165   2.469   0.249 -0.0702  0.4276 -0.2926
   77MOL   C43637068   0.188   2.455   0.092  0.5380  0.9543  0.4564
   77MOL   C43737069   0.273   2.565   0.026  0.7949  0.0977  0.0780
   77MOL   C43837070   0.276   2.555   7.745 -0.0050 -0.2111  0.0220
   77MOL   O43937071   0.143   2.590   7.705  0.0999 -0.1072  0.3764
   77MOL   C44037072   0.110   2.718   7.692 -0.3074  0.7442 -0.6119
   77MOL   O44137073   0.184   2.816   7.676 -0.0367  0.4279 -0.7076
   77MOL   C44237074   7.836   2.737   7.702  0.1224 -1.3038  0.8745
   77MOL   C44337075   7.797   2.702   7.844 -0.1026 -0.4747  0.2399
   77MOL   C44437076   7.684   2.780   0.026  0.9452  0.1844  0.1100
   77MOL   O44537077   7.581   2.721   0.067  0.5316 -0.0068  0.0474
   77MOL   H44637078   0.260   2.468   0.304 -0.2075  0.7602 -0.0484
   77MOL   H44737079   0.124   2.372   0.277  1.5088 -0.0181  0.5509
   77MOL   H44837080   0.086   2.456   0.052  0.7158  1.5988  0.0019
   77MOL   H44937081   0.238   2.361   0.071  1.2039  0.7069  3.0155
   77MOL   H45037082   0.372   2.546   0.068  0.4221 -0.2368  0.7906
   77MOL   H45137083   0.253   2.665   0.064  0.0114 -0.9709  2.5248
   77MOL   H45237084   0.357   2.616   7.705 -0.4090  0.3406  0.0499
   77MOL   H45337085   0.297   2.454   7.708  0.7121 -0.5012  1.1933
   77MOL   H45437086   7.781   2.679   7.627  2.2689  0.0026 -1.8050
   77MOL   H45537087   7.808   2.840   7.680 -1.6567 -1.7782  0.8427
   77MOL   H45637088   7.783   2.594   7.848 -1.7391 -0.2586  1.0399
   77MOL   H45737089   0.010   2.714   0.033 -0.4315  2.2668  0.2291
   77MOL   O45837090   7.702   2.918   0.025 -0.4726  0.1886 -0.3068
   77MOL   C45937091   7.599   3.009   0.061 -0.4133 -1.0617 -0.0009
   77MOL   C46037092   7.568   3.108   7.821 -0.5588  0.2253  0.3759
   77MOL   C46137093   7.459   3.041   7.732 -0.0179  0.5067  0.3247
   77MOL   C46237094   7.390   3.127   7.626  0.6765  0.1128 -0.5537
   77MOL   O46337095   7.301   3.048   7.553 -0.0190 -0.1389  0.7827
   77MOL   C46437096   7.353   2.982   7.435 -0.1488 -1.0511 -0.5583
   77MOL   O46537097   7.465   2.981   7.386 -0.4049  0.2839  0.6043
   77MOL   C46637098   7.246   2.906   7.352  0.3018  0.0470 -0.0679
   77MOL   C46737099   7.293   2.811   7.243 -0.4766  0.1606  0.5253
   77MOL   C46837100   7.262   2.862   7.102 -0.0655  1.0929  0.4834
   77MOL   O46937101   7.183   2.953   7.086  0.0279  0.3219 -0.0231
   77MOL   H47037102   7.505   2.965   0.094 -1.6351  1.3819 -0.1228
   77MOL   H47137103   7.644   3.068   0.142  1.9631  0.4576 -2.3286
   77MOL   H47237104   7.655   3.135   7.762 -1.5039  1.6126 -0.4039
   77MOL   H47337105   7.519   3.195   7.864 -0.2296  0.3739  0.4511
   77MOL   H47437106   7.381   3.019   7.805 -0.8827  1.0905 -0.4147
   77MOL   H47537107   7.498   2.951   7.686 -1.0278  0.8130 -1.1636
   77MOL   H47637108   7.343   3.216   7.666  0.4919  0.4504 -1.5048
   77MOL   H47737109   7.465   3.167   7.557  0.6175  1.4071  0.1281
   77MOL   H47837110   7.171   2.976   7.317  0.5456 -0.4345 -1.6077
   77MOL   H47937111   7.189   2.852   7.427  2.1890 -1.7099  0.1550
   77MOL   H48037112   7.401   2.796   7.253 -0.6109 -2.5019 -1.5719
   77MOL   H48137113   7.239   2.717   7.254  1.8379 -1.6110 -2.3083
   77MOL   H48237114   7.320   2.816   7.022 -1.5125  1.7010 -0.9533
   78MOL     O137115   6.839   7.604   7.170  0.0646 -0.0103  0.4353
   78MOL     C237116   6.881   7.696   7.268  0.5111 -0.2766 -0.1251
   78MOL     C337117   6.782   7.700   7.378  0.0801  0.3125  0.2914
   78MOL     C437118   6.805   7.588   7.485  0.1697 -0.0632  0.2424
   78MOL     C537119   6.679   7.545   7.563  0.6013 -0.0473 -0.2287
   78MOL     O637120   6.716   7.437   7.642 -0.1429 -0.3084 -0.8302
   78MOL     C737121   6.627   7.367   7.710 -0.1385 -0.5117 -0.2943
   78MOL     O837122   6.505   7.362   7.695  0.2157 -0.2395  0.9040
   78MOL     C937123   6.689   7.285   7.820 -0.3647 -0.0593 -0.5195
   78MOL    C1037124   6.708   7.375   0.071 -0.2349 -0.5072 -0.1953
   78MOL    C1137125   6.851   7.417   0.098  0.8688  0.2068 -0.7250
   78MOL    O1237126   6.927   7.333   0.148  0.3411 -0.2801  0.1722
   78MOL    H1337127   6.984   7.687   7.302  0.2357  1.5493  1.2846
   78MOL    H1437128   6.873   7.793   7.218  0.7792 -1.6539 -2.9709
   78MOL    H1537129   6.679   7.690   7.343  0.8434  1.2270 -2.3945
   78MOL    H1637130   6.779   7.796   7.429  0.1081  0.6351 -0.3065
   78MOL    H1737131   6.880   7.619   7.557  0.5544  1.1533 -0.6695
   78MOL    H1837132   6.838   7.496   7.437  1.3210 -0.8824  2.5661
   78MOL    H1937133   6.647   7.631   7.622 -0.9803  0.0731 -1.2424
   78MOL    H2037134   6.600   7.520   7.492 -0.3639  1.2193  0.3661
   78MOL    H2137135   6.785   7.249   7.785  0.7027  0.4778  1.7355
   78MOL    H2237136   6.630   7.197   7.847  1.7903 -1.0326  1.1215
   78MOL    H2337137   6.651   7.468   0.063  0.4801  0.1127  1.6521
   78MOL    H2437138   6.671   7.321   0.158  0.3260 -1.9310 -0.8304
   78MOL    H2537139   6.882   7.629   7.090  0.7196  1.0652  1.1119
   78MOL    O2637140   6.879   7.540   0.061  0.4152 -0.0420  0.3795
   78MOL    C2737141   7.005   7.587   0.096  0.2238 -0.2046 -0.4502
   78MOL    C2837142   7.071   7.626   7.840 -0.4280 -0.2943 -0.0983
   78MOL    C2937143   7.150   7.512   7.771 -0.4302 -0.0522  0.4157
   78MOL    C3037144   7.184   7.526   7.625 -0.2052 -0.0195  0.1286
   78MOL    O3137145   7.269   7.639   7.610  0.1545 -0.2284  0.3654
   78MOL    C3237146   7.315   7.670   7.489 -0.1682  0.7526 -0.5286
   78MOL    O3337147   7.293   7.609   7.385  0.1030  0.1511 -0.6379
   78MOL    C3437148   7.399   7.796   7.494  0.1908  0.1957 -0.1068
   78MOL    C3537149   7.315   0.036   7.563  0.3276  0.3608  0.1727
   78MOL    C3637150   7.374   0.178   7.539  0.3311 -0.1558  0.2106
   78MOL    O3737151   7.495   0.185   7.508  0.1548 -1.0224 -0.4911
   78MOL    H3837152   6.994   7.675   0.160  1.3894  0.6921 -1.4650
   78MOL    H3937153   7.079   7.525   0.147  1.7900 -1.1566 -3.7340
   78MOL    H4037154   7.133   7.715   7.854  1.3451 -1.8404  2.2235
   78MOL    H4137155   6.994   7.657   7.769  0.6171  1.3740 -0.5366
   78MOL    H4237156   7.088   7.423   7.772 -1.0691  0.3873  0.1995
   78MOL    H4337157   7.237   7.494   7.834  0.4050  0.0890 -0.6840
   78MOL    H4437158   7.226   7.431   7.592  0.1088 -0.7183  2.4646
   78MOL    H4537159   7.093   7.536   7.565  0.7601  1.4368 -1.1380
   78MOL    H4637160   7.417   7.826   7.391  0.8674  0.6373  0.1384
   78MOL    H4737161   7.493   7.774   7.544  0.1500 -0.9529 -0.5386
   78MOL    H4837162   7.215   0.031   7.520  1.3572  0.6801 -2.3306
   78MOL    H4937163   7.314   0.015   7.670 -0.9400 -1.4671 -0.1791
   78MOL    O5037164   7.278   0.268   7.549  0.4824 -0.0490  0.0124
   78MOL    C5137165   7.304   0.406   7.550  0.4033 -0.0021 -0.1118
   78MOL    C5237166   7.299   0.463   7.408 -0.1972  0.2352 -0.3956
   78MOL    C5337167   7.327   0.617   7.409  0.5412  0.5969 -0.3748
   78MOL    C5437168   7.329   0.674   7.267  0.6240  0.0989 -0.1542
   78MOL    O5537169   7.359   0.814   7.275 -0.2008 -1.1611 -0.2527
   78MOL    C5637170   7.375   0.878   7.160  0.5985 -0.7111 -0.3390
   78MOL    O5737171   7.378   0.824   7.055  0.0826  0.2331  0.5426
   78MOL    C5837172   7.395   1.033   7.183  0.4626  0.2078  0.2405
   78MOL    C5937173   7.536   1.077   7.203  0.0434  0.1177 -0.4959
   78MOL    C6037174   7.608   1.003   7.321 -0.5195  0.2137 -0.0412
   78MOL    O6137175   7.702   0.924   7.303 -0.2401  0.2547 -0.4391
   78MOL    H6237176   7.229   0.452   7.614  0.8053 -0.3697  0.6306
   78MOL    H6337177   7.391   0.439   7.607  0.4190 -0.5656  0.1890
   78MOL    H6437178   7.199   0.441   7.371  0.4508 -1.7907 -1.0353
   78MOL    H6537179   7.379   0.419   7.348 -1.5913 -3.7226  0.4797
   78MOL    H6637180   7.421   0.642   7.458  0.4376 -0.2726  0.2890
   78MOL    H6737181   7.250   0.675   7.459 -1.6763 -0.7970 -2.0833
   78MOL    H6837182   7.402   0.621   7.207  0.8317  1.1154 -0.8065
   78MOL    H6937183   7.226   0.663   7.232  0.0817  1.9484  0.7945
   78MOL    H7037184   7.331   1.057   7.268 -1.3423  0.0182 -1.0227
   78MOL    H7137185   7.358   1.079   7.091 -0.4264 -0.0355  0.4699
   78MOL    H7237186   7.603   1.058   7.119  0.8174 -1.4946  0.4658
   78MOL    H7337187   7.543   1.185   7.219  0.1365  0.0543 -0.1078
   78MOL    O7437188   7.562   1.039   7.439  0.3075  0.1239 -0.7491
   78MOL    C7537189   7.619   0.985   7.561  0.1838 -0.4292 -0.1725
   78MOL    C7637190   7.534   1.019   7.676 -1.3901  0.4513  0.1905
   78MOL    C7737191   7.590   0.957   7.809 -0.1502 -0.3128  0.1428
   78MOL    C7837192   7.523   1.004   0.064 -0.0123 -0.1192 -0.1085
   78MOL    O7937193   7.590   0.941   0.165 -0.3126 -0.3757 -0.0487
   78MOL    C8037194   7.534   0.849   0.244 -0.4011 -0.0673  0.5184
   78MOL    O8137195   7.415   0.818   0.235  0.6888  0.4319  0.0120
   78MOL    C8237196   7.633   0.781   0.341  0.1270  0.0915  0.1955
   78MOL    C8337197   7.575   0.701   0.458 -0.0043 -0.6303 -0.7745
   78MOL    C8437198   7.654   0.566   0.486  0.3533 -0.1039  0.0185
   78MOL    O8537199   7.614   0.463   0.433  0.1673 -0.5384  0.6519
   78MOL    H8637200   7.626   0.877   7.560 -4.4796 -0.8345 -1.6228
   78MOL    H8737201   7.715   1.035   7.573 -0.4240  1.5753 -3.0382
   78MOL    H8837202   7.432   0.983   7.662 -0.3139 -1.3551 -3.9000
   78MOL    H8937203   7.526   1.127   7.672  1.4497  0.6514 -1.5543
   78MOL    H9037204   7.696   0.981   7.808  0.7657 -3.9782 -0.3330
   78MOL    H9137205   7.581   0.849   7.795 -0.5239 -0.0438 -1.7508
   78MOL    H9237206   7.550   1.109   0.067 -1.0199  0.2169 -1.8352
   78MOL    H9337207   7.414   0.996   0.068  0.0303 -0.4060  0.4306
   78MOL    H9437208   7.702   0.860   0.371  0.5272 -0.3626  0.4802
   78MOL    H9537209   7.699   0.727   0.273  1.0246  0.6240  0.6291
   78MOL    H9637210   7.589   0.763   0.546  0.2704 -0.9144 -0.6147
   78MOL    H9737211   7.469   0.681   0.446 -0.1709 -0.1569 -0.0885
   78MOL    O9837212   7.759   0.576   0.587 -0.1785 -0.6931 -0.0198
   78MOL    C9937213   7.815   0.457   0.633 -0.1600 -0.1762 -0.3891
   78MOL   C10037214   0.092   0.487   0.638 -0.6334  0.6371  0.2478
   78MOL   C10137215   0.162   0.528   0.500 -0.1095  0.2414  0.1480
   78MOL   C10237216   0.316   0.547   0.519 -1.0694  0.0493  0.4245
   78MOL   O10337217   0.368   0.429   0.571 -0.0853  0.4578 -0.7176
   78MOL   C10437218   0.491   0.438   0.622 -0.5267 -0.3675 -0.0105
   78MOL   O10537219   0.557   0.541   0.633  0.1228 -0.1680  0.1042
   78MOL   C10637220   0.551   0.302   0.654  0.0705  0.0194 -0.3395
   78MOL   C10737221   0.527   0.263   0.803 -0.7700  1.0255 -0.3523
   78MOL   C10837222   0.648   0.281   0.897 -0.2694 -0.8177  0.1490
   78MOL   O10937223   0.765   0.274   0.860 -0.3121 -0.7483  0.2472
   78MOL   H11037224   7.780   0.421   0.730  1.1972  1.1629  0.6310
   78MOL   H11137225   7.809   0.373   0.565  2.3210 -0.5343 -0.2204
   78MOL   H11237226   0.140   0.403   0.688 -0.5767 -0.2594 -1.2767
   78MOL   H11337227   0.109   0.570   0.707  3.0939  1.2725 -1.3191
   78MOL   H11437228   0.114   0.618   0.460  0.1656  0.3342  0.0245
   78MOL   H11537229   0.152   0.446   0.429  1.1651  0.4958 -0.3490
   78MOL   H11637230   0.374   0.574   0.431  2.8122 -2.6523  2.0011
   78MOL   H11737231   0.335   0.622   0.596 -0.3140  0.7280 -0.4142
   78MOL   H11837232   0.654   0.292   0.621  0.4194 -2.6896  1.4066
   78MOL   H11937233   0.502   0.226   0.593  1.2269 -1.9211  1.1050
   78MOL   H12037234   0.439   0.315   0.841 -0.6402 -0.5588  2.2377
   78MOL   H12137235   0.502   0.157   0.801 -1.0342  1.0949 -0.7230
   78MOL   O12237236   0.617   0.318   1.016 -0.1687 -0.3968 -0.1500
   78MOL   C12337237   0.714   0.327   1.119  0.3235 -0.2584 -0.6078
   78MOL   C12437238   0.673   0.432   1.225  0.1988 -0.3794  0.0659
   78MOL   C12537239   0.753   0.425   1.353 -0.0177  0.1824 -0.1931
   78MOL   C12637240   0.706   0.515   1.468 -0.4521  0.3207  0.7032
   78MOL   O12737241   0.730   0.656   1.447  0.4511  0.0106  0.1754
   78MOL   C12837242   0.642   0.739   1.405  1.2284 -0.3513 -0.6658
   78MOL   O12937243   0.545   0.702   1.351 -0.5131 -0.1393  0.4050
   78MOL   C13037244   0.673   0.886   1.429 -0.3398  0.2151 -0.4161
   78MOL   C13137245   0.623   0.937   1.566 -0.3015 -0.0106  0.5377
   78MOL   C13237246   0.739   0.955   1.654 -0.7306  0.6005 -0.6728
   78MOL   O13337247   0.818   0.860   1.685  0.9578 -0.0411 -0.1144
   78MOL   H13437248   0.714   0.225   1.158  0.1516  0.1352  0.4374
   78MOL   H13537249   0.817   0.332   1.084  0.5079  2.0806  0.2357
   78MOL   H13637250   0.570   0.406   1.247  0.2390 -0.4494  0.1721
   78MOL   H13737251   0.684   0.534   1.187 -0.7122 -0.1874  0.3183
   78MOL   H13837252   0.858   0.437   1.325  0.1345 -0.4254  0.1120
   78MOL   H13937253   0.745   0.322   1.388 -0.6867 -0.2615 -1.5858
   78MOL   H14037254   0.599   0.501   1.482 -0.6735  0.5943 -0.6068
   78MOL   H14137255   0.751   0.475   1.558 -1.0242 -3.5426 -0.6450
   78MOL   H14237256   0.621   0.948   1.356 -1.7800 -1.2109 -0.6507
   78MOL   H14337257   0.780   0.889   1.407 -0.4346 -0.8038 -1.0591
   78MOL   H14437258   0.581   1.037   1.553  0.5879  0.5485  1.8187
   78MOL   H14537259   0.552   0.862   1.603  1.2382 -2.9577 -2.2521
   78MOL   O14637260   0.757   1.082   1.691  0.2542 -0.6425 -0.2037
   78MOL   C14737261   0.881   1.126   1.749 -0.9318  0.7484 -0.4096
   78MOL   C14837262   0.837   1.234   1.843 -0.4217  0.1915 -0.6992
   78MOL   C14937263   0.768   1.358   1.777 -0.4248 -0.1556  0.5505
   78MOL   C15037264   0.768   1.490   1.849 -0.1269  0.0105  0.0836
   78MOL   O15137265   0.660   1.494   1.933  0.1662 -0.0058 -0.0250
   78MOL   C15237266   0.661   1.454   2.064 -0.4424  0.4298 -0.2078
   78MOL   O15337267   0.762   1.437   2.133 -0.2554 -0.0635 -0.1144
   78MOL   C15437268   0.519   1.434   2.119  0.4483  0.4869  0.2329
   78MOL   C15537269   0.457   1.304   2.054  0.3472  0.2846 -0.3973
   78MOL   C15637270   0.351   1.322   1.946 -1.3533  0.6862  0.2516
   78MOL   O15737271   0.242   1.376   1.960 -0.3533  0.0776  0.7998
   78MOL   H15837272   0.921   1.044   1.808  0.3225  0.4270 -1.6912
   78MOL   H15937273   0.952   1.161   1.675  0.0443  0.3872  0.3489
   78MOL   H16037274   0.930   1.266   1.891 -1.0035  0.6204  0.1409
   78MOL   H16137275   0.783   1.193   1.928 -0.4730 -0.4255 -1.0254
   78MOL   H16237276   0.668   1.332   1.742 -0.1547  0.7859 -0.9747
   78MOL   H16337277   0.820   1.366   1.681  0.4827 -0.6045  0.9927
   78MOL   H16437278   0.856   1.531   1.897  0.9598 -1.0420 -0.9899
   78MOL   H16537279   0.737   1.565   1.776  2.8080  1.6679  0.4954
   78MOL   H16637280   0.463   1.524   2.093  1.8014  1.3095  0.0883
   78MOL   H16737281   0.530   1.436   2.227  0.9998  3.4579  0.1661
   78MOL   H16837282   0.537   1.234   2.030  0.5376  0.3949 -0.0746
   78MOL   H16937283   0.401   1.261   2.138 -2.2374  0.8899 -1.7536
   78MOL   O17037284   0.384   1.279   1.820  0.6063  0.4445  0.0497
   78MOL   C17137285   0.296   1.285   1.703  0.0567 -0.1192  0.8283
   78MOL   C17237286   0.295   1.426   1.645 -0.4838  0.1420 -0.2897
   78MOL   C17337287   0.397   1.457   1.545 -0.6734  0.2425  0.1831
   78MOL   C17437288   0.417   1.607   1.520  0.1464  0.0177  0.3935
   78MOL   O17537289   0.306   1.660   1.446 -0.2729 -0.1319 -0.8740
   78MOL   C17637290   0.315   1.677   1.314  1.0858 -0.1384  0.1681
   78MOL   O17737291   0.415   1.649   1.248 -0.3376 -0.0167 -0.0032
   78MOL   C17837292   0.186   1.737   1.252 -0.4798  0.0380 -0.0415
   78MOL   C17937293   0.163   1.715   1.101 -0.5059 -0.3926 -0.4421
   78MOL   C18037294   0.105   1.838   1.038 -0.4256 -0.0241 -0.4390
   78MOL   O18137295   0.170   1.902   0.954  0.6547 -0.1065  0.1237
   78MOL   H18237296   0.330   1.209   1.632  0.3878  0.7084  0.1018
   78MOL   H18337297   0.195   1.264   1.740 -0.8674 -1.5454 -2.3154
   78MOL   H18437298   0.306   1.497   1.727  0.6221  0.8092 -1.0196
   78MOL   H18537299   0.200   1.438   1.592  0.2288 -1.2374 -1.9165
   78MOL   H18637300   0.376   1.411   1.448  0.0435  2.6157 -1.1607
   78MOL   H18737301   0.495   1.422   1.577 -0.6389 -0.7121 -0.9140
   78MOL   H18837302   0.440   1.652   1.617 -2.8811  1.4086  0.5095
   78MOL   H18937303   0.507   1.606   1.458  0.1269  0.8144  0.3483
   78MOL   H19037304   0.200   1.842   1.275  0.1164 -0.0760  0.1281
   78MOL   H19137305   0.105   1.709   1.319 -0.5623  1.2347  0.3660
   78MOL   H19237306   0.253   1.689   1.046 -0.2493  0.7287 -0.5525
   78MOL   H19337307   0.101   1.626   1.089 -0.1944 -0.6992  0.1641
   78MOL   O19437308   7.847   1.867   1.085  0.1131  0.3078 -0.6402
   78MOL   C19537309   7.771   1.969   1.025  0.1248 -1.0331 -0.4430
   78MOL   C19637310   7.762   2.100   1.105 -0.2362  0.7139  0.0000
   78MOL   C19737311   0.016   2.180   1.107  0.2702  0.4204 -0.6898
   78MOL   C19837312   0.001   2.319   1.178 -0.3457  0.2853  0.4346
   78MOL   O19937313   7.767   2.398   1.125  0.3071 -0.1582  0.5118
   78MOL   C20037314   7.789   2.476   1.021  0.4300 -0.3764 -0.0671
   78MOL   O20137315   0.026   2.480   0.961  0.1258  0.2173  0.0956
   78MOL   C20237316   7.665   2.550   0.967  0.0825 -1.3014  0.3513
   78MOL   C20337317   7.594   2.635   1.073  0.0204  0.2583 -0.8712
   78MOL   C20437318   7.567   2.777   1.033  0.5909  0.5236  0.1783
   78MOL   O20537319   7.660   2.857   1.018  0.8128  0.5583 -0.5503
   78MOL   H20637320   7.806   1.982   0.922 -0.7558  1.6967 -0.4331
   78MOL   H20737321   7.666   1.939   1.027  0.7243 -3.4367 -1.7864
   78MOL   H20837322   7.735   2.084   1.209 -1.1435  1.2957 -0.1317
   78MOL   H20937323   7.679   2.156   1.061 -0.4047  1.3269  1.0688
   78MOL   H21037324   0.054   2.187   1.005  0.4633 -2.7828 -0.8798
   78MOL   H21137325   0.092   2.118   1.154 -0.3799 -0.5313 -0.8871
   78MOL   H21237326   7.844   2.304   1.282  2.3347  1.4209  1.4575
   78MOL   H21337327   0.092   2.377   1.194 -0.8005  1.8038 -2.1700
   78MOL   H21437328   7.604   2.478   0.913  1.7882 -0.9226 -2.1468
   78MOL   H21537329   7.716   2.612   0.892  3.8865 -1.5782  2.5704
   78MOL   H21637330   7.499   2.590   1.101  0.0210  1.5470  1.3010
   78MOL   H21737331   7.660   2.626   1.159 -1.7852  2.6752  0.8205
   78MOL   O21837332   7.439   2.796   0.990 -0.1611 -0.5865 -0.5469
   78MOL   C21937333   7.403   2.916   0.928 -0.2727  0.2247  0.1253
   78MOL   C22037334   7.254   2.945   0.965 -0.2410  0.3676 -0.5942
   78MOL   C22137335   7.147   2.848   0.907 -0.1743  0.9301 -0.1224
   78MOL   C22237336   7.133   2.854   0.756  0.0657 -0.8251 -0.8034
   78MOL   O22337337   7.232   2.795   0.673 -0.7025 -0.2136  0.3048
   78MOL   C22437338   7.219   2.675   0.625  0.6902  0.3092 -0.0110
   78MOL   O22537339   7.118   2.605   0.623 -0.0272  0.0001 -0.3103
   78MOL   C22637340   7.346   2.607   0.565  0.6275 -0.0499 -0.4876
   78MOL   C22737341   7.465   2.596   0.658 -0.6809 -0.4057 -0.4957
   78MOL   C22837342   7.573   2.503   0.599  0.3055  0.8124 -0.1335
   78MOL   O22937343   7.547   2.429   0.500 -0.0432 -0.1651  0.4995
   78MOL   H23037344   7.453   3.005   0.966 -0.1672  0.1809  0.0908
   78MOL   H23137345   7.405   2.919   0.819  0.8616 -1.4198  0.0892
   78MOL   H23237346   7.227   3.041   0.922 -0.0541  1.8231  2.4202
   78MOL   H23337347   7.245   2.958   1.073  1.0225 -0.4859 -0.3726
   78MOL   H23437348   7.048   2.878   0.942 -0.7273 -2.1988  1.2233
   78MOL   H23537349   7.161   2.743   0.936  2.0483  1.8363  2.3418
   78MOL   H23637350   7.040   2.800   0.740  0.0840 -1.0090 -0.3193
   78MOL   H23737351   7.109   2.957   0.729  3.5019  0.1369 -0.4656
   78MOL   H23837352   7.369   2.671   0.479  0.5598  1.4889  0.6294
   78MOL   H23937353   7.312   2.512   0.524 -1.6096 -0.3700  1.9915
   78MOL   H24037354   7.503   2.698   0.662  0.4719 -0.6901 -2.9556
   78MOL   H24137355   7.436   2.551   0.753 -1.7302 -0.3923 -0.8073
   78MOL   O24237356   7.682   2.502   0.663 -0.2885 -0.6342  0.3109
   78MOL   C24337357   7.802   2.437   0.616 -0.4004  0.6516 -0.8744
   78MOL   C24437358   7.818   2.297   0.669 -0.3179  0.0448  0.5203
   78MOL   C24537359   0.073   2.232   0.614 -0.2677  0.6371  0.8257
   78MOL   C24637360   0.112   2.097   0.675  0.5737 -0.0659 -0.7613
   78MOL   O24737361   0.021   1.992   0.645  0.3568 -0.2661  0.2450
   78MOL   C24837362   0.055   1.869   0.607 -0.7493 -0.2978 -0.7505
   78MOL   O24937363   0.169   1.820   0.601  0.1872  0.0508  0.1577
   78MOL   C25037364   7.808   1.782   0.576  0.4324 -0.3146  0.2848
   78MOL   C25137365   7.807   1.659   0.662  0.4624  0.3039  0.1340
   78MOL   C25237366   7.680   1.584   0.641  0.1384 -0.4652  0.0040
   78MOL   O25337367   7.580   1.613   0.706 -0.5978 -0.5984 -0.0760
   78MOL   H25437368   7.790   2.443   0.508  0.1874 -1.0465 -1.0515
   78MOL   H25537369   0.014   2.499   0.637  0.1870  0.2581 -2.0519
   78MOL   H25637370   7.732   2.234   0.644  0.8804 -1.2015 -0.5736
   78MOL   H25737371   7.830   2.310   0.776  1.2753  0.2684  0.3260
   78MOL   H25837372   0.151   2.298   0.651  0.4540  0.3288 -0.1425
   78MOL   H25937373   0.087   2.240   0.506  1.4477 -2.2679  0.8045
   78MOL   H26037374   0.211   2.064   0.642  0.8173 -0.0071 -0.0969
   78MOL   H26137375   0.116   2.103   0.784 -1.1278  0.6755 -0.7332
   78MOL   H26237376   7.811   1.769   0.468  0.6651  4.9345 -0.4602
   78MOL   H26337377   7.720   1.839   0.606  1.2280  0.5070  1.1319
   78MOL   H26437378   0.025   1.604   0.644  0.8815  0.9471  0.2973
   78MOL   H26537379   7.815   1.699   0.763 -2.5753  0.5818  0.2962
   78MOL   O26637380   7.694   1.484   0.554  0.2959 -0.3332  0.1218
   78MOL   C26737381   7.602   1.370   0.559 -0.1784 -0.2969  0.1850
   78MOL   C26837382   7.676   1.240   0.590 -0.0397 -0.0104  0.2478
   78MOL   C26937383   7.585   1.125   0.592 -0.0457  0.1832  0.1557
   78MOL   C27037384   7.502   1.112   0.715  0.8903  0.0369  0.1939
   78MOL   O27137385   7.436   0.987   0.711  0.3924  0.2853 -0.1742
   78MOL   C27237386   7.423   0.923   0.826 -1.1860  0.1166  0.2137
   78MOL   O27337387   7.447   0.958   0.944 -0.3944 -0.4601  0.2578
   78MOL   C27437388   7.376   0.777   0.804 -0.2731 -0.3391 -0.3102
   78MOL   C27537389   7.223   0.761   0.824 -0.5631 -0.8245 -0.2105
   78MOL   C27637390   7.152   0.799   0.699 -0.2794  0.6135  1.0196
   78MOL   O27737391   7.111   0.914   0.693 -0.1943  0.0539  0.4830
   78MOL   H27837392   7.527   1.385   0.637 -2.0133 -1.1289 -1.3682
   78MOL   H27937393   7.546   1.358   0.466 -0.7626 -1.2296  0.6509
   78MOL   H28037394   7.752   1.249   0.669  1.4310  0.6813 -1.2188
   78MOL   H28137395   7.739   1.230   0.502  0.7570 -0.0354  0.8117
   78MOL   H28237396   7.629   1.026   0.579 -1.5402 -0.6265  1.1604
   78MOL   H28337397   7.513   1.134   0.511 -0.3584  0.7827  0.5004
   78MOL   H28437398   7.569   1.108   0.800  1.0899  1.2631  0.1080
   78MOL   H28537399   7.426   1.189   0.733  0.7460  0.5988 -2.6199
   78MOL   H28637400   7.417   0.718   0.886 -0.2426  0.3981  0.2127
   78MOL   H28737401   7.416   0.734   0.712 -1.5648  1.5680 -1.8069
   78MOL   H28837402   7.204   0.658   0.855  1.4148 -1.1711 -0.0660
   78MOL   H28937403   7.182   0.836   0.892  1.3625  1.0976 -1.1048
   78MOL   O29037404   7.146   0.706   0.602  0.1049 -0.5151 -0.1005
   78MOL   C29137405   7.098   0.740   0.474  0.7075  0.2473  0.2730
   78MOL   C29237406   6.945   0.701   0.455  0.2202 -0.4047 -0.3187
   78MOL   C29337407   6.856   0.780   0.356 -0.5462 -0.1815  0.1739
   78MOL   C29437408   6.736   0.694   0.310 -0.1995  0.0555  0.6244
   78MOL   O29537409   6.658   0.655   0.418  0.7544  0.0620  0.5263
   78MOL   C29637410   6.657   0.530   0.472 -0.5253  0.1945  0.3817
   78MOL   O29737411   6.730   0.433   0.431 -1.2450  0.3172  0.4298
   78MOL   C29837412   6.564   0.512   0.593 -0.0663  0.0857 -0.2412
   78MOL   C29937413   6.604   0.384   0.675 -1.1067 -0.6005  0.3667
   78MOL   C30037414   6.724   0.393   0.764 -0.2444 -0.1984 -0.3833
   78MOL   O30137415   6.756   0.501   0.808 -0.4611 -0.1084  0.6879
   78MOL   H30237416   7.102   0.843   0.438 -1.7760  0.8316  1.5498
   78MOL   H30337417   7.147   0.681   0.396  0.2641 -1.2676  1.1074
   78MOL   H30437418   6.904   0.724   0.554 -0.2962 -0.4155 -0.5287
   78MOL   H30537419   6.947   0.595   0.433  0.9546 -0.2960 -0.7635
   78MOL   H30637420   6.921   0.828   0.283 -1.7173 -1.3645 -1.6759
   78MOL   H30737421   6.808   0.866   0.403 -0.7699 -0.4446  0.4271
   78MOL   H30837422   6.668   0.741   0.239 -0.2135  3.8477  3.0152
   78MOL   H30937423   6.779   0.607   0.261 -2.7422 -1.8073  1.5645
   78MOL   H31037424   6.465   0.490   0.554  0.3214  0.0098 -1.2033
   78MOL   H31137425   6.545   0.605   0.645 -1.1707  0.0898 -0.6347
   78MOL   H31237426   6.519   0.365   0.740  0.0893 -0.3606  2.0404
   78MOL   H31337427   6.605   0.299   0.607  1.2481  0.5204 -1.0550
   78MOL   O31437428   6.789   0.276   0.774 -0.3180  0.0676  0.1147
   78MOL   C31537429   6.916   0.278   0.837  0.6866 -0.1477  0.1868
   78MOL   C31637430   7.027   0.259   0.735 -0.4617  0.5947  0.4994
   78MOL   C31737431   7.041   0.380   0.648  0.0596  0.1902 -0.3237
   78MOL   C31837432   7.126   0.367   0.517 -0.9987  0.2831 -0.4964
   78MOL   O31937433   7.253   0.304   0.558 -0.1550  0.4817 -0.4444
   78MOL   C32037434   7.351   0.377   0.614  0.3747 -0.3784 -0.0021
   78MOL   O32137435   7.349   0.498   0.627  0.3718  0.9186  0.1142
   78MOL   C32237436   7.468   0.291   0.654 -0.3435 -0.3806 -0.0063
   78MOL   C32337437   7.438   0.174   0.753  0.0046 -0.4416  1.1305
   78MOL   C32437438   7.433   0.215   0.900 -0.5386  0.5748  0.2374
   78MOL   O32537439   7.349   0.175   0.981 -0.3247  0.3333 -0.0102
   78MOL   H32637440   6.941   0.364   0.900 -0.2623 -0.1182  0.5274
   78MOL   H32737441   6.905   0.205   0.917 -0.4391 -0.5384 -0.3136
   78MOL   H32837442   7.014   0.163   0.686 -0.8475  0.5738  0.6406
   78MOL   H32937443   7.112   0.257   0.803 -0.7639 -2.0113  0.8219
   78MOL   H33037444   7.062   0.464   0.714  3.0111 -1.1706  0.5669
   78MOL   H33137445   6.947   0.399   0.597 -0.7271  3.2997  2.1752
   78MOL   H33237446   7.075   0.311   0.439 -0.7320  0.3146 -0.6926
   78MOL   H33337447   7.128   0.459   0.460  0.4925 -0.4688 -1.6948
   78MOL   H33437448   7.559   0.349   0.672 -0.4898 -0.2144  0.1974
   78MOL   H33537449   7.497   0.235   0.565 -0.9410 -0.2170 -0.3117
   78MOL   H33637450   7.339   0.140   0.725 -0.5694  0.5182  1.9769
   78MOL   H33737451   7.502   0.086   0.739  1.2817  0.3962  1.6009
   78MOL   O33837452   7.528   0.306   0.932  0.0817  0.3949  0.3615
   78MOL   C33937453   7.529   0.358   1.061 -0.0534 -0.2930  0.5755
   78MOL   C34037454   7.661   0.432   1.076  0.1593 -0.2896  0.6339
   78MOL   C34137455   7.660   0.550   0.976  0.2184  0.0978  0.8537
   78MOL   C34237456   7.784   0.639   0.986 -0.0894  0.6604 -0.1596
   78MOL   O34337457   7.777   0.744   0.890 -0.0115 -0.8307  0.1772
   78MOL   C34437458   7.841   0.862   0.919  0.1745  0.2539  0.1139
   78MOL   O34537459   0.002   0.902   1.027  0.8629  0.4912 -0.3655
   78MOL   C34637460   7.868   0.951   0.805  0.3884 -0.7394  0.6119
   78MOL   C34737461   0.094   0.892   0.712 -0.9365  0.0641  0.2514
   78MOL   C34837462   0.088   0.938   0.569 -0.6851 -0.0470 -0.9393
   78MOL   O34937463   7.864   0.992   0.519  0.1488  0.1509 -0.1866
   78MOL   H35037464   7.441   0.420   1.073  0.9881  1.0767  1.1824
   78MOL   H35137465   7.536   0.275   1.132 -3.9041 -0.4699  0.8768
   78MOL   H35237466   7.743   0.364   1.054  0.5340  0.3787 -0.0459
   78MOL   H35337467   7.672   0.471   1.177 -0.0499  0.2204  0.4606
   78MOL   H35437468   7.572   0.611   0.996 -0.3706 -0.6965  0.6937
   78MOL   H35537469   7.647   0.502   0.879 -2.7565  1.6065  0.4583
   78MOL   H35637470   7.785   0.666   1.091 -0.1142 -1.2587  0.3426
   78MOL   H35737471   7.868   0.572   0.968 -0.6273 -0.3665  1.0786
   78MOL   H35837472   0.030   1.047   0.841  1.4372 -0.9672  0.1584
   78MOL   H35937473   7.779   0.959   0.743 -0.2676 -0.2866  1.6110
   78MOL   H36037474   0.198   0.903   0.745 -1.1560 -2.1416  1.8473
   78MOL   H36137475   0.083   0.783   0.711 -1.8037  0.1519  0.2770
   78MOL   O36237476   0.202   0.909   0.508 -0.0972  0.0584 -0.3486
   78MOL   C36337477   0.223   0.940   0.373  0.4335  0.2380 -0.9013
   78MOL   C36437478   0.359   0.890   0.327  0.1246 -0.3758 -0.0524
   78MOL   C36537479   0.478   0.942   0.419  0.3336 -0.6343  0.2585
   78MOL   C36637480   0.615   0.906   0.360  0.4568  0.1702  0.0452
   78MOL   O36737481   0.633   0.766   0.350  0.0942 -0.0194  0.1103
   78MOL   C36837482   0.621   0.694   0.241  0.2749 -0.6617 -0.1682
   78MOL   O36937483   0.596   0.735   0.129  0.3894  0.0077 -0.0968
   78MOL   C37037484   0.649   0.544   0.279  0.4270 -0.5343  0.0848
   78MOL   C37137485   0.591   0.454   0.174 -0.7125  0.1003 -0.2572
   78MOL   C37237486   0.505   0.339   0.220  0.6984 -0.0803  0.0660
   78MOL   O37337487   0.488   0.306   0.338 -0.2520 -0.0884 -0.1320
   78MOL   H37437488   0.143   0.883   0.326 -1.9404  2.8018 -0.1301
   78MOL   H37537489   0.206   1.046   0.354 -0.6178  0.2982  0.2383
   78MOL   H37637490   0.367   0.920   0.222 -2.3119  0.7553  0.0458
   78MOL   H37737491   0.362   0.782   0.318 -0.8743 -0.5508  1.5169
   78MOL   H37837492   0.457   0.901   0.518 -0.0635  0.9639  0.8462
   78MOL   H37937493   0.478   1.050   0.435  0.5343 -0.6629  0.4513
   78MOL   H38037494   0.620   0.945   0.258  1.1022 -1.5321 -0.5874
   78MOL   H38137495   0.689   0.951   0.426  1.7155  1.7454 -2.3677
   78MOL   H38237496   0.615   0.530   0.381  1.6199 -0.3003  0.5155
   78MOL   H38337497   0.758   0.537   0.274  0.2821 -2.4121 -1.3161
   78MOL   H38437498   0.523   0.516   0.117 -0.3513  0.8191  0.0883
   78MOL   H38537499   0.664   0.420   0.101 -0.2861  0.8095 -0.1606
   78MOL   O38637500   0.440   0.280   0.122 -0.5196  0.0674 -0.3625
   78MOL   C38737501   0.352   0.175   0.151  0.0772 -0.2763 -0.6534
   78MOL   C38837502   0.210   0.233   0.181 -0.0781  0.1061  0.6658
   78MOL   C38937503   0.100   0.142   0.233  0.4504  0.3735  0.2182
   78MOL   C39037504   7.860   0.214   0.297 -0.0599  0.4483  0.6815
   78MOL   O39137505   7.751   0.124   0.312  0.2799  0.5385  0.3781
   78MOL   C39237506   7.698   0.101   0.435 -0.2242  0.1298 -0.4811
   78MOL   O39337507   7.719   0.163   0.537  0.1448  0.4227 -0.5848
   78MOL   C39437508   7.596   7.868   0.439  0.5657 -0.3620  0.1528
   78MOL   C39537509   7.615   7.784   0.568 -0.2443 -0.4449  0.1959
   78MOL   C39637510   7.685   7.658   0.531 -0.0633 -0.5294  0.4547
   78MOL   O39737511   7.625   7.555   0.504 -0.1863 -0.3659 -0.2634
   78MOL   H39837512   0.328   0.121   0.059 -0.8472 -2.6275  0.8988
   78MOL   H39937513   0.396   0.103   0.220 -0.1684 -0.6471 -0.8785
   78MOL   H40037514   0.174   0.291   0.095  1.2332 -0.1598 -0.0751
   78MOL   H40137515   0.230   0.315   0.250  3.6565  1.1478 -1.5095
   78MOL   H40237516   0.129   0.068   0.308 -1.3543 -0.9457 -0.3584
   78MOL   H40337517   0.071   0.090   0.141  0.2476 -2.1719  1.6770
   78MOL   H40437518   0.013   0.274   0.383 -1.2722 -0.4215  1.7019
   78MOL   H40537519   7.826   0.291   0.227 -1.0620 -2.1282 -1.7916
   78MOL   H40637520   7.586   7.807   0.349  2.9291 -0.9188  0.2483
   78MOL   H40737521   7.506   0.052   0.455  2.1435  2.1212  0.0832
   78MOL   H40837522   7.651   7.844   0.652  0.5255 -0.1360 -0.3490
   78MOL   H40937523   7.521   7.745   0.608  0.2093 -1.6034  0.1472
   78MOL   O41037524   7.820   7.664   0.531 -0.2795 -0.2602  0.1251
   78MOL   C41137525   0.019   7.546   0.490 -0.1613  0.7337 -0.1260
   78MOL   C41237526   0.020   7.527   0.339  0.1381  0.1868 -0.1916
   78MOL   C41337527   0.086   7.642   0.269 -0.2276  0.1947 -0.3851
   78MOL   C41437528   0.093   7.616   0.119  0.4253 -0.1831 -0.2377
   78MOL   O41537529   0.176   7.509   0.087  0.4926 -0.7782  0.1485
   78MOL   C41637530   0.304   7.511   0.058  0.1439  0.2143  0.3126
   78MOL   O41737531   0.369   7.616   0.049 -0.8124 -0.2604 -0.1830
   78MOL   C41837532   0.354   7.370   0.029 -0.3999 -0.3447  0.2554
   78MOL   C41937533   0.359   7.298   0.161 -0.2103  0.6290  0.1155
   78MOL   C42037534   0.457   7.181   0.159  0.0404 -0.1507  0.2615
   78MOL   O42137535   0.566   7.191   0.105 -0.3746 -0.2587 -0.4892
   78MOL   H42237536   0.121   7.564   0.524  0.1204  0.2761 -0.7187
   78MOL   H42337537   7.874   7.452   0.540 -0.6026  1.1480  0.4965
   78MOL   H42437538   7.790   7.523   0.309 -0.1785 -1.3731  1.0578
   78MOL   H42537539   0.057   7.431   0.304 -1.1265 -0.1974 -0.4640
   78MOL   H42637540   0.188   7.655   0.303  0.0987 -2.6390 -0.1802
   78MOL   H42737541   0.022   7.730   0.284  0.4456  0.0307  3.9886
   78MOL   H42837542   7.866   7.595   0.084 -0.2746 -0.3169  1.8328
   78MOL   H42937543   0.116   7.701   0.055 -0.5977 -1.5377 -2.4932
   78MOL   H43037544   0.461   7.375   0.009 -0.4284  0.2716  0.2383
   78MOL   H43137545   0.296   7.322   7.825 -2.0926  0.9920  0.6447
   78MOL   H43237546   0.404   7.352   0.244  0.2509 -1.1769  1.0854
   78MOL   H43337547   0.259   7.265   0.189 -0.0286 -1.2500 -1.3546
   78MOL   O43437548   0.415   7.072   0.224  0.2597 -0.7801 -0.3428
   78MOL   C43537549   0.484   6.944   0.210 -0.4506 -0.2258 -0.3323
   78MOL   C43637550   0.454   6.842   0.326  0.3130  0.2698 -0.0719
   78MOL   C43737551   0.311   6.811   0.361  0.5732  0.9668  0.1659
   78MOL   C43837552   0.289   6.728   0.495  0.2139 -1.0218  0.4531
   78MOL   O43937553   0.316   6.804   0.611  0.1994  0.5165 -0.3989
   78MOL   C44037554   0.323   6.730   0.726  0.1237 -0.6037 -0.5410
   78MOL   O44137555   0.334   6.609   0.738 -0.1095  0.2424 -0.4044
   78MOL   C44237556   0.311   6.823   0.843  0.3662  0.8899  0.1520
   78MOL   C44337557   0.236   6.764   0.970 -0.1986 -0.6507  0.7206
   78MOL   C44437558   0.322   6.745   1.099  0.4642 -0.1211  0.5220
   78MOL   O44537559   0.437   6.789   1.117  0.1317  0.0848  0.3537
   78MOL   H44637560   0.452   6.909   0.111 -1.7122  2.6577 -0.9812
   78MOL   H44737561   0.592   6.959   0.217 -0.8037  1.8975  0.9003
   78MOL   H44837562   0.516   6.874   0.410  0.3060 -1.3084  0.5579
   78MOL   H44937563   0.490   6.747   0.286  1.9623  0.8275  0.0827
   78MOL   H45037564   0.278   6.745   0.281 -0.8843 -0.2117  1.7196
   78MOL   H45137565   0.245   6.898   0.352 -1.6043 -0.7996 -1.4061
   78MOL   H45237566   0.185   6.698   0.503  0.0358  0.0441  2.5619
   78MOL   H45337567   0.346   6.637   0.479  2.3470  0.0171  1.8532
   78MOL   H45437568   0.257   6.912   0.810 -1.3543 -0.9832 -2.2032
   78MOL   H45537569   0.415   6.850   0.865  0.8609 -1.3146  0.6069
   78MOL   H45637570   0.161   6.843   0.982  1.5938  1.1705  0.1729
   78MOL   H45737571   0.189   6.668   0.950 -0.7721 -0.2861  0.2824
   78MOL   O45837572   0.249   6.673   1.188 -0.0395 -0.2945 -0.5768
   78MOL   C45937573   0.278   6.666   1.326 -0.5081 -0.6221 -0.4465
   78MOL   C46037574   0.187   6.557   1.384  0.0140 -0.0323 -0.4884
   78MOL   C46137575   0.179   6.568   1.541  0.4187 -0.6332 -0.3144
   78MOL   C46237576   0.086   6.479   1.624  0.5612  0.2532  0.2122
   78MOL   O46337577   0.125   6.341   1.614 -0.4321 -0.2355  0.4523
   78MOL   C46437578   0.209   6.288   1.700  0.0477  0.1408  0.3061
   78MOL   O46537579   0.265   6.346   1.789  0.2327 -0.0109  0.1016
   78MOL   C46637580   0.237   6.135   1.685  0.4699 -0.5409  0.1092
   78MOL   C46737581   0.300   6.073   1.818 -0.5922  0.0938 -0.7293
   78MOL   C46837582   0.251   5.930   1.841 -0.0227  0.1497  0.8564
   78MOL   O46937583   0.146   5.890   1.793 -0.0181  0.0560 -0.4836
   78MOL   H47037584   0.383   6.640   1.341  0.0890  1.6602 -0.4696
   78MOL   H47137585   0.257   6.762   1.375 -1.9648  0.1800 -2.5844
   78MOL   H47237586   0.219   6.461   1.343 -1.7195 -0.7409 -0.2317
   78MOL   H47337587   0.084   6.569   1.348 -0.6681 -0.7745  1.1687
   78MOL   H47437588   0.152   6.672   1.559  0.6912 -0.6669  0.2950
   78MOL   H47537589   0.281   6.555   1.578  1.2937  0.1553 -2.3969
   78MOL   H47637590   0.088   6.505   1.729 -0.8775 -0.0750  0.3312
   78MOL   H47737591   7.857   6.505   1.603  1.0329  1.0314 -1.2269
   78MOL   H47837592   0.297   6.111   1.597 -0.0628  0.3432 -0.5081
   78MOL   H47937593   0.139   6.094   1.661  0.2054  0.0233  0.2116
   78MOL   H48037594   0.409   6.073   1.813 -0.6106 -0.7797 -1.0293
   78MOL   H48137595   0.266   6.134   1.903  0.2776 -0.8448  0.3098
   78MOL   H48237596   0.305   5.870   1.915  0.1456  0.3807  0.9219
   79MOL     O137597   1.518   7.068   4.745  0.0571  0.5938  0.2188
   79MOL     C237598   1.592   7.045   4.865 -0.1436 -0.8339  0.5351
   79MOL     C337599   1.695   6.929   4.860  0.3558 -0.2792  0.3871
   79MOL     C437600   1.829   6.965   4.799 -0.0099  0.0939  0.2384
   79MOL     C537601   1.896   6.835   4.750 -0.1937  0.5178 -0.0180
   79MOL     O637602   2.007   6.881   4.675 -0.0000  0.1983 -0.0624
   79MOL     C737603   2.070   6.798   4.589  0.0642  0.1093 -0.5163
   79MOL     O837604   2.032   6.684   4.571  0.1426 -0.8814 -0.0591
   79MOL     C937605   2.185   6.858   4.519  0.5021  0.9163  0.1721
   79MOL    C1037606   2.256   6.770   4.406 -0.3550 -0.3379  0.1379
   79MOL    C1137607   2.397   6.817   4.386  0.6036 -0.5339  0.8490
   79MOL    O1237608   2.461   6.879   4.472  0.3069 -0.0885  0.2715
   79MOL    H1337609   1.640   7.138   4.894  0.7929 -1.8264  2.2672
   79MOL    H1437610   1.525   7.017   4.946  2.1993 -1.7213  2.2276
   79MOL    H1537611   1.656   6.838   4.813 -1.4079  0.0958  1.0673
   79MOL    H1637612   1.724   6.912   4.963 -0.5464  0.5458  0.7936
   79MOL    H1737613   1.883   7.022   4.875  0.4170  0.4740 -0.3376
   79MOL    H1837614   1.811   7.027   4.711 -2.0080 -0.4077  0.2701
   79MOL    H1937615   1.913   6.760   4.828  1.9492  0.6776 -0.3189
   79MOL    H2037616   1.827   6.794   4.677  1.7223  1.3616 -2.3399
   79MOL    H2137617   2.255   6.877   4.600 -0.5832  1.8029  0.9317
   79MOL    H2237618   2.145   6.949   4.475 -1.7379 -0.5657 -0.9918
   79MOL    H2337619   2.275   6.671   4.448 -0.2995 -0.3061  0.1873
   79MOL    H2437620   2.201   6.761   4.313 -2.5939  2.2666  1.1294
   79MOL    H2537621   1.561   7.141   4.703  0.3726  1.1904  1.5581
   79MOL    O2637622   2.446   6.792   4.266 -0.1191 -0.2369 -0.3548
   79MOL    C2737623   2.579   6.814   4.244 -0.5824 -0.0630 -0.2340
   79MOL    C2837624   2.662   6.696   4.290  0.2671  0.0846  0.2526
   79MOL    C2937625   2.608   6.558   4.257  0.0716 -0.0719 -0.0498
   79MOL    C3037626   2.697   6.436   4.283  0.6447  0.2944  0.1453
   79MOL    O3137627   2.622   6.318   4.254 -0.0665 -0.0322  0.0269
   79MOL    C3237628   2.649   6.239   4.151  0.0880 -0.3121 -0.2017
   79MOL    O3337629   2.735   6.251   4.065 -0.7714 -0.2579 -0.0977
   79MOL    C3437630   2.576   6.109   4.161  0.3551  0.1109  0.0635
   79MOL    C3537631   2.620   6.025   4.289 -0.2664  0.0839  0.0276
   79MOL    C3637632   2.507   5.963   4.371  0.1506 -0.1846 -0.0799
   79MOL    O3737633   2.386   5.973   4.352  0.4248 -0.4867 -0.1438
   79MOL    H3837634   2.598   6.833   4.138 -0.8750  1.3732 -0.0367
   79MOL    H3937635   2.610   6.905   4.296 -0.7000  0.6599 -1.4113
   79MOL    H4037636   2.684   6.693   4.396 -0.1856 -1.0236  0.3175
   79MOL    H4137637   2.758   6.710   4.239  0.2870  0.5088  0.4094
   79MOL    H4237638   2.581   6.552   4.152 -0.7946 -0.1425  0.1740
   79MOL    H4337639   2.516   6.536   4.310 -0.5575 -2.7744 -2.1785
   79MOL    H4437640   2.787   6.450   4.224 -0.9745 -2.2414 -3.0696
   79MOL    H4537641   2.732   6.447   4.386 -0.6048  0.2254  0.5869
   79MOL    H4637642   2.592   6.047   4.073 -2.9530  0.6262 -0.9496
   79MOL    H4737643   2.471   6.136   4.168  0.3768  0.7898 -1.9764
   79MOL    H4837644   2.686   5.944   4.259  1.3119  0.2852  2.7217
   79MOL    H4937645   2.681   6.084   4.357  0.0516  2.0277 -1.8985
   79MOL    O5037646   2.564   5.897   4.473 -0.1105 -0.1394  0.7538
   79MOL    C5137647   2.501   5.829   4.580 -0.6189  0.7520 -1.2152
   79MOL    C5237648   2.555   5.682   4.591 -0.0968 -0.3543 -0.1951
   79MOL    C5337649   2.464   5.594   4.669  0.0863  0.6650 -0.3368
   79MOL    C5437650   2.533   5.459   4.711 -0.5374 -0.6346  0.2038
   79MOL    O5537651   2.441   5.373   4.770 -0.0428  0.6272  0.5033
   79MOL    C5637652   2.477   5.241   4.784  0.2195  0.3548  0.0181
   79MOL    O5737653   2.576   5.184   4.744  0.7018  0.1831  0.1244
   79MOL    C5837654   2.366   5.177   4.856 -0.4118  0.6193 -0.1432
   79MOL    C5937655   2.381   5.022   4.867 -0.2808  0.2994  0.1742
   79MOL    C6037656   2.307   4.942   4.765 -0.2421 -0.2094 -0.4592
   79MOL    O6137657   2.262   4.999   4.664  0.1948 -0.4457 -0.1297
   79MOL    H6237658   2.519   5.886   4.671  0.3496  2.3177 -2.3492
   79MOL    H6337659   2.396   5.821   4.552 -0.2469 -1.4425 -2.1096
   79MOL    H6437660   2.663   5.686   4.609 -0.3034 -0.5587  1.1446
   79MOL    H6537661   2.557   5.647   4.488 -0.0845 -2.5372  0.5027
   79MOL    H6637662   2.383   5.566   4.601  0.3194 -1.7091  0.3244
   79MOL    H6737663   2.444   5.644   4.764  0.1378  1.9297 -0.9726
   79MOL    H6837664   2.585   5.419   4.624 -0.1584  0.9859 -0.3458
   79MOL    H6937665   2.611   5.489   4.781  1.2107  1.0381 -2.3658
   79MOL    H7037666   2.269   5.194   4.808 -0.9856 -2.5936 -0.2154
   79MOL    H7137667   2.376   5.213   4.958  0.0984  0.5434 -0.1661
   79MOL    H7237668   2.483   4.985   4.858 -0.4073 -0.8343  3.1536
   79MOL    H7337669   2.341   4.990   4.963  0.7987 -3.4967 -0.5700
   79MOL    O7437670   2.305   4.810   4.804  0.0888  0.3642  0.0775
   79MOL    C7537671   2.235   4.715   4.715 -0.5674  0.4201  0.1554
   79MOL    C7637672   2.234   4.562   4.754 -0.0540  0.3573  0.0121
   79MOL    C7737673   2.172   4.465   4.653  0.3492 -0.2257 -0.4827
   79MOL    C7837674   2.150   4.326   4.715  0.5504  0.4282 -0.4257
   79MOL    O7937675   2.060   4.327   4.823  0.1151 -0.4746 -0.1339
   79MOL    C8037676   2.077   4.228   4.912  0.3833  0.3698 -0.9465
   79MOL    O8137677   2.158   4.131   4.898  0.3766 -0.2664 -0.5339
   79MOL    C8237678   1.984   4.257   5.028 -0.0799  0.4217 -0.4699
   79MOL    C8337679   2.048   4.352   5.127  0.5356  0.3355 -0.5112
   79MOL    C8437680   1.975   4.485   5.107 -0.0584  0.0643 -1.1229
   79MOL    O8537681   1.856   4.502   5.138 -0.2998  0.2639 -0.7956
   79MOL    H8637682   2.131   4.746   4.707 -0.5473  0.4688  0.0858
   79MOL    H8737683   2.260   4.727   4.610 -2.4723  0.6546 -0.2859
   79MOL    H8837684   2.180   4.547   4.848 -0.0360 -0.9535 -0.1762
   79MOL    H8937685   2.338   4.530   4.764  0.0181  0.9679  1.4725
   79MOL    H9037686   2.231   4.462   4.560 -0.0017 -0.4468 -0.6973
   79MOL    H9137687   2.075   4.497   4.615 -1.3394 -2.4615  1.8407
   79MOL    H9237688   2.122   4.252   4.640  2.4161 -1.3868  0.6244
   79MOL    H9337689   2.248   4.292   4.749 -0.1667 -0.7087  0.5296
   79MOL    H9437690   1.984   4.158   5.074  1.0391 -0.3307 -2.0420
   79MOL    H9537691   1.885   4.287   4.993 -0.2653  1.9841  1.2794
   79MOL    H9637692   2.041   4.325   5.233  2.4456 -0.4430 -0.5530
   79MOL    H9737693   2.151   4.377   5.100  0.7919 -1.5865 -1.4211
   79MOL    O9837694   2.057   4.575   5.057 -0.0169 -0.5437  0.5301
   79MOL    C9937695   2.007   4.703   5.024 -0.3614  0.1583  1.0674
   79MOL   C10037696   2.058   4.796   5.132  0.3728 -0.2374 -0.1609
   79MOL   C10137697   2.209   4.817   5.140  0.2087  0.0678  0.2523
   79MOL   C10237698   2.237   4.935   5.232 -0.1949  0.0248  0.0506
   79MOL   O10337699   2.375   4.958   5.222 -0.1485  0.0719  0.1544
   79MOL   C10437700   2.448   5.026   5.314  0.1778  0.6684  0.8159
   79MOL   O10537701   2.402   5.072   5.417  0.3394  0.4918  0.0933
   79MOL   C10637702   2.596   5.048   5.282 -0.2485  0.6395 -0.1417
   79MOL   C10737703   2.613   5.130   5.156  1.0127 -0.1923 -0.5168
   79MOL   C10837704   2.647   5.276   5.198  0.8503 -0.2975 -0.4356
   79MOL   O10937705   2.558   5.364   5.210 -0.2450  0.1715 -0.0633
   79MOL   H11037706   2.047   4.742   4.931 -1.3239 -1.7018 -0.1645
   79MOL   H11137707   1.899   4.711   5.012 -0.1296  1.9857 -0.1654
   79MOL   H11237708   2.014   4.773   5.229  1.0972  0.7049  0.3960
   79MOL   H11337709   2.012   4.892   5.107  1.3657  0.3048  0.0610
   79MOL   H11437710   2.224   4.834   5.033  0.7997  2.3319  0.6519
   79MOL   H11537711   2.265   4.730   5.173 -0.3063  0.3703  2.0090
   79MOL   H11637712   2.184   5.023   5.196  1.0340  0.0021 -1.8957
   79MOL   H11737713   2.200   4.906   5.331  1.3839 -0.2774  0.5716
   79MOL   H11837714   2.636   4.947   5.273 -0.8860  0.4754 -1.1161
   79MOL   H11937715   2.638   5.107   5.364 -0.5134  0.6186  0.0084
   79MOL   H12037716   2.689   5.091   5.089  2.4391  2.3501 -0.4511
   79MOL   H12137717   2.512   5.132   5.115  0.5108  1.5984  0.6981
   79MOL   O12237718   2.774   5.299   5.195  0.2441 -0.0850 -0.0489
   79MOL   C12337719   2.821   5.425   5.234  0.2682  0.4446 -0.4845
   79MOL   C12437720   2.956   5.410   5.304 -0.0654  0.3535 -0.1781
   79MOL   C12537721   3.016   5.544   5.340  0.1673 -0.7979  0.3781
   79MOL   C12637722   3.156   5.523   5.398  0.2362  0.0235 -0.7513
   79MOL   O12737723   3.218   5.646   5.419 -0.2535  0.2339  0.9234
   79MOL   C12837724   3.349   5.650   5.451 -0.5096 -0.8836 -0.2839
   79MOL   O12937725   3.408   5.562   5.511 -0.4724  0.0352  0.1502
   79MOL   C13037726   3.420   5.771   5.392  0.5330  0.3668 -0.0739
   79MOL   C13137727   3.568   5.742   5.347  0.1215 -0.8057 -0.0296
   79MOL   C13237728   3.592   5.785   5.199  0.8921  0.6012  0.0562
   79MOL   O13337729   3.500   5.808   5.124 -0.2496  0.0852 -0.0095
   79MOL   H13437730   2.825   5.503   5.157 -0.8193  0.1928 -0.8139
   79MOL   H13537731   2.749   5.476   5.298 -2.3922 -1.8040 -1.5675
   79MOL   H13637732   3.025   5.351   5.244  1.2829  0.0774  1.6419
   79MOL   H13737733   2.927   5.355   5.393  3.8450 -3.0126 -0.8439
   79MOL   H13837734   2.947   5.596   5.406  2.3767  3.3504 -0.4471
   79MOL   H13937735   3.017   5.598   5.245 -0.5335 -0.4843  0.5477
   79MOL   H14037736   3.146   5.461   5.487 -3.0856 -1.7309 -2.2112
   79MOL   H14137737   3.217   5.458   5.335  1.3424  1.0739 -0.7809
   79MOL   H14237738   3.415   5.850   5.467  0.3420 -0.6987  1.0501
   79MOL   H14337739   3.353   5.803   5.313 -0.2641  0.4249  0.6227
   79MOL   H14437740   3.634   5.802   5.411 -0.9522  0.6786 -0.2929
   79MOL   H14537741   3.588   5.635   5.351 -0.3032 -1.0981 -3.8982
   79MOL   O14637742   3.726   5.784   5.173  0.3633 -0.0686 -0.2008
   79MOL   C14737743   3.789   5.813   5.047 -0.2472  0.2108 -0.0335
   79MOL   C14837744   3.910   5.896   5.065 -0.6165 -0.0249 -0.4224
   79MOL   C14937745   4.036   5.825   5.113 -0.0113 -0.4727  0.4622
   79MOL   C15037746   4.163   5.901   5.072  0.4296 -0.2324 -0.2581
   79MOL   O15137747   4.282   5.854   5.132 -0.3196  0.2488 -0.1394
   79MOL   C15237748   4.374   5.936   5.186 -0.1062  0.5791 -0.8326
   79MOL   O15337749   4.358   6.055   5.210  0.3284  0.5577  0.4084
   79MOL   C15437750   4.498   5.861   5.249  0.3609 -0.7075 -0.5171
   79MOL   C15537751   4.441   5.790   5.377  0.3428  0.0216  0.4522
   79MOL   C15637752   4.427   5.643   5.356  0.7168  0.0453 -0.3791
   79MOL   O15737753   4.434   5.569   5.450 -0.3811  0.2864 -0.7619
   79MOL   H15837754   3.816   5.723   4.992 -0.3433 -0.2408  0.6572
   79MOL   H15937755   3.710   5.861   4.989 -1.5777 -0.0446  1.5224
   79MOL   H16037756   3.881   5.985   5.120 -0.0232  1.4482 -2.4524
   79MOL   H16137757   3.931   5.929   4.963 -1.7118  0.4908 -0.4868
   79MOL   H16237758   4.047   5.733   5.057  0.5950 -0.8314  1.1622
   79MOL   H16337759   4.042   5.791   5.216  2.3835 -1.6197 -0.0256
   79MOL   H16437760   4.171   5.899   4.963 -0.7007  0.7442 -0.3795
   79MOL   H16537761   4.147   6.006   5.098 -1.0519 -0.1119 -1.5421
   79MOL   H16637762   4.583   5.925   5.274  1.0406 -0.8575 -2.3749
   79MOL   H16737763   4.539   5.798   5.170 -1.7087 -1.9521 -0.6582
   79MOL   H16837764   4.505   5.802   5.465  0.0254 -0.0836  0.6987
   79MOL   H16937765   4.352   5.841   5.415  0.1958 -0.1487  0.3371
   79MOL   O17037766   4.395   5.605   5.232  0.2866  0.0428 -0.2790
   79MOL   C17137767   4.374   5.466   5.202 -0.7488 -0.3397 -0.0165
   79MOL   C17237768   4.371   5.441   5.048  0.7624  0.2579 -0.0156
   79MOL   C17337769   4.250   5.519   4.993 -0.3701  0.1565 -0.4106
   79MOL   C17437770   4.191   5.480   4.854  0.6457 -0.2358 -0.2785
   79MOL   O17537771   4.131   5.352   4.860 -0.1571 -0.2918 -0.5323
   79MOL   C17637772   4.093   5.297   4.750  0.5013 -0.1036 -0.1253
   79MOL   O17737773   4.136   5.334   4.638  0.2357 -0.4885  0.0869
   79MOL   C17837774   3.997   5.175   4.765 -0.3982 -0.4737 -0.1485
   79MOL   C17937775   3.974   5.091   4.638  0.2301  0.0339  0.1253
   79MOL   C18037776   3.853   4.988   4.652 -0.2699 -0.6055 -0.5522
   79MOL   O18137777   3.755   5.027   4.706 -0.3217 -0.5502  0.2893
   79MOL   H18237778   4.449   5.407   5.255 -0.4524 -0.2445 -0.3266
   79MOL   H18337779   4.277   5.436   5.242 -1.2555  0.0626 -0.9318
   79MOL   H18437780   4.360   5.335   5.025 -0.5192  0.8775 -2.5270
   79MOL   H18537781   4.463   5.468   4.996 -0.6432  2.2061 -1.5423
   79MOL   H18637782   4.279   5.624   4.997 -0.2109  0.0851  0.4513
   79MOL   H18737783   4.163   5.516   5.058 -0.6503 -0.1389 -0.7988
   79MOL   H18837784   4.123   5.556   4.816 -0.9318 -1.6395 -0.3333
   79MOL   H18937785   4.270   5.476   4.779  0.6714  0.8589 -0.3157
   79MOL   H19037786   3.899   5.211   4.796 -0.2172 -0.9966  1.0370
   79MOL   H19137787   4.039   5.115   4.845  0.7052  0.7788  0.2315
   79MOL   H19237788   3.935   5.145   4.552  1.0752 -1.4780 -1.2330
   79MOL   H19337789   4.062   5.033   4.613  1.0705  1.2692  0.1467
   79MOL   O19437790   3.879   4.862   4.607 -0.0300 -0.0251  0.5673
   79MOL   C19537791   3.773   4.771   4.604 -0.3149 -0.4754  0.1176
   79MOL   C19637792   3.822   4.627   4.643  0.0462  0.6230 -0.4186
   79MOL   C19737793   3.709   4.519   4.634 -0.0150 -0.1733 -0.3231
   79MOL   C19837794   3.633   4.504   4.499  0.0962 -0.9027  0.2004
   79MOL   O19937795   3.721   4.457   4.395  0.3717 -0.2645 -0.0406
   79MOL   C20037796   3.665   4.416   4.276 -0.9526 -0.6862 -0.3283
   79MOL   O20137797   3.545   4.404   4.254 -0.5075 -0.5157 -0.3896
   79MOL   C20237798   3.770   4.380   4.176 -0.1380  0.0301 -0.5523
   79MOL   C20337799   3.844   4.502   4.105 -0.2843  0.1907  0.4437
   79MOL   C20437800   3.996   4.508   4.108 -0.4444 -0.1157  0.0659
   79MOL   O20537801   4.070   4.418   4.146  0.4620  0.6902  0.5001
   79MOL   H20637802   3.696   4.814   4.667 -1.3998 -0.0636 -1.4535
   79MOL   H20737803   3.741   4.777   4.500  0.4404 -0.3090 -0.1040
   79MOL   H20837804   3.868   4.628   4.742  1.0201 -1.4252 -0.8364
   79MOL   H20937805   3.908   4.599   4.583  0.0011 -2.7764  0.9604
   79MOL   H21037806   3.646   4.550   4.717  1.8628 -1.0571  1.4913
   79MOL   H21137807   3.755   4.426   4.668  0.6234  0.8877  1.8007
   79MOL   H21237808   3.550   4.435   4.516 -0.3306 -0.0842  1.4883
   79MOL   H21337809   3.590   4.601   4.476  3.1793 -0.3132 -3.5499
   79MOL   H21437810   3.721   4.313   4.106  0.7245 -1.2627  0.0707
   79MOL   H21537811   3.845   4.319   4.227 -0.6156  0.5431  0.8057
   79MOL   H21637812   3.813   4.494   4.001 -0.8052 -2.6761  0.7633
   79MOL   H21737813   3.799   4.597   4.134  0.9891  1.7911 -2.5769
   79MOL   O21837814   4.041   4.619   4.044  0.0293 -0.1122  0.3539
   79MOL   C21937815   4.174   4.656   4.050 -0.1850  0.2715  0.3291
   79MOL   C22037816   4.208   4.716   3.914  0.6770  0.3795  0.3054
   79MOL   C22137817   4.226   4.613   3.804  0.2369  0.3353  0.0277
   79MOL   C22237818   4.257   4.662   3.667  0.6435  0.5336 -0.6694
   79MOL   O22337819   4.391   4.633   3.640  0.1703  0.4579  0.3310
   79MOL   C22437820   4.490   4.715   3.675 -0.3070  0.1071  0.5572
   79MOL   O22537821   4.483   4.806   3.755  0.1414  0.0707 -0.4979
   79MOL   C22637822   4.624   4.666   3.611 -0.2022 -0.3657  0.2198
   79MOL   C22737823   4.738   4.686   3.707 -0.4001 -0.3586 -0.3185
   79MOL   C22837824   4.866   4.736   3.639  0.2723  0.1897 -0.1280
   79MOL   O22937825   4.888   4.690   3.527 -0.2493 -0.0734  0.2183
   79MOL   H23037826   4.187   4.736   4.124 -1.7336 -1.6639  2.7791
   79MOL   H23137827   4.240   4.571   4.068 -0.1460  0.3026  0.3348
   79MOL   H23237828   4.310   4.752   3.926  0.2637  1.5119  0.4746
   79MOL   H23337829   4.144   4.800   3.888 -0.6517 -1.0230 -1.0967
   79MOL   H23437830   4.130   4.561   3.801  0.6482 -0.4640  0.4758
   79MOL   H23537831   4.302   4.542   3.836  1.4465  0.5804 -2.2289
   79MOL   H23637832   4.188   4.614   3.598 -0.1419  1.2656 -0.4070
   79MOL   H23737833   4.247   4.770   3.655  0.4860  0.6082  0.1210
   79MOL   H23837834   4.628   4.733   3.526 -0.8791  1.3105  1.4774
   79MOL   H23937835   4.610   4.561   3.585 -2.5621  0.2308 -1.0208
   79MOL   H24037836   4.715   4.754   3.789  0.7556 -1.4582  0.9635
   79MOL   H24137837   4.743   4.594   3.766 -0.6957  1.4345  2.6204
   79MOL   O24237838   4.936   4.821   3.713 -0.3470  0.1498  0.3547
   79MOL   C24337839   5.066   4.861   3.671 -0.0414 -0.0077  0.2653
   79MOL   C24437840   5.138   4.930   3.786 -0.4330  0.2092 -0.0481
   79MOL   C24537841   5.073   5.067   3.808 -0.9441 -0.1198 -0.2916
   79MOL   C24637842   5.119   5.148   3.929 -0.0258  0.0068  0.0985
   79MOL   O24737843   5.259   5.171   3.909  0.1248 -0.3009  0.0245
   79MOL   C24837844   5.341   5.180   4.011  0.6805  0.0720  0.8206
   79MOL   O24937845   5.310   5.192   4.130 -0.3369 -0.2502  0.4117
   79MOL   C25037846   5.487   5.191   3.969 -0.4883  0.1222 -0.2904
   79MOL   C25137847   5.582   5.109   4.059 -0.9964 -0.2798  0.4521
   79MOL   C25237848   5.565   4.958   4.051 -0.8352  0.6995 -0.4075
   79MOL   O25337849   5.530   4.888   4.150  0.5616  0.2193  0.4750
   79MOL   H25437850   5.117   4.768   3.645  0.0503  0.1765 -0.2172
   79MOL   H25537851   5.065   4.931   3.588  4.3617 -1.6218 -1.2767
   79MOL   H25637852   5.239   4.942   3.748  0.2753 -0.6146  1.5057
   79MOL   H25737853   5.127   4.862   3.871  2.3601 -0.7480 -0.4025
   79MOL   H25837854   4.973   5.035   3.837 -0.4714  0.3961  2.0197
   79MOL   H25937855   5.070   5.128   3.718  0.8224 -0.5770 -0.6729
   79MOL   H26037856   5.053   5.234   3.931  0.7893  0.6331  0.2026
   79MOL   H26137857   5.108   5.092   4.022 -0.3821 -1.8740 -1.0400
   79MOL   H26237858   5.521   5.295   3.972  1.2161 -0.2865 -3.4593
   79MOL   H26337859   5.508   5.142   3.874  3.7619  2.7380 -0.8201
   79MOL   H26437860   5.685   5.130   4.034 -1.0061  0.4985  1.0337
   79MOL   H26537861   5.570   5.133   4.165 -2.4831  2.1188 -0.2073
   79MOL   O26637862   5.602   4.911   3.927  0.0217 -0.2965  0.3104
   79MOL   C26737863   5.575   4.777   3.885  0.0946  0.1311 -0.1823
   79MOL   C26837864   5.718   4.728   3.861  0.2103 -0.4441  0.3567
   79MOL   C26937865   5.712   4.583   3.782  0.3999  0.0358  0.1719
   79MOL   C27037866   5.847   4.514   3.750  0.6685 -0.1223 -0.9008
   79MOL   O27137867   5.916   4.500   3.870 -0.0354  0.3573 -0.0395
   79MOL   C27237868   6.039   4.456   3.859 -0.2292 -0.1544 -0.0919
   79MOL   O27337869   6.106   4.428   3.754 -0.0241 -0.2034 -0.6591
   79MOL   C27437870   6.101   4.431   3.994 -0.4946  0.5945  0.1317
   79MOL   C27537871   6.246   4.377   3.986 -0.1552 -0.0562 -0.0121
   79MOL   C27637872   6.286   4.301   4.111  0.7752 -0.1038  0.0966
   79MOL   O27737873   6.209   4.323   4.212  0.1054 -0.0696 -0.1098
   79MOL   H27837874   5.514   4.717   3.952 -1.2540 -0.2459 -1.7229
   79MOL   H27937875   5.520   4.771   3.791 -0.8696 -0.6735  0.4245
   79MOL   H28037876   5.768   4.722   3.958 -1.9164 -2.3552  1.4006
   79MOL   H28137877   5.768   4.800   3.797 -1.5855  0.5039 -0.0119
   79MOL   H28237878   5.651   4.586   3.692 -0.7934 -0.4233  0.9646
   79MOL   H28337879   5.655   4.520   3.850 -0.9051 -1.7403 -2.4829
   79MOL   H28437880   5.827   4.417   3.704 -2.5022 -0.5341  1.1886
   79MOL   H28537881   5.905   4.581   3.685  3.5718 -1.5415  0.1551
   79MOL   H28637882   6.028   4.369   4.047 -1.5064 -0.1990 -2.1466
   79MOL   H28737883   6.111   4.526   4.048  0.0253  0.1886  0.7639
   79MOL   H28837884   6.239   4.300   3.909  1.5680  0.9967 -1.2704
   79MOL   H28937885   6.310   4.459   3.953 -0.3403 -0.1332 -0.5782
   79MOL   O29037886   6.388   4.222   4.108 -0.3467  0.2357 -0.2419
   79MOL   C29137887   6.416   4.136   4.212 -0.1976  0.3886 -0.1010
   79MOL   C29237888   6.519   4.027   4.171 -0.0979 -0.6973 -0.0159
   79MOL   C29337889   6.567   3.931   4.280  0.4354  0.0366  0.6638
   79MOL   C29437890   6.646   4.011   4.382 -0.6114  0.2570 -0.3959
   79MOL   O29537891   6.654   3.922   4.494  0.9000  0.1077 -0.0362
   79MOL   C29637892   6.746   3.822   4.495  0.2415  0.4742  0.3339
   79MOL   O29737893   6.830   3.803   4.407 -0.8045  0.1152  0.1195
   79MOL   C29837894   6.731   3.729   4.612 -0.5180  0.1172  0.3950
   79MOL   C29937895   6.690   3.588   4.567  0.6696 -0.2136 -0.4981
   79MOL   C30037896   6.537   3.571   4.582 -0.4183  1.0796 -0.4753
   79MOL   O30137897   6.491   3.496   4.663  0.2956  0.5380 -0.2445
   79MOL   H30237898   6.454   4.200   4.292 -1.9754  1.7959 -0.3575
   79MOL   H30337899   6.325   4.092   4.253  0.0698  1.2555  1.4923
   79MOL   H30437900   6.602   4.075   4.119 -0.0480  0.7611  1.3919
   79MOL   H30537901   6.474   3.968   4.091 -1.2359  0.9611 -0.6269
   79MOL   H30637902   6.607   3.834   4.252 -0.4312 -0.8724  2.4526
   79MOL   H30737903   6.476   3.903   4.333 -0.4691 -1.0967 -1.4523
   79MOL   H30837904   6.749   4.014   4.347 -0.5123  0.6847 -0.0633
   79MOL   H30937905   6.604   4.111   4.396 -0.5080  0.1173  0.9098
   79MOL   H31037906   6.659   3.759   4.687 -1.8717  2.8477 -1.8723
   79MOL   H31137907   6.834   3.732   4.650  0.5112  0.5414 -2.2917
   79MOL   H31237908   6.716   3.563   4.464  3.1448  0.3620 -0.0527
   79MOL   H31337909   6.731   3.507   4.628  0.0427 -0.0429  0.1591
   79MOL   O31437910   6.475   3.641   4.498 -0.6394 -0.1247  0.4865
   79MOL   C31537911   6.335   3.636   4.488  0.2144  0.1584 -0.0160
   79MOL   C31637912   6.277   3.762   4.543  0.8645 -0.1150 -0.0034
   79MOL   C31737913   6.222   3.751   4.687  0.0226  0.2211  0.5968
   79MOL   C31837914   6.086   3.680   4.695 -0.0806  0.4790  0.4257
   79MOL   O31937915   6.092   3.540   4.678  0.5787 -0.2930  0.7679
   79MOL   C32037916   6.111   3.477   4.789 -0.4042  0.1022  0.1542
   79MOL   O32137917   6.131   3.533   4.901  0.0656  0.0109 -0.6637
   79MOL   C32237918   6.101   3.324   4.790  0.4515  0.5349 -0.3686
   79MOL   C32337919   5.971   3.277   4.717 -0.0622 -0.1337 -0.2001
   79MOL   C32437920   5.870   3.288   4.824  0.7424  0.2026 -0.2459
   79MOL   O32537921   5.836   3.203   4.906 -0.2452  0.7903  0.0218
   79MOL   H32637922   6.310   3.645   4.383 -3.1048  2.7588  0.9411
   79MOL   H32737923   6.293   3.550   4.540  1.9084  0.5166  2.0370
   79MOL   H32837924   6.201   3.806   4.479  1.7973  1.9811  0.3033
   79MOL   H32937925   6.356   3.836   4.558  0.8547 -0.0905 -0.0755
   79MOL   H33037926   6.205   3.856   4.709 -0.5716  0.3085 -0.2396
   79MOL   H33137927   6.280   3.718   4.773 -0.9046 -0.6466  0.9079
   79MOL   H33237928   6.029   3.715   4.781 -0.5380 -0.7714  0.6357
   79MOL   H33337929   6.027   3.720   4.613 -0.4507 -0.8039  0.0494
   79MOL   H33437930   6.102   3.295   4.895 -0.4145 -0.7971 -0.7056
   79MOL   H33537931   6.190   3.286   4.739 -0.2690  0.4834 -1.6117
   79MOL   H33637932   5.938   3.326   4.625  0.3078  3.7890  1.6457
   79MOL   H33737933   6.002   3.173   4.706  0.1284 -0.2190  1.1243
   79MOL   O33837934   5.807   3.408   4.820  0.0426  1.3165 -0.0411
   79MOL   C33937935   5.741   3.466   4.934 -0.4715  0.1590 -0.2501
   79MOL   C34037936   5.663   3.591   4.896  1.1656 -0.0984 -0.7786
   79MOL   C34137937   5.560   3.620   5.008 -0.5365 -0.2724 -0.4940
   79MOL   C34237938   5.474   3.742   4.959  0.3038 -0.2671  0.6417
   79MOL   O34337939   5.386   3.698   4.851  0.2074 -0.0320  0.3241
   79MOL   C34437940   5.309   3.787   4.790 -0.9713  0.0277 -0.2851
   79MOL   O34537941   5.311   3.906   4.818  0.3474  0.1906 -0.1144
   79MOL   C34637942   5.211   3.726   4.695  0.1194  0.3622 -0.1007
   79MOL   C34737943   5.283   3.655   4.579  0.7818  0.6958  0.7965
   79MOL   C34837944   5.272   3.716   4.441 -0.1363 -0.5699  0.7887
   79MOL   O34937945   5.223   3.827   4.411  0.4335 -0.0099  0.0489
   79MOL   H35037946   5.679   3.395   4.988  0.7103 -0.6777  0.0224
   79MOL   H35137947   5.822   3.502   4.997  1.9095 -0.6922 -2.7069
   79MOL   H35237948   5.608   3.556   4.809  1.5258 -1.5786 -0.4348
   79MOL   H35337949   5.723   3.679   4.873  1.5157  0.2115  1.1956
   79MOL   H35437950   5.606   3.656   5.100 -0.6397  0.3291 -0.6778
   79MOL   H35537951   5.492   3.538   5.032  0.5802 -0.8361  0.7850
   79MOL   H35637952   5.410   3.772   5.041 -0.5881  2.9142 -1.1292
   79MOL   H35737953   5.538   3.824   4.927  2.9029 -2.5837 -0.3472
   79MOL   H35837954   5.138   3.796   4.654  0.6968  0.1994 -1.4447
   79MOL   H35937955   5.159   3.654   4.757  0.3993  0.3618  0.1355
   79MOL   H36037956   5.385   3.620   4.597  0.8319  0.5483  0.2437
   79MOL   H36137957   5.236   3.557   4.565 -0.2646  1.2678  0.2633
   79MOL   O36237958   5.329   3.633   4.347  0.4628 -0.5779 -0.0901
   79MOL   C36337959   5.343   3.671   4.208  0.0734 -0.3115  0.1966
   79MOL   C36437960   5.455   3.784   4.196 -0.2255  1.1361 -0.3415
   79MOL   C36537961   5.510   3.804   4.051 -0.2021  0.1352  0.4145
   79MOL   C36637962   5.633   3.893   4.030  0.3427 -0.5697  0.2956
   79MOL   O36737963   5.595   4.010   3.971  0.3705 -0.1154  0.0287
   79MOL   C36837964   5.693   4.107   3.947  0.5596 -0.4654 -0.2502
   79MOL   O36937965   5.806   4.115   3.998 -0.1041 -0.0837 -0.0336
   79MOL   C37037966   5.641   4.220   3.868 -0.8067  0.6538 -0.2047
   79MOL   C37137967   5.595   4.180   3.729 -0.2446  0.0353  0.6505
   79MOL   C37237968   5.671   4.244   3.615  0.1849 -0.0093 -0.1834
   79MOL   O37337969   5.618   4.341   3.548 -0.4122 -0.4836 -0.5555
   79MOL   H37437970   5.368   3.586   4.145 -0.5624  0.0062 -0.4973
   79MOL   H37537971   5.254   3.707   4.157  0.1458  3.3714  2.4245
   79MOL   H37637972   5.539   3.764   4.262 -0.3241 -1.7530 -1.0290
   79MOL   H37737973   5.416   3.876   4.238 -3.2941 -0.2324 -0.0401
   79MOL   H37837974   5.436   3.828   3.975  1.3193 -1.5433 -1.6404
   79MOL   H37937975   5.543   3.702   4.031  0.7147  0.7236 -1.1179
   79MOL   H38037976   5.686   3.927   4.119  1.4645 -1.1402 -0.1485
   79MOL   H38137977   5.701   3.850   3.957  3.2232  2.7294  0.9159
   79MOL   H38237978   5.714   4.301   3.871 -0.0644  0.0006 -0.6469
   79MOL   H38337979   5.553   4.242   3.929 -1.0176  1.7315 -0.8962
   79MOL   H38437980   5.580   4.072   3.720  1.5117 -0.2256  0.5854
   79MOL   H38537981   5.491   4.210   3.714  0.0243  0.8165  0.3498
   79MOL   O38637982   5.795   4.185   3.597  0.4891  0.4238  1.0242
   79MOL   C38737983   5.878   4.212   3.483  0.0879 -0.3313 -0.3843
   79MOL   C38837984   5.840   4.109   3.376 -0.0489 -0.0682  0.2306
   79MOL   C38937985   5.896   4.151   3.239  0.4606 -0.4677  0.6696
   79MOL   C39037986   5.852   4.056   3.124 -0.2376 -0.6702  0.3286
   79MOL   O39137987   5.934   4.078   3.010 -0.7446 -1.0011  0.4267
   79MOL   C39237988   5.983   3.976   2.943 -0.0096 -0.2678  0.3307
   79MOL   O39337989   5.990   3.856   2.974  0.6483 -0.2409 -0.9249
   79MOL   C39437990   6.056   4.023   2.816 -0.4262  0.2958  0.3665
   79MOL   C39537991   6.185   4.106   2.828  0.0448  0.0864 -0.3613
   79MOL   C39637992   6.304   4.008   2.825  0.2928  0.0676  0.4277
   79MOL   O39737993   6.376   4.004   2.924  0.1851 -0.4699  0.4893
   79MOL   H39837994   5.855   4.315   3.455  2.4199  0.4544  0.4444
   79MOL   H39937995   5.981   4.210   3.518  0.7806 -1.6387 -2.4557
   79MOL   H40037996   5.731   4.102   3.374  0.0296 -1.8592  1.4218
   79MOL   H40137997   5.874   4.009   3.401  3.4573  0.7327 -1.0224
   79MOL   H40237998   6.002   4.173   3.243  0.0396  2.1293 -0.8102
   79MOL   H40337999   5.869   4.254   3.211  0.2331 -0.1051  2.2009
   79MOL   H40438000   5.871   3.954   3.157  1.4766 -0.5473 -0.2132
   79MOL   H40538001   5.746   4.066   3.105  0.1007 -1.3938 -2.0280
   79MOL   H40638002   5.984   4.084   2.762 -1.8884 -2.9080 -1.4583
   79MOL   H40738003   6.077   3.928   2.765 -1.3236  0.4007 -0.2111
   79MOL   H40838004   6.192   4.175   2.744 -0.3151 -2.3360 -2.4577
   79MOL   H40938005   6.191   4.173   2.913  0.8869 -0.8509  0.3285
   79MOL   O41038006   6.300   3.929   2.719  0.2225  0.3219  0.1064
   79MOL   C41138007   6.395   3.823   2.704  0.6357 -0.3543  0.5446
   79MOL   C41238008   6.344   3.705   2.628 -0.3050  0.0032  0.5171
   79MOL   C41338009   6.319   3.718   2.476 -0.0649  0.1539  0.1617
   79MOL   C41438010   6.200   3.798   2.446 -0.1691 -0.0419  0.3859
   79MOL   O41538011   6.087   3.737   2.500  0.6223 -0.7963 -0.2633
   79MOL   C41638012   5.975   3.807   2.543  0.8433 -0.0934  0.5717
   79MOL   O41738013   5.962   3.926   2.524  0.2317 -0.1773  0.6649
   79MOL   C41838014   5.867   3.729   2.605 -0.5186  0.7767  0.7344
   79MOL   C41938015   5.923   3.652   2.726  0.7481  0.3299 -0.1358
   79MOL   C42038016   5.865   3.515   2.726  0.7589  0.0543  0.6025
   79MOL   O42138017   5.768   3.492   2.794 -0.4213  0.2471 -0.5967
   79MOL   H42238018   6.481   3.866   2.654  0.7012 -0.9600  0.1227
   79MOL   H42338019   6.413   3.788   2.805 -1.0223 -1.8220  0.3688
   79MOL   H42438020   6.259   3.657   2.678 -0.0404  0.1221  1.0813
   79MOL   H42538021   6.416   3.625   2.644  1.7731  1.6151 -0.5155
   79MOL   H42638022   6.309   3.621   2.426 -0.0492  0.1424  0.1813
   79MOL   H42738023   6.399   3.777   2.431 -0.0784 -1.4685 -2.0870
   79MOL   H42838024   6.222   3.898   2.482 -3.2016  0.2597  1.4657
   79MOL   H42938025   6.188   3.797   2.338  1.5213 -1.6616  0.1819
   79MOL   H43038026   5.825   3.657   2.535  0.1151  0.2443  0.8994
   79MOL   H43138027   5.787   3.799   2.631 -0.2166  0.4244  2.6474
   79MOL   H43238028   6.030   3.642   2.710  0.3495 -0.7143 -2.2328
   79MOL   H43338029   5.897   3.696   2.822 -1.1499 -2.8503  0.8809
   79MOL   O43438030   5.945   3.420   2.671 -0.0466 -0.6951 -0.5092
   79MOL   C43538031   5.903   3.288   2.688 -0.0617 -0.4488  0.7250
   79MOL   C43638032   5.990   3.187   2.611 -0.5269 -0.2656 -0.6484
   79MOL   C43738033   6.145   3.193   2.650  0.0225 -0.0339 -0.2930
   79MOL   C43838034   6.212   3.294   2.558 -0.4416  0.1940  0.3848
   79MOL   O43938035   6.358   3.301   2.565  0.1563 -0.2624  0.3603
   79MOL   C44038036   6.420   3.354   2.452 -0.4874  0.2731 -0.1156
   79MOL   O44138037   6.366   3.388   2.344 -0.0855  0.0870  0.2972
   79MOL   C44238038   6.574   3.344   2.477  0.2028 -0.4767 -0.5372
   79MOL   C44338039   6.617   3.206   2.431 -0.2464  0.4579 -0.0807
   79MOL   C44438040   6.670   3.123   2.543  0.5292  0.4288 -0.2211
   79MOL   O44538041   6.786   3.132   2.575 -0.2280  0.3825  0.5197
   79MOL   H44638042   5.897   3.263   2.794 -2.5921 -1.2795  0.4173
   79MOL   H44738043   5.802   3.265   2.653 -0.4093  1.2810  0.5158
   79MOL   H44838044   5.964   3.217   2.510 -0.8148  1.4322 -0.0827
   79MOL   H44938045   5.950   3.088   2.636 -0.1141 -0.6316 -1.4288
   79MOL   H45038046   6.194   3.096   2.653 -0.6553 -0.3980 -0.7379
   79MOL   H45138047   6.149   3.235   2.750  2.3093 -3.1224  0.9561
   79MOL   H45238048   6.184   3.284   2.454  0.4149 -0.6867  0.2324
   79MOL   H45338049   6.172   3.388   2.598  0.8836  0.4605  1.1056
   79MOL   H45438050   6.587   3.362   2.583 -0.1023  1.7753 -0.8408
   79MOL   H45538051   6.626   3.428   2.430  1.8794  0.5346  2.9599
   79MOL   H45638052   6.541   3.146   2.380  2.0793 -1.3724 -1.4774
   79MOL   H45738053   6.687   3.200   2.347  0.4635 -1.8164  0.6412
   79MOL   O45838054   6.579   3.044   2.597  0.8856 -0.2415 -0.3005
   79MOL   C45938055   6.605   2.972   2.713  0.5605 -0.9213  0.1573
   79MOL   C46038056   6.466   2.959   2.780  0.4904 -0.6172  0.1153
   79MOL   C46138057   6.430   3.080   2.872  0.0690  0.4497  0.0254
   79MOL   C46238058   6.296   3.062   2.945  1.1092  0.2058  0.0497
   79MOL   O46338059   6.275   3.166   3.029 -0.0543  0.2347 -0.2452
   79MOL   C46438060   6.151   3.204   3.062  0.2556  0.3540  0.2057
   79MOL   O46538061   6.047   3.141   3.034 -0.0090  0.4181 -0.7169
   79MOL   C46638062   6.141   3.340   3.116 -0.2040  0.1121  0.0235
   79MOL   C46738063   6.094   3.443   3.009 -0.2377  0.0135 -0.4020
   79MOL   C46838064   6.203   3.520   2.935  0.2053 -0.7235 -0.5637
   79MOL   O46938065   6.264   3.469   2.847  0.5095 -0.4308  0.3390
   79MOL   H47038066   6.655   2.876   2.700 -0.1327 -1.3775  0.8593
   79MOL   H47138067   6.668   3.038   2.773  1.5716 -1.7138 -0.0197
   79MOL   H47238068   6.465   2.861   2.829  1.6548 -0.0811  1.2462
   79MOL   H47338069   6.404   2.949   2.691  0.8071 -1.1197 -0.0501
   79MOL   H47438070   6.431   3.167   2.807  2.3329  0.7632  0.4408
   79MOL   H47538071   6.504   3.098   2.950  1.4264  0.4983 -1.2507
   79MOL   H47638072   6.230   3.049   2.860 -1.3177  0.2186  1.8780
   79MOL   H47738073   6.299   2.979   3.016 -3.1878 -0.5426 -0.5355
   79MOL   H47838074   6.241   3.371   3.148 -0.5688 -0.1665  1.4851
   79MOL   H47938075   6.074   3.335   3.202 -0.8037 -1.6061 -0.5288
   79MOL   H48038076   6.044   3.401   2.922  2.3846 -0.0180 -1.9740
   79MOL   H48138077   6.018   3.509   3.051 -1.1287 -0.3945 -1.3606
   79MOL   H48238078   6.222   3.623   2.966 -1.6423 -0.3927 -0.5181
   80MOL     O138079   3.516   5.489   7.769  0.4745  0.1346 -0.1144
   80MOL     C238080   3.463   5.397   7.869  0.0916 -0.5054  0.2249
   80MOL     C338081   3.563   5.298   0.038 -0.0816  0.3309 -0.2335
   80MOL     C438082   3.689   5.354   0.114  0.2415 -0.6425 -0.7859
   80MOL     C538083   3.794   5.249   0.166  0.3309  0.1083  0.1521
   80MOL     O638084   3.860   5.192   0.052  0.1765 -0.3183 -0.4907
   80MOL     C738085   3.967   5.260   0.010  0.3209  0.4006 -0.3391
   80MOL     O838086   4.011   5.364   0.047  0.5124 -0.0000  0.0518
   80MOL     C938087   4.048   5.179   7.786  0.3635 -0.3358  0.0675
   80MOL    C1038088   3.969   5.090   7.684  0.3256 -0.2854 -0.4252
   80MOL    C1138089   4.030   5.116   7.544  0.2099  0.2769  0.0785
   80MOL    O1238090   4.154   5.119   7.534 -0.4248 -0.1950 -0.5630
   80MOL    H1338091   3.409   5.441   0.079 -0.7102 -0.6306 -0.2170
   80MOL    H1438092   3.371   5.354   7.831 -0.9120  0.3590  1.5867
   80MOL    H1538093   3.588   5.241   7.823  2.3861  0.4522  0.3325
   80MOL    H1638094   3.507   5.226   0.096  1.0477  0.3973  0.9625
   80MOL    H1738095   3.663   5.409   0.205 -0.0625  0.4940 -1.5493
   80MOL    H1838096   3.738   5.436   0.063  1.2966  0.3893  1.8206
   80MOL    H1938097   3.870   5.296   0.229  0.9434 -0.3040 -0.2815
   80MOL    H2038098   3.737   5.177   0.225 -2.0008  0.5346 -1.5213
   80MOL    H2138099   4.123   5.126   7.846  1.1126 -0.4701 -0.9782
   80MOL    H2238100   4.095   5.260   7.730 -1.3814  1.2394  0.8215
   80MOL    H2338101   3.980   4.987   7.716 -2.1805  0.0019  1.5673
   80MOL    H2438102   3.863   5.111   7.672  0.3812 -0.1164 -0.6195
   80MOL    H2538103   3.568   5.436   7.712  0.1381  0.2104 -0.4915
   80MOL    O2638104   3.941   5.139   7.446 -0.5716 -0.7280  0.1718
   80MOL    C2738105   3.992   5.173   7.324 -0.4983 -0.4217  0.2259
   80MOL    C2838106   3.923   5.286   7.256  0.3136  0.5583 -0.4033
   80MOL    C2938107   3.958   5.417   7.326  0.2403  0.1707  0.6609
   80MOL    C3038108   3.845   5.527   7.308  0.0162  0.7644 -0.3942
   80MOL    O3138109   3.813   5.531   7.176 -0.3540 -1.0292  0.2512
   80MOL    C3238110   3.725   5.616   7.121  0.4668 -0.2067  0.1076
   80MOL    O3338111   3.640   5.684   7.186 -0.1096 -0.2082  0.5378
   80MOL    C3438112   3.729   5.614   6.975  0.6810 -0.0059  0.1358
   80MOL    C3538113   3.711   5.468   6.923  0.2580 -0.0652  0.2142
   80MOL    C3638114   3.839   5.399   6.865  0.6743  0.0906 -0.5450
   80MOL    O3738115   3.879   5.298   6.920 -0.2824  0.3369  0.2100
   80MOL    H3838116   4.099   5.191   7.330 -0.7798  0.6307  2.7855
   80MOL    H3938117   3.975   5.086   7.260  2.0523 -1.5299  1.0055
   80MOL    H4038118   3.815   5.276   7.266  0.5561 -0.6704  1.2357
   80MOL    H4138119   3.956   5.285   7.153  1.8642 -0.0296  0.0913
   80MOL    H4238120   4.058   5.446   7.292  0.1996  0.8267  1.0864
   80MOL    H4338121   3.969   5.406   7.434 -2.5678 -1.5109  0.8132
   80MOL    H4438122   3.762   5.495   7.371 -0.0039 -0.6014 -1.0890
   80MOL    H4538123   3.876   5.624   7.346  0.6494  0.4350 -0.0577
   80MOL    H4638124   3.814   5.659   6.924  0.7476 -0.5757 -0.2605
   80MOL    H4738125   3.644   5.667   6.932  0.8041 -0.3651 -0.5486
   80MOL    H4838126   3.695   5.405   7.010  1.5065 -1.0127 -0.2097
   80MOL    H4938127   3.621   5.450   6.864 -0.2665  0.9985  0.6855
   80MOL    O5038128   3.887   5.452   6.745 -0.2020  0.3849 -0.0972
   80MOL    C5138129   4.004   5.409   6.687  0.3622  0.1836 -0.8050
   80MOL    C5238130   4.117   5.498   6.737 -0.2768  0.5154 -0.3165
   80MOL    C5338131   4.242   5.475   6.654 -0.1258  0.2467  0.3384
   80MOL    C5438132   4.292   5.327   6.649 -0.1045 -0.3959 -0.7638
   80MOL    O5538133   4.409   5.315   6.568 -0.3489  0.4871  0.5825
   80MOL    C5638134   4.389   5.314   6.427 -0.0965 -0.3435  0.3088
   80MOL    O5738135   4.282   5.322   6.375  0.5809  0.5305  0.6751
   80MOL    C5838136   4.520   5.316   6.352  0.0054  0.3671  0.1441
   80MOL    C5938137   4.512   5.209   6.239 -0.3085  0.1541 -0.1509
   80MOL    C6038138   4.641   5.130   6.232  0.0388 -0.2426 -0.4212
   80MOL    O6138139   4.760   5.177   6.241 -0.7054  0.4349 -0.1222
   80MOL    H6238140   4.029   5.307   6.717 -0.0653  0.8416  1.8589
   80MOL    H6338141   3.995   5.396   6.579  0.8197 -0.0196 -0.8217
   80MOL    H6438142   4.141   5.467   6.839  0.1949  0.1187 -0.5441
   80MOL    H6538143   4.094   5.601   6.761  0.8497  0.3631  1.5306
   80MOL    H6638144   4.321   5.536   6.697 -0.3466 -0.3401  1.6042
   80MOL    H6738145   4.211   5.513   6.557 -0.0252  0.9031  0.5589
   80MOL    H6838146   4.330   5.304   6.749 -0.1089  1.0550 -0.4211
   80MOL    H6938147   4.217   5.256   6.614 -0.2250 -0.6024 -0.1026
   80MOL    H7038148   4.598   5.274   6.415 -0.5275 -1.8528 -0.6242
   80MOL    H7138149   4.561   5.412   6.321 -1.3999  0.7662 -0.5163
   80MOL    H7238150   4.436   5.136   6.264  0.4433 -0.6293 -0.1391
   80MOL    H7338151   4.491   5.263   6.147 -0.0370 -1.6584 -1.2924
   80MOL    O7438152   4.623   5.006   6.209 -0.6202 -0.6964 -0.0961
   80MOL    C7538153   4.740   4.930   6.171  0.0791  0.3873 -0.2055
   80MOL    C7638154   4.698   4.782   6.160  0.0828 -0.2392 -0.1493
   80MOL    C7738155   4.652   4.707   6.284  0.3306 -0.1121 -0.2066
   80MOL    C7838156   4.756   4.669   6.390  0.4398 -0.2533 -0.0730
   80MOL    O7938157   4.690   4.615   6.501 -0.3386  0.0318 -0.0653
   80MOL    C8038158   4.703   4.494   6.530 -0.0171  0.5084 -0.5165
   80MOL    O8138159   4.758   4.411   6.460  0.5197 -0.0341  0.2550
   80MOL    C8238160   4.640   4.456   6.660  0.2371 -1.1684  0.0632
   80MOL    C8338161   4.520   4.361   6.639 -0.2425  0.1244  0.5657
   80MOL    C8438162   4.388   4.421   6.604 -0.0932  0.0370  1.4186
   80MOL    O8538163   4.355   4.537   6.642 -0.2988 -0.5774  0.0927
   80MOL    H8638164   4.780   4.961   6.075  1.0927  1.8502  0.6709
   80MOL    H8738165   4.819   4.928   6.246  0.7024  1.6453 -0.8162
   80MOL    H8838166   4.785   4.726   6.126 -0.3094 -0.7724 -0.2830
   80MOL    H8938167   4.621   4.773   6.083  0.5313 -1.2232 -0.4902
   80MOL    H9038168   4.610   4.616   6.242  0.4859 -0.5580  0.5938
   80MOL    H9138169   4.568   4.766   6.323  1.3721  1.6912 -0.6238
   80MOL    H9238170   4.835   4.603   6.354  1.4285 -0.9631  3.2325
   80MOL    H9338171   4.796   4.762   6.432  0.0088  0.1954 -0.6394
   80MOL    H9438172   4.601   4.546   6.708 -0.6806 -0.5847 -1.7299
   80MOL    H9538173   4.722   4.412   6.718  0.3795  0.8590  1.4573
   80MOL    H9638174   4.552   4.294   6.558 -1.2167  0.2610  0.0573
   80MOL    H9738175   4.503   4.295   6.724  1.3923 -1.8208 -0.5695
   80MOL    O9838176   4.309   4.343   6.521 -0.2055 -0.0230 -0.1579
   80MOL    C9938177   4.174   4.372   6.494  0.0680 -0.3535  0.3950
   80MOL   C10038178   4.088   4.254   6.545  0.2761 -0.1030 -0.4181
   80MOL   C10138179   4.078   4.230   6.700 -0.5691 -0.1737  0.2579
   80MOL   C10238180   3.963   4.144   6.755  0.1816 -0.2666 -0.0536
   80MOL   O10338181   3.957   4.157   6.895  0.5667  0.1228 -0.3519
   80MOL   C10438182   3.836   4.154   6.950 -0.4785 -0.0980  0.3705
   80MOL   O10538183   3.726   4.145   6.896  0.1430 -0.4332 -0.1735
   80MOL   C10638184   3.846   4.184   7.096 -0.4185  1.4093  0.5643
   80MOL   C10738185   3.730   4.129   7.185  0.1654  0.0406 -0.1313
   80MOL   C10838186   3.768   4.003   7.269  0.4876  0.3536 -0.5086
   80MOL   O10938187   3.758   4.013   7.392 -1.0443 -0.7150  0.3972
   80MOL   H11038188   4.138   4.462   6.544 -0.7206 -0.6334  0.3376
   80MOL   H11138189   4.150   4.379   6.388 -1.9672 -1.5703  0.7580
   80MOL   H11238190   4.122   4.160   6.501 -2.0334 -1.7665  1.2028
   80MOL   H11338191   3.990   4.274   6.501  0.3067 -0.3006 -0.5806
   80MOL   H11438192   4.058   4.329   6.741  0.8600  0.1306  0.2503
   80MOL   H11538193   4.173   4.213   6.750 -0.3461 -0.2586 -0.1876
   80MOL   H11638194   3.874   4.178   6.702  1.5874 -0.2383 -2.4729
   80MOL   H11738195   3.976   4.038   6.735  0.0426 -0.5567  1.3082
   80MOL   H11838196   3.869   4.290   7.108 -4.4092  2.1189  2.8590
   80MOL   H11938197   3.937   4.137   7.134 -1.8979 -2.1588 -0.0787
   80MOL   H12038198   3.705   4.207   7.258  2.3672  0.0725  0.6133
   80MOL   H12138199   3.638   4.118   7.128 -0.0114 -0.7249  0.2883
   80MOL   O12238200   3.804   3.891   7.196 -0.2108 -0.2911 -0.4490
   80MOL   C12338201   3.821   3.769   7.274 -0.3032 -0.2859 -0.3919
   80MOL   C12438202   3.862   3.654   7.185 -0.4302  0.5327  0.0139
   80MOL   C12538203   3.859   3.518   7.256  0.4978 -0.2469 -0.3420
   80MOL   C12638204   3.897   3.386   7.192  1.3551  1.1928  0.1736
   80MOL   O12738205   4.032   3.383   7.161 -0.1578  0.5050  0.1364
   80MOL   C12838206   4.074   3.402   7.030  0.0027  0.5881 -0.6771
   80MOL   O12938207   4.001   3.440   6.937  0.0727  0.2900  0.3275
   80MOL   C13038208   4.225   3.388   7.014  0.3398  0.1030 -0.3473
   80MOL   C13138209   4.285   3.254   7.066  0.2779 -0.0044  0.2636
   80MOL   C13238210   4.410   3.280   7.151  0.4402  0.2653 -0.2476
   80MOL   O13338211   4.459   3.392   7.169 -0.0588  0.1306 -0.4701
   80MOL   H13438212   3.901   3.792   7.345  0.6690 -0.6947 -1.3291
   80MOL   H13538213   3.734   3.746   7.334  0.0725 -2.0131 -0.4815
   80MOL   H13638214   3.950   3.666   7.122  0.0084  0.6148  0.6353
   80MOL   H13738215   3.781   3.650   7.113 -1.3813 -0.0364  1.0904
   80MOL   H13838216   3.759   3.509   7.298  1.0896  0.8796  1.3653
   80MOL   H13938217   3.929   3.532   7.339  0.9485 -0.9144 -0.5997
   80MOL   H14038218   3.869   3.301   7.255  0.3676 -0.5655 -2.5692
   80MOL   H14138219   3.847   3.377   7.096 -0.3204  0.5783  1.0912
   80MOL   H14238220   4.272   3.464   7.077  0.0745  1.1832 -1.4378
   80MOL   H14338221   4.267   3.400   6.914 -1.0081 -0.3328 -0.9788
   80MOL   H14438222   4.216   3.196   7.127  1.5639 -0.9094  0.8571
   80MOL   H14538223   4.305   3.185   6.984  0.0183  0.0889  0.1187
   80MOL   O14638224   4.448   3.180   7.217 -0.2114 -0.7761 -0.0307
   80MOL   C14738225   4.541   3.192   7.328  0.2830 -0.2584  0.0873
   80MOL   C14838226   4.519   3.074   7.430  0.3386  0.1781 -0.1153
   80MOL   C14938227   4.609   3.070   7.546 -0.3246  0.0827 -0.0204
   80MOL   C15038228   4.592   3.192   7.636  0.2289  0.4033 -0.1315
   80MOL   O15138229   4.652   3.161   7.767  0.6176 -0.0196 -0.3334
   80MOL   C15238230   4.578   3.082   7.852  0.4932 -0.2852 -0.3783
   80MOL   O15338231   4.462   3.043   7.835  0.0336  0.4072  0.5857
   80MOL   C15438232   4.657   3.061   0.104  0.0824  0.8220 -0.4788
   80MOL   C15538233   4.631   3.162   0.219 -0.4045 -0.4775 -0.0054
   80MOL   C15638234   4.521   3.110   0.316 -0.4788 -0.0032 -0.1655
   80MOL   O15738235   4.540   3.055   0.427  0.5822  0.6517 -0.0454
   80MOL   H15838236   4.644   3.185   7.292  0.5375 -1.8243  1.1028
   80MOL   H15938237   4.547   3.291   7.374 -2.3026 -1.1934  2.5606
   80MOL   H16038238   4.541   2.982   7.375 -1.1758 -1.1949  1.5275
   80MOL   H16138239   4.414   3.063   7.457  0.3809  0.1936  0.0550
   80MOL   H16238240   4.713   3.074   7.512 -1.0032  1.7201 -1.9292
   80MOL   H16338241   4.598   2.977   7.603  2.3946  0.2731  0.8928
   80MOL   H16438242   4.652   3.275   7.598 -1.3262  1.6119  0.0065
   80MOL   H16538243   4.487   3.223   7.631 -0.0259 -0.5624 -0.9815
   80MOL   H16638244   4.764   3.052   0.086  0.0259 -0.3131 -0.2743
   80MOL   H16738245   4.622   2.967   0.145  0.5382  1.3567  1.1935
   80MOL   H16838246   4.719   3.176   0.280  0.7968 -0.4241 -1.7077
   80MOL   H16938247   4.599   3.257   0.175 -0.7683 -0.2029  0.8441
   80MOL   O17038248   4.397   3.145   0.267 -0.1514  0.0597  0.3606
   80MOL   C17138249   4.281   3.101   0.340  0.5206 -0.3539 -0.5260
   80MOL   C17238250   4.165   3.101   0.242 -0.3879 -0.0372  1.1407
   80MOL   C17338251   4.052   3.011   0.282 -0.7531 -0.1677 -0.1370
   80MOL   C17438252   3.928   3.037   0.189 -0.3114  0.7378 -0.7958
   80MOL   O17538253   3.957   3.031   0.058 -0.1154 -0.1143  0.2221
   80MOL   C17638254   3.858   3.024   7.838 -0.7353 -0.7278  0.1645
   80MOL   O17738255   3.737   3.023   7.857  0.4498  0.1676  0.2869
   80MOL   C17838256   3.907   3.017   7.696  0.5612  0.0593 -0.1348
   80MOL   C17938257   3.989   3.141   7.654  0.5711  0.0753  0.3081
   80MOL   C18038258   4.107   3.096   7.562  1.0888 -0.1809  1.2225
   80MOL   O18138259   4.217   3.125   7.602 -0.4549 -0.6265 -0.3442
   80MOL   H18238260   4.300   2.997   0.366  2.1966  0.2496  0.7516
   80MOL   H18338261   4.266   3.154   0.434 -1.2720  0.4049 -1.2148
   80MOL   H18438262   4.211   3.070   0.148 -0.0564  0.1771  1.2319
   80MOL   H18538263   4.133   3.204   0.230  0.5098  0.2103  0.9107
   80MOL   H18638264   4.020   3.034   0.384  2.3679  0.3604  0.7864
   80MOL   H18738265   4.079   2.905   0.278 -1.6390 -0.4083 -0.0567
   80MOL   H18838266   3.844   2.970   0.205 -0.5516  0.5592 -2.7060
   80MOL   H18938267   3.888   3.137   0.207  0.6601  0.8705  0.6789
   80MOL   H19038268   3.831   3.006   7.619 -0.3760 -0.0477  0.7912
   80MOL   H19138269   3.969   2.929   7.676 -0.7560 -0.5870 -1.3865
   80MOL   H19238270   3.936   3.208   7.586  1.7696  1.9885  1.2038
   80MOL   H19338271   4.027   3.205   7.734  1.5362  0.3838 -0.3901
   80MOL   O19438272   4.068   3.042   7.442  0.2429 -0.2852  0.0067
   80MOL   C19538273   4.161   3.008   7.340 -0.6331 -0.0211 -0.4452
   80MOL   C19638274   4.224   2.869   7.363 -0.3055 -1.4820 -0.5036
   80MOL   C19738275   4.318   2.832   7.252 -0.2621  1.5175  0.0419
   80MOL   C19838276   4.416   2.702   7.279  0.0096  0.0837  0.6254
   80MOL   O19938277   4.336   2.589   7.310  0.1717 -0.2350 -0.7108
   80MOL   C20038278   4.292   2.507   7.207  0.2068  0.3125 -0.0422
   80MOL   O20138279   4.323   2.514   7.093  0.7991 -0.4994  0.3100
   80MOL   C20238280   4.199   2.393   7.251 -0.2610  0.2594 -0.6413
   80MOL   C20338281   4.182   2.394   7.408  0.2772 -0.3116 -0.0382
   80MOL   C20438282   4.093   2.497   7.474 -0.2027 -0.2454 -1.2388
   80MOL   O20538283   3.982   2.522   7.421 -0.0570 -0.2939  0.3432
   80MOL   H20638284   4.110   3.011   7.243 -0.1988  1.1826 -0.6434
   80MOL   H20738285   4.231   3.090   7.328 -2.4356  1.4786 -1.0548
   80MOL   H20838286   4.141   2.799   7.379 -2.1428 -0.0302 -3.2083
   80MOL   H20938287   4.264   2.853   7.463 -1.1110  0.4428  0.1427
   80MOL   H21038288   4.390   2.910   7.225 -0.4689  1.2214 -1.4190
   80MOL   H21138289   4.262   2.815   7.160  2.6683 -1.3403 -1.3426
   80MOL   H21238290   4.467   2.693   7.184  0.1401 -1.0364  0.7902
   80MOL   H21338291   4.489   2.715   7.359 -0.2967 -0.3720  0.9897
   80MOL   H21438292   4.227   2.294   7.217 -0.1287 -0.8534  2.5747
   80MOL   H21538293   4.102   2.402   7.203 -0.6571  1.6016  0.3769
   80MOL   H21638294   4.146   2.294   7.430  0.1501 -0.0972  0.7717
   80MOL   H21738295   4.274   2.395   7.467  1.3622 -1.0085 -1.6960
   80MOL   O21838296   4.140   2.549   7.584  0.1234 -0.3765 -0.1529
   80MOL   C21938297   4.057   2.629   7.662 -0.3613  0.0769 -1.3308
   80MOL   C22038298   4.120   2.657   7.795  0.1977 -0.4888  0.9379
   80MOL   C22138299   4.245   2.748   7.807  0.1718 -0.8368 -0.1284
   80MOL   C22238300   4.270   2.800   0.071  0.1638 -0.1026 -0.2556
   80MOL   O22338301   4.308   2.707   0.170  0.6277  0.5924 -0.0207
   80MOL   C22438302   4.433   2.663   0.170 -0.7892 -0.0251  0.1583
   80MOL   O22538303   4.508   2.684   0.077 -0.0236  0.5169 -0.4795
   80MOL   C22638304   4.467   2.568   0.279 -0.2975 -0.2570  0.3242
   80MOL   C22738305   4.473   2.637   0.417 -0.8827  0.1407  0.3633
   80MOL   C22838306   4.613   2.637   0.483  0.1228  0.0334 -0.2840
   80MOL   O22938307   4.629   2.607   0.603 -0.4811  0.3616  0.6548
   80MOL   H23038308   4.018   2.711   7.601 -0.4757 -0.2774 -1.7399
   80MOL   H23138309   3.967   2.568   7.668 -0.4938  0.3932 -0.0767
   80MOL   H23238310   4.150   2.567   7.849 -2.3247 -1.0731  1.4254
   80MOL   H23338311   4.044   2.705   7.856 -0.2752 -0.5048  0.3663
   80MOL   H23438312   4.225   2.837   7.747 -0.9941  0.6582  2.3883
   80MOL   H23538313   4.331   2.694   7.768  2.1104  0.1572  2.6574
   80MOL   H23638314   4.339   2.884   0.073  0.8613 -0.6537 -1.1334
   80MOL   H23738315   4.183   2.850   0.115  2.1398  2.5252  0.8137
   80MOL   H23838316   4.558   2.515   0.249 -0.7709  0.8057 -3.1552
   80MOL   H23938317   4.388   2.492   0.278 -0.3205 -0.2243 -0.5810
   80MOL   H24038318   4.455   2.742   0.392 -1.2177  0.1257  0.5371
   80MOL   H24138319   4.393   2.621   0.489 -0.8432  2.7235  1.0474
   80MOL   O24238320   4.703   2.684   0.399 -0.5222 -0.4735  0.0710
   80MOL   C24338321   4.833   2.706   0.443 -0.6514  0.4909 -0.2929
   80MOL   C24438322   4.892   2.828   0.364 -0.5767 -0.2134  0.7032
   80MOL   C24538323   4.951   2.774   0.236 -0.6888 -0.4413  0.3319
   80MOL   C24638324   5.023   2.886   0.158  0.0268  0.1244  0.4609
   80MOL   O24738325   5.162   2.899   0.204  0.7208  0.4913  0.1457
   80MOL   C24838326   5.261   2.856   0.127 -0.6069  0.2440  0.2009
   80MOL   O24938327   5.256   2.804   0.013  0.0026  0.1221 -0.5756
   80MOL   C25038328   5.401   2.886   0.183  0.1135 -0.0076  0.0402
   80MOL   C25138329   5.443   2.765   0.277  0.8400  0.1883  0.5362
   80MOL   C25238330   5.575   2.788   0.356  0.5984  0.5925  0.6549
   80MOL   O25338331   5.631   2.694   0.411  0.1315 -0.3160  0.1288
   80MOL   H25438332   4.840   2.729   0.549  5.1087 -0.1185 -0.3774
   80MOL   H25538333   4.892   2.615   0.437 -1.4904 -0.0604 -0.1085
   80MOL   H25638334   4.967   2.880   0.423 -0.3998 -0.3873  0.6330
   80MOL   H25738335   4.810   2.898   0.344 -0.2021 -0.0086 -0.1164
   80MOL   H25838336   4.877   2.722   0.176  0.1830 -1.2288 -0.0662
   80MOL   H25938337   5.027   2.701   0.262  1.0362  0.2110 -2.5802
   80MOL   H26038338   5.022   2.869   0.051 -0.3691  2.8277  0.0118
   80MOL   H26138339   4.973   2.980   0.179  0.6345  0.1198  2.0761
   80MOL   H26238340   5.391   2.982   0.234 -2.0454 -0.3059  0.1888
   80MOL   H26338341   5.476   2.896   0.104 -1.7240  2.2279 -1.4814
   80MOL   H26438342   5.367   2.752   0.354  0.2738 -0.2250 -0.0876
   80MOL   H26538343   5.447   2.668   0.229 -0.4809  1.3027 -1.9559
   80MOL   O26638344   5.632   2.915   0.343 -0.2348 -0.3132 -0.9020
   80MOL   C26738345   5.751   2.951   0.410  0.5467  0.1274  0.1677
   80MOL   C26838346   5.798   3.092   0.378  0.4301  0.2300  0.4102
   80MOL   C26938347   5.946   3.114   0.409  0.2494 -0.1292 -0.0047
   80MOL   C27038348   5.980   3.260   0.472 -0.4689 -0.6816  0.6337
   80MOL   O27138349   6.115   3.264   0.513 -0.0730  0.4135 -0.1614
   80MOL   C27238350   6.204   3.356   0.459 -0.0008  0.5886  0.3582
   80MOL   O27338351   6.178   3.454   0.401  0.1968 -0.0393  0.1058
   80MOL   C27438352   6.350   3.317   0.478 -0.2220  0.2827  0.0651
   80MOL   C27538353   6.413   3.384   0.604  0.2720 -0.6007  0.5392
   80MOL   C27638354   6.348   3.335   0.738  0.4545  0.1802 -0.2150
   80MOL   O27738355   6.369   3.220   0.777  0.0680 -0.3011 -0.0161
   80MOL   H27838356   5.727   2.932   0.514 -0.9284 -4.0285 -0.8050
   80MOL   H27938357   5.827   2.876   0.387 -0.7418 -1.0732 -0.3066
   80MOL   H28038358   5.737   3.164   0.433 -1.4710 -1.9332  1.1761
   80MOL   H28138359   5.774   3.112   0.274  0.0510  1.7854  0.7830
   80MOL   H28238360   6.013   3.114   0.322 -1.0792  1.5232 -1.0616
   80MOL   H28338361   5.973   3.032   0.474 -0.2595  0.0771  0.4674
   80MOL   H28438362   5.951   3.325   0.389  1.0156 -1.1733 -0.2849
   80MOL   H28538363   5.906   3.277   0.550 -1.5199  0.9275 -0.6818
   80MOL   H28638364   6.409   3.333   0.388  0.1858 -0.3390  0.2220
   80MOL   H28738365   6.349   3.209   0.487  0.1509  0.2586 -0.1837
   80MOL   H28838366   6.515   3.348   0.620  0.7956  0.6822  0.1248
   80MOL   H28938367   6.411   3.492   0.593  0.8800 -0.5743  0.6916
   80MOL   O29038368   6.269   3.419   0.795 -0.8181 -0.4130  0.4409
   80MOL   C29138369   6.218   3.399   0.926  0.7460  0.1985  0.4961
   80MOL   C29238370   6.070   3.411   0.932 -0.5095 -0.4829  0.2878
   80MOL   C29338371   6.011   3.543   0.876  0.1679 -0.5646 -0.7581
   80MOL   C29438372   5.859   3.546   0.858  0.2764 -0.0259 -0.1363
   80MOL   O29538373   5.804   3.554   0.988 -0.3372 -0.1348  0.3499
   80MOL   C29638374   5.695   3.481   1.024  0.2355 -0.1824  0.9410
   80MOL   O29738375   5.608   3.429   0.947  0.1654  0.0306  0.2445
   80MOL   C29838376   5.691   3.472   1.173 -0.4703  0.1414 -0.5247
   80MOL   C29938377   5.555   3.449   1.245  0.3285 -0.2613  0.0192
   80MOL   C30038378   5.549   3.512   1.388 -0.6452 -0.6442 -0.1345
   80MOL   O30138379   5.468   3.605   1.405 -0.0230  0.4338  0.1634
   80MOL   H30238380   6.251   3.302   0.963 -1.6727 -1.7549 -2.2470
   80MOL   H30338381   6.261   3.473   0.994  2.6043 -1.4836  1.1863
   80MOL   H30438382   6.042   3.405   1.037 -0.4893  0.9240  0.3839
   80MOL   H30538383   6.038   3.321   0.879 -0.5746 -0.4725  0.3091
   80MOL   H30638384   6.040   3.559   0.772  1.3145 -1.1283 -0.5323
   80MOL   H30738385   6.065   3.623   0.927  0.9543 -0.5967 -1.5170
   80MOL   H30838386   5.824   3.630   0.798 -1.4620  0.2460  1.2001
   80MOL   H30938387   5.825   3.451   0.816 -1.1904 -0.1004  1.1789
   80MOL   H31038388   5.728   3.567   1.212 -0.3434 -0.8044  1.7494
   80MOL   H31138389   5.754   3.391   1.211  1.1494  1.8844  0.6264
   80MOL   H31238390   5.484   3.502   1.181  0.5478 -1.2006 -1.0190
   80MOL   H31338391   5.540   3.342   1.253 -0.0208 -0.1167  1.3630
   80MOL   O31438392   5.639   3.461   1.475 -0.1579 -0.2183 -0.1487
   80MOL   C31538393   5.656   3.511   1.608 -0.5198 -0.0012  0.8493
   80MOL   C31638394   5.753   3.411   1.675  0.1950 -0.5202 -0.5442
   80MOL   C31738395   5.763   3.420   1.824 -0.5015  0.2338 -0.6059
   80MOL   C31838396   5.840   3.301   1.893  0.4248  0.4032 -0.0403
   80MOL   O31938397   5.891   3.342   2.018 -0.0699  0.4648  0.0734
   80MOL   C32038398   6.010   3.297   2.069 -0.0038  0.6342 -0.1199
   80MOL   O32138399   6.094   3.223   2.009 -0.1105 -0.3748 -0.0967
   80MOL   C32238400   6.040   3.331   2.210 -0.2785 -0.3031  0.1919
   80MOL   C32338401   6.060   3.482   2.225  0.2745 -1.0153  0.0185
   80MOL   C32438402   5.930   3.560   2.242  0.2254 -0.2289 -0.3285
   80MOL   O32538403   5.850   3.531   2.329 -0.4223  0.2078 -0.4716
   80MOL   H32638404   5.699   3.611   1.608  1.0017 -0.6522  0.9288
   80MOL   H32738405   5.563   3.531   1.663  0.1286  1.9517  1.2926
   80MOL   H32838406   5.853   3.408   1.630  0.6350 -1.6674  0.4721
   80MOL   H32938407   5.721   3.310   1.652 -0.2328 -0.2338 -1.2293
   80MOL   H33038408   5.663   3.423   1.868 -0.2474  1.6101 -0.0892
   80MOL   H33138409   5.806   3.518   1.845 -0.1026  0.7974 -3.8189
   80MOL   H33238410   5.768   3.220   1.905 -0.9580  1.8830  1.9811
   80MOL   H33338411   5.910   3.259   1.821 -0.5641 -0.4304 -0.5216
   80MOL   H33438412   6.125   3.274   2.245  0.3893  0.3137 -0.4127
   80MOL   H33538413   5.967   3.287   2.278 -0.6418  0.5476  0.3621
   80MOL   H33638414   6.119   3.505   2.313  0.6015 -0.6861 -0.2840
   80MOL   H33738415   6.115   3.514   2.136 -0.0820 -2.2725 -0.6636
   80MOL   O33838416   5.919   3.663   2.166  0.3848  0.0899 -0.1958
   80MOL   C33938417   5.799   3.743   2.173  0.1425 -0.1798 -1.0396
   80MOL   C34038418   5.815   3.876   2.098 -0.3646 -0.0032 -0.9897
   80MOL   C34138419   5.946   3.960   2.129  0.3888 -0.2765 -0.8533
   80MOL   C34238420   5.971   4.070   2.026  0.0169  0.2740 -0.1547
   80MOL   O34338421   5.868   4.158   2.050 -0.1217  0.5643 -0.0904
   80MOL   C34438422   5.856   4.273   1.976 -0.0759  0.1578 -0.6468
   80MOL   O34538423   5.917   4.292   1.876  0.4738 -0.0786 -0.3697
   80MOL   C34638424   5.755   4.369   2.033  0.2879  0.0027 -0.1045
   80MOL   C34738425   5.814   4.446   2.151 -0.1909  0.7945  0.0350
   80MOL   C34838426   5.815   4.359   2.282  1.0135  1.0422  0.2539
   80MOL   O34938427   5.706   4.319   2.331  0.4490  0.2672 -0.3030
   80MOL   H35038428   5.710   3.689   2.143 -0.0021 -2.1226  2.5910
   80MOL   H35138429   5.774   3.767   2.276 -0.3237 -0.0763 -1.1759
   80MOL   H35238430   5.729   3.939   2.117 -0.7934 -1.5538  2.4422
   80MOL   H35338431   5.813   3.852   1.991  0.1866  0.7799 -1.1780
   80MOL   H35438432   6.032   3.894   2.132  1.1818  0.7929  0.1912
   80MOL   H35538433   5.938   4.000   2.230  0.5816  0.0165 -0.9520
   80MOL   H35638434   6.069   4.117   2.041  1.7829 -2.9593 -1.0838
   80MOL   H35738435   5.974   4.030   1.925  2.1371 -0.3180  0.1070
   80MOL   H35838436   5.660   4.324   2.063  0.7330 -0.1454  1.1328
   80MOL   H35938437   5.738   4.430   1.944  2.0986 -0.0259 -0.4962
   80MOL   H36038438   5.917   4.478   2.136 -0.2506 -0.0144 -2.3912
   80MOL   H36138439   5.744   4.527   2.169 -1.7354 -0.0942 -1.7559
   80MOL   O36238440   5.941   4.319   2.321 -0.1847  0.7173 -0.0685
   80MOL   C36338441   5.954   4.239   2.433 -0.2727  0.1703 -0.3926
   80MOL   C36438442   6.102   4.224   2.465 -0.4863  0.4692 -0.3256
   80MOL   C36538443   6.179   4.170   2.353  0.0468 -0.1089  0.2540
   80MOL   C36638444   6.323   4.136   2.386  0.3138 -0.3085 -0.0524
   80MOL   O36738445   6.388   4.256   2.420 -0.1702  0.4895  0.0622
   80MOL   C36838446   6.501   4.249   2.494  0.3232 -0.3618  0.1347
   80MOL   O36938447   6.555   4.149   2.542  0.1500  0.0609 -0.4926
   80MOL   C37038448   6.565   4.379   2.504  0.4963 -0.0528  0.0129
   80MOL   C37138449   6.544   4.435   2.644 -1.1442 -0.1169  0.6366
   80MOL   C37238450   6.403   4.493   2.676 -0.0115  0.1386 -0.4098
   80MOL   O37338451   6.333   4.438   2.763  0.0342 -0.0289 -0.2984
   80MOL   H37438452   5.905   4.284   2.520 -0.0153 -0.8594  0.2937
   80MOL   H37538453   5.898   4.147   2.414  0.3467 -0.1838 -0.5054
   80MOL   H37638454   6.118   4.148   2.541 -0.6045 -0.0289 -0.8039
   80MOL   H37738455   6.144   4.320   2.497 -2.1381  0.4784  1.9256
   80MOL   H37838456   6.182   4.253   2.283 -2.4876 -0.3881 -0.2298
   80MOL   H37938457   6.124   4.091   2.302 -0.8017  0.6992 -0.0942
   80MOL   H38038458   6.326   4.054   2.458 -1.5968 -0.4046 -0.0553
   80MOL   H38138459   6.375   4.094   2.300  0.4365 -1.6526  0.6648
   80MOL   H38238460   6.523   4.450   2.433  1.7570 -0.1697 -0.8838
   80MOL   H38338461   6.671   4.379   2.476  0.2458  1.5177 -1.0449
   80MOL   H38438462   6.564   4.361   2.721  0.3727 -0.8359 -0.4360
   80MOL   H38538463   6.610   4.520   2.661  1.4184 -1.7402 -1.0166
   80MOL   O38638464   6.361   4.592   2.590  0.0558 -0.7343  0.3544
   80MOL   C38738465   6.226   4.637   2.603  0.0003  0.1911 -0.2766
   80MOL   C38838466   6.213   4.738   2.722  0.0114  0.1785 -0.6044
   80MOL   C38938467   6.071   4.789   2.739  0.1222 -0.5591  0.3100
   80MOL   C39038468   6.043   4.849   2.876 -0.4211 -0.6609  0.0811
   80MOL   O39138469   5.919   4.921   2.881  0.5634 -0.1002 -0.5100
   80MOL   C39238470   5.810   4.866   2.925 -0.2593  0.3783 -0.1226
   80MOL   O39338471   5.797   4.743   2.940 -0.1042  0.0309 -0.2358
   80MOL   C39438472   5.695   4.965   2.966  0.7087 -0.3173 -0.2990
   80MOL   C39538473   5.727   5.031   3.098 -0.0999 -0.1538 -0.1975
   80MOL   C39638474   5.738   5.181   3.112  1.1197  0.0495 -0.0041
   80MOL   O39738475   5.841   5.242   3.086 -0.0254  0.3059 -0.0937
   80MOL   H39838476   6.208   4.691   2.510  1.0751  0.4483 -0.3402
   80MOL   H39938477   6.144   4.565   2.605  2.0510 -2.1978 -0.6868
   80MOL   H40038478   6.296   4.810   2.723 -1.2004  1.6043  0.1188
   80MOL   H40138479   6.227   4.672   2.808 -2.8207 -1.4269 -1.3420
   80MOL   H40238480   5.998   4.708   2.732 -0.3321 -0.1616  0.3951
   80MOL   H40338481   6.031   4.859   2.666 -2.4270 -2.9566 -0.6307
   80MOL   H40438482   6.043   4.777   2.957  1.3988 -3.4456 -2.2425
   80MOL   H40538483   6.114   4.931   2.893  0.1258 -1.2980  0.8982
   80MOL   H40638484   5.621   4.889   2.988  0.4581  0.0251  0.0505
   80MOL   H40738485   5.667   5.032   2.885 -2.1772 -0.0627  0.8568
   80MOL   H40838486   5.657   4.995   3.173  0.2224  0.1652  0.2571
   80MOL   H40938487   5.827   5.002   3.130  0.6475  1.3296 -1.0941
   80MOL   O41038488   5.621   5.242   3.152  0.3438 -0.1596  0.1937
   80MOL   C41138489   5.618   5.385   3.168 -0.5336  0.3751  0.1000
   80MOL   C41238490   5.480   5.456   3.150  0.3895 -0.3213  0.2490
   80MOL   C41338491   5.370   5.406   3.254 -0.4323 -0.0408 -0.5319
   80MOL   C41438492   5.242   5.491   3.244  0.2156 -0.6205 -0.2536
   80MOL   O41538493   5.164   5.452   3.353 -0.0810  0.2483  0.8075
   80MOL   C41638494   5.129   5.532   3.440  0.0575 -0.0807  0.6019
   80MOL   O41738495   5.164   5.653   3.453  0.7348 -0.1706 -0.1568
   80MOL   C41838496   5.044   5.464   3.541  0.1962  0.1709  0.6670
   80MOL   C41938497   5.098   5.479   3.686 -0.0110 -0.2109 -0.1595
   80MOL   C42038498   5.034   5.607   3.751 -0.3299 -0.5374  0.1694
   80MOL   O42138499   4.917   5.605   3.785  0.1254 -0.0837  0.0565
   80MOL   H42238500   5.655   5.401   3.269 -1.7540  2.3411  0.2716
   80MOL   H42338501   5.687   5.427   3.095 -0.6939 -0.8163 -0.7514
   80MOL   H42438502   5.448   5.455   3.045 -1.5332  0.0976  0.7989
   80MOL   H42538503   5.493   5.562   3.168 -2.5586  0.2092 -0.3617
   80MOL   H42638504   5.415   5.415   3.353 -3.3250  1.9253  0.6656
   80MOL   H42738505   5.352   5.301   3.231 -0.2404 -0.1044 -0.3993
   80MOL   H42838506   5.267   5.597   3.245 -1.9306 -0.0715 -1.3511
   80MOL   H42938507   5.202   5.468   3.145  0.5712 -1.3380 -0.2343
   80MOL   H43038508   5.038   5.363   3.501 -1.5670 -1.1164  4.0231
   80MOL   H43138509   4.943   5.502   3.530  0.0090 -0.7673 -1.0661
   80MOL   H43238510   5.058   5.393   3.739 -1.4479 -0.2596 -1.2794
   80MOL   H43338511   5.207   5.477   3.692 -0.0388 -1.5215 -0.0235
   80MOL   O43438512   5.125   5.712   3.751  0.3618  1.0914 -0.0150
   80MOL   C43538513   5.078   5.831   3.805  0.7951 -0.2081  0.1835
   80MOL   C43638514   5.180   5.939   3.767  0.1793 -0.3193  0.2606
   80MOL   C43738515   5.321   5.913   3.824  0.3983 -0.6697  0.3186
   80MOL   C43838516   5.423   6.003   3.761 -0.0967  0.5740 -0.4070
   80MOL   O43938517   5.558   5.961   3.793 -0.3062 -0.2812 -0.2509
   80MOL   C44038518   5.666   6.043   3.759 -0.4062  0.4151  0.4909
   80MOL   O44138519   5.653   6.146   3.686  0.2307  0.2247  0.0910
   80MOL   C44238520   5.808   6.000   3.808  0.2768 -0.5948  0.5631
   80MOL   C44338521   5.819   5.994   3.961  0.3985 -0.0632  0.0091
   80MOL   C44438522   5.794   6.132   4.019 -0.1727 -0.4378  0.3200
   80MOL   O44538523   5.888   6.214   4.053  0.3655 -0.5062  0.0144
   80MOL   H44638524   4.989   5.856   3.747 -0.3478 -1.4367  1.3804
   80MOL   H44738525   5.056   5.813   3.910  0.6880  1.0426  0.3743
   80MOL   H44838526   5.146   6.040   3.789  0.4813 -0.1102 -0.2390
   80MOL   H44938527   5.186   5.946   3.659 -0.8596 -0.0485  0.2212
   80MOL   H45038528   5.351   5.812   3.796  2.1886 -0.6203  1.9572
   80MOL   H45138529   5.318   5.928   3.932  3.4714  0.1976  0.3420
   80MOL   H45238530   5.412   5.991   3.653  1.5301 -1.6432 -0.3751
   80MOL   H45338531   5.397   6.107   3.779 -1.2539  0.4947 -1.5573
   80MOL   H45438532   5.874   6.071   3.758  2.3755 -1.5438  1.9237
   80MOL   H45538533   5.829   5.899   3.775  1.4267 -0.8146  1.9073
   80MOL   H45638534   5.736   5.934   3.999  0.6690 -0.6785 -0.3671
   80MOL   H45738535   5.910   5.953   4.007  1.3423  1.9236 -0.0351
   80MOL   O45838536   5.660   6.160   4.040 -0.2164 -0.2824  0.1612
   80MOL   C45938537   5.625   6.279   4.110  0.2922  0.2465 -0.1967
   80MOL   C46038538   5.478   6.302   4.138 -0.4258  0.4792  0.3757
   80MOL   C46138539   5.391   6.287   4.018  0.3151  0.1136 -0.1565
   80MOL   C46238540   5.241   6.309   4.053 -0.0171 -0.0585  0.2547
   80MOL   O46338541   5.191   6.213   4.147  0.0507 -0.4815  0.2810
   80MOL   C46438542   5.115   6.245   4.253  0.2945 -0.4626 -1.0446
   80MOL   O46538543   5.092   6.363   4.282  0.1497  0.5387  0.1207
   80MOL   C46638544   5.048   6.132   4.328 -0.3308 -0.3218  0.0273
   80MOL   C46738545   4.924   6.159   4.417  0.0976  0.0383 -0.8032
   80MOL   C46838546   4.963   6.185   4.562  0.1523  0.4805  1.3314
   80MOL   O46938547   5.083   6.211   4.596 -0.1088  0.0753 -0.0264
   80MOL   H47038548   5.686   6.266   4.200 -2.3181  0.5929  1.6793
   80MOL   H47138549   5.655   6.368   4.055  0.4808  0.4913  0.2951
   80MOL   H47238550   5.458   6.405   4.166 -1.4623  0.9867 -2.0843
   80MOL   H47338551   5.445   6.229   4.212  1.2309 -0.4849  0.1828
   80MOL   H47438552   5.386   6.185   3.981 -0.7916 -0.3458  1.2221
   80MOL   H47538553   5.412   6.359   3.939  1.7602  1.2175  1.1989
   80MOL   H47638554   5.214   6.410   4.086 -1.1711  0.2534 -1.6047
   80MOL   H47738555   5.179   6.283   3.967  0.9082  0.5555 -0.6079
   80MOL   H47838556   5.118   6.063   4.377  1.2308 -0.0363 -1.7639
   80MOL   H47938557   5.004   6.071   4.250 -0.4946 -0.4057  0.1850
   80MOL   H48038558   4.869   6.242   4.372 -1.0761 -1.3212 -1.9169
   80MOL   H48138559   4.858   6.073   4.422 -0.8738  0.7910 -0.5246
   80MOL   H48238560   4.879   6.176   4.632  1.2604  2.4699  2.9743
   81MOL     O138561   7.258   2.124   0.038 -0.4359  0.0414 -0.1758
   81MOL     C238562   7.115   2.123   0.030 -0.4438  0.4272  0.6502
   81MOL     C338563   7.043   2.078   0.156 -0.0593 -0.6225 -0.4617
   81MOL     C438564   7.060   2.170   0.280  0.2114  0.4560  0.9124
   81MOL     C538565   7.035   2.090   0.415  0.2274  0.5017 -0.0516
   81MOL     O638566   6.900   2.046   0.423  0.1859  0.1404  0.2814
   81MOL     C738567   6.853   1.980   0.530  0.5309 -0.7758 -0.2139
   81MOL     O838568   6.910   1.967   0.638  0.5079 -0.2650 -0.1112
   81MOL     C938569   6.714   1.916   0.510 -0.0753 -0.0502  0.0742
   81MOL    C1038570   6.620   1.979   0.412  0.0054  0.1958  0.0108
   81MOL    C1138571   6.638   1.913   0.270 -0.2986  0.7234  0.0547
   81MOL    O1238572   6.725   1.831   0.240  0.0375 -0.6128 -0.7247
   81MOL    H1338573   7.091   2.225   0.000 -0.9974 -0.2425 -1.2987
   81MOL    H1438574   7.090   2.055   7.823  0.3806 -0.4860  1.1498
   81MOL    H1538575   7.089   1.985   0.189 -1.7919 -1.1852  0.4362
   81MOL    H1638576   6.940   2.052   0.131 -0.5641 -0.2985  1.2215
   81MOL    H1738577   6.989   2.252   0.271 -0.4370 -0.3041 -1.1617
   81MOL    H1838578   7.165   2.198   0.282  0.1806  0.5366  2.0831
   81MOL    H1938579   7.094   2.000   0.434 -1.9416 -0.9727 -0.0320
   81MOL    H2038580   7.060   2.154   0.499 -1.6654  1.5297 -0.2531
   81MOL    H2138581   6.665   1.920   0.608 -0.0325 -1.9016  0.1945
   81MOL    H2238582   6.730   1.809   0.497  0.3858 -0.5475  4.0871
   81MOL    H2338583   6.514   1.980   0.440 -0.2732  1.2566 -1.0197
   81MOL    H2438584   6.661   2.080   0.406 -0.4105  0.3135 -1.0366
   81MOL    H2538585   7.285   2.207   0.002  2.2711  0.2296  2.0853
   81MOL    O2638586   6.539   1.954   0.182 -0.2434  1.1234  0.6848
   81MOL    C2738587   6.511   1.891   0.048 -0.0892  0.4059 -0.6137
   81MOL    C2838588   6.401   1.779   0.078 -0.3525  0.9944 -0.6445
   81MOL    C2938589   6.460   1.637   0.113  0.4463 -0.6138 -0.2239
   81MOL    C3038590   6.352   1.531   0.120 -0.8620 -0.9752  0.1123
   81MOL    O3138591   6.405   1.395   0.131 -0.2673 -0.1110 -0.4017
   81MOL    C3238592   6.428   1.320   0.020  0.5443  0.9362  0.4399
   81MOL    O3338593   6.422   1.357   7.774 -0.8055  0.4004 -0.5954
   81MOL    C3438594   6.460   1.179   0.059  0.1312  0.6215  0.2919
   81MOL    C3538595   6.433   1.072   7.826 -0.1415  0.2278  0.1699
   81MOL    C3638596   6.559   1.016   7.768  0.0128  0.6297 -0.3760
   81MOL    O3738597   6.672   1.065   7.796  0.0050 -0.2004 -0.1959
   81MOL    H3838598   6.463   1.966   7.859  0.9855  0.7169 -1.0814
   81MOL    H3938599   6.596   1.848   7.869  1.6934  3.2363 -0.2118
   81MOL    H4038600   6.350   1.757   7.859  1.7477 -1.3003 -1.2911
   81MOL    H4138601   6.323   1.814   0.146 -0.6225  0.4532 -0.6719
   81MOL    H4238602   6.521   1.647   0.202  0.5450 -0.5249 -0.3008
   81MOL    H4338603   6.531   1.601   0.038 -0.6643 -0.0652 -1.5786
   81MOL    H4438604   6.274   1.552   0.193 -0.5111  3.6048 -0.6756
   81MOL    H4538605   6.291   1.539   0.030 -0.0220 -2.4693 -0.6109
   81MOL    H4638606   6.418   1.158   0.157 -0.1007  0.7924  0.2302
   81MOL    H4738607   6.562   1.186   0.097  0.4765 -0.4235 -0.4051
   81MOL    H4838608   6.385   0.992   0.009 -0.7030  0.9064  0.6646
   81MOL    H4938609   6.366   1.106   7.747  0.7696 -1.1258 -1.2098
   81MOL    O5038610   6.543   0.907   7.684 -0.0220 -0.4577 -0.3211
   81MOL    C5138611   6.653   0.855   7.610 -0.6328  0.2231  0.0893
   81MOL    C5238612   6.760   0.779   7.696  0.6227  0.3838 -0.0943
   81MOL    C5338613   6.704   0.649   7.754 -0.1233  0.2822  0.7612
   81MOL    C5438614   6.785   0.587   7.859 -0.5002  0.1519 -0.0962
   81MOL    O5538615   6.696   0.506   0.070 -0.0394  0.0223  0.4133
   81MOL    C5638616   6.673   0.383   0.041 -0.2583 -0.0998  0.1878
   81MOL    O5738617   6.706   0.327   7.812  0.1882 -0.5701  0.5679
   81MOL    C5838618   6.589   0.314   0.146  0.6246 -0.5493  0.8521
   81MOL    C5938619   6.467   0.227   0.097  0.1160 -0.6848 -0.0920
   81MOL    C6038620   6.508   0.088   0.048  0.2636 -0.2750  0.2720
   81MOL    O6138621   6.432   0.028   7.847 -0.1428 -0.1751 -0.2338
   81MOL    H6238622   6.621   0.787   7.531 -1.4426 -0.3033  0.8644
   81MOL    H6338623   6.698   0.941   7.561 -0.3964 -0.3710 -0.7506
   81MOL    H6438624   6.801   0.846   7.770  0.0427  0.5265  0.0966
   81MOL    H6538625   6.847   0.757   7.634  1.7062 -0.2705  1.6342
   81MOL    H6638626   6.688   0.573   7.677 -1.0249  0.1733  1.0502
   81MOL    H6738627   6.606   0.674   7.796 -1.6350 -3.2964 -0.4342
   81MOL    H6838628   6.862   0.524   7.815 -3.0071 -2.4779 -0.8431
   81MOL    H6938629   6.840   0.658   0.048 -0.6888 -0.5183  0.8299
   81MOL    H7038630   6.541   0.382   0.216 -0.7381  1.1324 -1.6340
   81MOL    H7138631   6.657   0.251   0.204  2.8275  0.7816 -0.2305
   81MOL    H7238632   6.393   0.215   0.176 -1.0478  3.2288 -0.5276
   81MOL    H7338633   6.406   0.273   0.021  3.3092  1.1577 -1.6504
   81MOL    O7438634   6.628   0.047   0.092  0.0503  0.1388  0.0116
   81MOL    C7538635   6.700   7.815   0.031 -0.1099  0.5864 -0.4556
   81MOL    C7638636   6.790   0.004   7.803  0.6978  0.2867  0.0216
   81MOL    C7738637   6.913   0.068   7.864 -0.6013  0.0847 -0.1138
   81MOL    C7838638   7.014   0.087   7.746 -0.4971 -0.1771 -0.0855
   81MOL    O7938639   6.987   0.211   7.684 -0.0660 -0.0467 -0.1902
   81MOL    C8038640   6.949   0.216   7.554  0.0213 -0.5143 -0.1969
   81MOL    O8138641   6.941   0.128   7.468  0.0784 -0.0517  0.5103
   81MOL    C8238642   6.942   0.364   7.527  0.0262  0.0879  0.0574
   81MOL    C8338643   6.892   0.403   7.384 -0.1031  0.1088 -0.5097
   81MOL    C8438644   6.749   0.453   7.374 -0.1211 -0.8213  0.1692
   81MOL    O8538645   6.718   0.542   7.295  0.1407  0.4288 -0.2801
   81MOL    H8638646   6.762   7.770   0.109  0.3555 -3.6152 -3.1154
   81MOL    H8738647   6.642   7.728   7.874 -1.7637  1.8771 -0.9957
   81MOL    H8838648   6.747   0.086   7.747 -0.2213  1.3789  2.3005
   81MOL    H8938649   6.828   7.808   7.729 -0.6505  1.1701 -1.5428
   81MOL    H9038650   6.965   0.011   0.066  2.6582  0.1317 -2.1481
   81MOL    H9138651   6.888   0.163   0.035  0.6768  0.8467 -0.9776
   81MOL    H9238652   7.117   0.090   7.784 -0.8817 -0.9733  1.0381
   81MOL    H9338653   7.021   7.875   7.681  0.3509 -0.7916  0.8102
   81MOL    H9438654   7.036   0.414   7.548  1.7099 -2.1534 -1.9307
   81MOL    H9538655   6.867   0.401   7.597 -1.2732 -1.8347 -0.2780
   81MOL    H9638656   6.954   0.487   7.355 -2.3047  2.5695  1.6142
   81MOL    H9738657   6.910   0.318   7.318 -1.7297 -2.0688  1.7370
   81MOL    O9838658   6.663   0.389   7.458  0.3232  0.8102  0.1308
   81MOL    C9938659   6.527   0.433   7.467  0.0008  0.0484  0.5122
   81MOL   C10038660   6.442   0.320   7.525  0.1480  0.1231 -0.4984
   81MOL   C10138661   6.436   0.187   7.441  0.7109 -0.5318 -0.5938
   81MOL   C10238662   6.327   0.087   7.485 -0.0799  0.0698 -0.2052
   81MOL   O10338663   6.315   7.858   7.387 -0.2197 -0.1862 -0.0654
   81MOL   C10438664   6.395   7.750   7.390 -0.1406 -0.0134 -0.2970
   81MOL   O10538665   6.468   7.718   7.486  0.5449 -0.9032 -0.0283
   81MOL   C10638666   6.411   7.674   7.260  0.7238 -0.3589  0.7070
   81MOL   C10738667   6.421   7.772   7.139 -0.1690  0.1669 -0.3833
   81MOL   C10838668   6.412   7.697   7.005 -0.3569  0.6100 -0.4184
   81MOL   O10938669   6.341   7.736   6.916 -0.5577 -0.1057 -0.2629
   81MOL   H11038670   6.519   0.519   7.533 -1.0741  0.5183 -0.2316
   81MOL   H11138671   6.494   0.477   7.373  0.7060 -0.8648 -0.1771
   81MOL   H11238672   6.340   0.352   7.547  0.9837  2.8583 -0.5534
   81MOL   H11338673   6.488   0.305   7.622 -0.2849  0.3880 -0.2493
   81MOL   H11438674   6.532   0.137   7.449  1.6350  1.1324 -1.1286
   81MOL   H11538675   6.429   0.218   7.337  0.9135  0.6606 -0.2542
   81MOL   H11638676   6.345   0.046   7.585 -0.1461  0.0702 -0.1931
   81MOL   H11738677   6.226   0.128   7.481  0.0543  0.5034  0.7191
   81MOL   H11838678   6.312   7.629   7.252  1.2821 -1.8604  1.9779
   81MOL   H11938679   6.489   7.598   7.258  1.1061  0.0441 -0.2732
   81MOL   H12038680   6.337   7.841   7.146 -1.2015 -1.2121  0.8999
   81MOL   H12138681   6.507   7.840   7.131 -1.4090  1.7316 -0.6813
   81MOL   O12238682   6.479   7.579   7.001  0.6180 -0.0435 -0.3924
   81MOL   C12338683   6.475   7.499   6.881  0.1623 -0.3918 -0.3620
   81MOL   C12438684   6.531   7.360   6.905  0.3053 -0.0093  0.9426
   81MOL   C12538685   6.689   7.367   6.930  0.3604  0.9282 -0.7529
   81MOL   C12638686   6.767   7.250   6.986 -0.1611 -0.0152 -0.3369
   81MOL   O12738687   6.785   7.253   7.127 -0.1002 -0.3069  0.4291
   81MOL   C12838688   6.704   7.183   7.204 -0.9007  0.0582  0.3036
   81MOL   O12938689   6.613   7.103   7.171 -0.1855  0.1145 -0.1845
   81MOL   C13038690   6.732   7.202   7.354 -0.1600 -0.2315 -0.3495
   81MOL   C13138691   6.881   7.179   7.391  0.3384 -0.0950 -0.0633
   81MOL   C13238692   6.907   7.137   7.534  0.2637 -0.0899 -0.4094
   81MOL   O13338693   6.821   7.073   7.602  0.5579  0.1789 -0.7855
   81MOL   H13438694   6.369   7.488   6.857  0.0660 -0.5099  0.1287
   81MOL   H13538695   6.510   7.545   6.788  1.1860 -1.0728 -0.3178
   81MOL   H13638696   6.508   7.297   6.819 -0.7524  1.2193  0.3115
   81MOL   H13738697   6.482   7.304   6.985 -1.3625 -1.6980 -1.1885
   81MOL   H13838698   6.708   7.448   7.001 -0.2973 -0.3459  0.8823
   81MOL   H13938699   6.724   7.402   6.832  0.9088  1.1511 -0.4788
   81MOL   H14038700   6.715   7.161   6.953  2.3253 -2.1816  1.3539
   81MOL   H14138701   6.865   7.241   6.939 -0.3824  0.1527 -0.8334
   81MOL   H14238702   6.679   7.132   7.418  2.2449 -1.1408  0.7221
   81MOL   H14338703   6.694   7.299   7.384  1.8908  0.1987  0.9800
   81MOL   H14438704   6.924   7.101   7.328 -1.2225 -0.9854 -0.0491
   81MOL   H14538705   6.930   7.271   7.361 -0.6567  0.0758 -1.1685
   81MOL   O14638706   7.034   7.161   7.578 -0.3765  0.0366  0.3706
   81MOL   C14738707   7.057   7.118   7.708 -0.2027  0.4874 -0.2472
   81MOL   C14838708   7.203   7.147   7.748 -0.1645 -0.4364 -0.5670
   81MOL   C14938709   7.296   7.034   7.696 -0.6982  0.6036  0.3612
   81MOL   C15038710   7.447   7.062   7.695 -0.0600  0.2644  0.3836
   81MOL   O15138711   7.478   7.156   7.599  0.2598  0.1766  0.5015
   81MOL   C15238712   7.592   7.142   7.532 -0.0617 -0.3375 -0.3874
   81MOL   O15338713   7.684   7.066   7.561  0.0624 -0.2674  0.1150
   81MOL   C15438714   7.598   7.233   7.412 -0.1781 -0.2617 -0.4850
   81MOL   C15538715   7.535   7.377   7.445 -0.0648 -0.5859 -0.2177
   81MOL   C15638716   7.632   7.488   7.480 -0.1733 -0.8537 -0.5629
   81MOL   O15738717   7.642   7.585   7.409  0.2502 -0.5065  0.2049
   81MOL   H15838718   6.996   7.184   7.770 -1.3133  0.0237 -0.8405
   81MOL   H15938719   7.028   7.015   7.726 -2.7555  1.0525 -0.8920
   81MOL   H16038720   7.209   7.152   7.856 -0.0031 -0.6491 -0.5661
   81MOL   H16138721   7.235   7.243   7.706 -1.5933  1.0246  1.5815
   81MOL   H16238722   7.282   7.007   7.591  0.1166 -1.6977  0.8157
   81MOL   H16338723   7.284   6.954   7.769 -0.7850  0.3249  0.0421
   81MOL   H16438724   7.469   7.083   7.799 -1.6096 -2.3003  1.2949
   81MOL   H16538725   7.494   6.964   7.685 -0.5102  0.2532 -1.7901
   81MOL   H16638726   7.554   7.185   7.324  2.4072 -3.6411 -0.0348
   81MOL   H16738727   7.703   7.248   7.389 -0.0694  1.1883  0.8237
   81MOL   H16838728   7.488   7.398   7.349 -1.3416 -0.2530  0.4755
   81MOL   H16938729   7.461   7.382   7.525 -1.5812  0.6752 -1.6746
   81MOL   O17038730   7.694   7.470   7.596  0.6194  0.2556 -0.0805
   81MOL   C17138731   7.795   7.569   7.627  0.7328  0.5676 -0.1098
   81MOL   C17238732   0.051   7.551   7.547 -0.8005  0.3785  0.0259
   81MOL   C17338733   0.117   7.419   7.597 -0.4221 -0.0974  0.0145
   81MOL   C17438734   0.232   7.360   7.518  0.3741 -0.1623  0.7238
   81MOL   O17538735   0.349   7.441   7.538  0.2824 -0.1054  0.1310
   81MOL   C17638736   0.411   7.485   7.429  0.6574 -0.0772 -0.0508
   81MOL   O17738737   0.370   7.463   7.316  0.3020 -0.2171  0.0406
   81MOL   C17838738   0.551   7.547   7.454  0.2460 -0.3573 -0.3854
   81MOL   C17938739   0.550   7.645   7.578 -0.2005 -0.2340 -0.0060
   81MOL   C18038740   0.616   7.575   7.694  0.4810 -0.4812  0.1425
   81MOL   O18138741   0.637   7.453   7.691  0.1920  0.0748 -0.1258
   81MOL   H18238742   7.751   7.668   7.617 -1.2522  0.0256  2.4034
   81MOL   H18338743   7.827   7.560   7.731  2.6567  2.1076 -0.5476
   81MOL   H18438744   0.115   7.639   7.551  0.4788 -0.5756  0.6656
   81MOL   H18538745   0.027   7.549   7.441  0.5893 -1.7269 -0.2601
   81MOL   H18638746   0.037   7.345   7.601 -0.6885  0.2779  1.9604
   81MOL   H18738747   0.147   7.435   7.701  2.7868  2.6570 -1.2225
   81MOL   H18838748   0.258   7.255   7.532  2.6231  0.4155  1.0445
   81MOL   H18938749   0.186   7.363   7.419 -0.4270 -2.3420  0.9941
   81MOL   H19038750   0.571   7.606   7.365 -0.9179  0.9943  0.2260
   81MOL   H19138751   0.624   7.466   7.450  0.2702 -0.2779 -1.5332
   81MOL   H19238752   0.605   7.739   7.566 -1.7490  0.6087 -0.7682
   81MOL   H19338753   0.449   7.679   7.602 -0.5641 -2.1791  1.2793
   81MOL   O19438754   0.650   7.655   7.795 -0.0806  0.0656 -0.3994
   81MOL   C19538755   0.744   7.604   0.023 -0.0658 -0.0641  0.0961
   81MOL   C19638756   0.803   7.713   0.117  0.2466  0.2030  0.3257
   81MOL   C19738757   0.689   7.795   0.190  0.1705  0.1575  0.2194
   81MOL   C19838758   0.748   0.021   0.295  0.3732 -0.2871  0.3630
   81MOL   O19938759   0.854   0.090   0.227 -0.0127 -0.5583 -0.4270
   81MOL   C20038760   0.879   0.219   0.269 -0.3873  0.4535  0.5565
   81MOL   O20138761   0.833   0.270   0.365 -0.2473 -0.5235 -0.4156
   81MOL   C20238762   0.980   0.288   0.183  0.1466  0.3058  0.0565
   81MOL   C20338763   1.034   0.422   0.229 -0.2143 -0.1791  0.0403
   81MOL   C20438764   1.084   0.514   0.124 -0.1942 -0.1454 -0.1565
   81MOL   O20538765   1.198   0.501   0.074  0.1096  0.1008 -0.2225
   81MOL   H20638766   0.685   7.534   0.080  0.9022 -0.6522  0.3863
   81MOL   H20738767   0.831   7.553   7.856 -0.9765 -1.0029 -0.6683
   81MOL   H20838768   0.836   7.788   0.045 -2.3817  0.2528 -0.9251
   81MOL   H20938769   0.873   7.689   0.197 -0.9081  2.3866  2.0670
   81MOL   H21038770   0.625   7.725   0.244  1.0667 -0.9521 -0.1210
   81MOL   H21138771   0.621   7.846   0.122  0.0692 -0.2690 -0.0018
   81MOL   H21238772   0.669   0.086   0.332  1.3333  0.5122  1.0439
   81MOL   H21338773   0.787   7.838   0.379 -0.1778  0.5682  1.2096
   81MOL   H21438774   0.937   0.292   0.083 -0.5855 -2.1279  0.2292
   81MOL   H21538775   1.064   0.219   0.174 -0.4799 -0.4809  0.1508
   81MOL   H21638776   0.957   0.472   0.287 -0.8465  0.0408 -0.9774
   81MOL   H21738777   1.117   0.395   0.296 -0.7070 -0.6059  0.4867
   81MOL   O21838778   1.000   0.617   0.097  0.1611  0.3375  0.4662
   81MOL   C21938779   1.047   0.718   0.009  0.1517  0.4026  0.6035
   81MOL   C22038780   0.945   0.826   7.851 -0.0606  0.2160  0.5192
   81MOL   C22138781   0.897   0.905   0.100  0.2102  0.2280 -0.4063
   81MOL   C22238782   1.004   1.012   0.149  0.0879 -0.0445 -0.2996
   81MOL   O22338783   0.988   1.137   0.076  1.0762  0.0053 -0.2054
   81MOL   C22438784   1.069   1.172   7.845 -0.1063  0.1833 -0.5463
   81MOL   O22538785   1.142   1.097   7.785 -0.9510  0.5160  0.2990
   81MOL   C22638786   1.044   1.315   7.801 -0.4823  0.9791  0.1468
   81MOL   C22738787   0.902   1.337   7.744 -0.1271  0.2780  0.5104
   81MOL   C22838788   0.875   1.472   7.697 -0.2294  0.3982  0.2539
   81MOL   O22938789   0.941   1.521   7.602 -0.1168  0.1217 -0.0527
   81MOL   H23038790   1.143   0.763   0.034 -0.9696  1.6954  2.7268
   81MOL   H23138791   1.053   0.656   7.794 -0.6016  0.7778  0.2917
   81MOL   H23238792   0.857   0.787   7.801 -0.2782 -1.2407  1.9938
   81MOL   H23338793   0.990   0.898   7.782  2.0782 -0.5276  1.0840
   81MOL   H23438794   0.854   0.839   0.175 -0.7741 -0.5390 -1.6144
   81MOL   H23538795   0.814   0.965   0.062 -1.9278 -2.4323 -0.0623
   81MOL   H23638796   0.979   1.031   0.254  0.7487 -0.8611  0.0089
   81MOL   H23738797   1.103   0.966   0.143  0.1160 -0.0304  0.0183
   81MOL   H23838798   1.117   1.354   7.730  0.1322  3.5895  2.1157
   81MOL   H23938799   1.047   1.377   0.016 -1.9815  1.3530 -0.0384
   81MOL   H24038800   0.878   1.274   7.658 -1.9717  2.1224 -0.3633
   81MOL   H24138801   0.823   1.301   7.810 -1.5041 -4.0874 -3.1763
   81MOL   O24238802   0.777   1.532   7.763  0.1916  0.0479  0.0393
   81MOL   C24338803   0.774   1.670   7.757 -0.1259 -1.0494 -0.0268
   81MOL   C24438804   0.650   1.719   7.844  0.1237 -0.6451  0.3038
   81MOL   C24538805   0.514   1.648   7.815  1.0678  0.4403 -0.5889
   81MOL   C24638806   0.462   1.674   7.677 -0.1437 -0.1509  0.6633
   81MOL   O24738807   0.543   1.634   7.570  0.3400  0.2958 -0.2476
   81MOL   C24838808   0.508   1.657   7.445 -0.3255 -0.8740  0.8204
   81MOL   O24938809   0.406   1.709   7.402 -0.4900 -0.4141 -0.3099
   81MOL   C25038810   0.626   1.627   7.353  0.2783 -0.2334  1.1405
   81MOL   C25138811   0.717   1.760   7.349 -0.0032 -0.5471  0.2525
   81MOL   C25238812   0.703   1.836   7.220 -0.3721 -0.0654 -0.1004
   81MOL   O25338813   0.636   1.935   7.210 -0.2671  0.4055 -0.1939
   81MOL   H25438814   0.858   1.720   7.804 -0.3672 -1.6931  1.1031
   81MOL   H25538815   0.786   1.698   7.652  2.1463 -2.3769 -0.1534
   81MOL   H25638816   0.634   1.825   7.824  0.4321 -0.4599  1.0351
   81MOL   H25738817   0.670   1.700   0.074  2.2782  3.5073  0.7573
   81MOL   H25838818   0.448   1.683   0.020  0.5422 -3.6964  0.8833
   81MOL   H25938819   0.523   1.541   7.833 -0.4729  0.7467  2.2584
   81MOL   H26038820   0.379   1.603   7.672 -0.9170  0.8468 -1.2516
   81MOL   H26138821   0.416   1.771   7.658 -2.9229 -1.1968  1.6911
   81MOL   H26238822   0.609   1.602   7.249 -1.3074 -1.2314  1.6289
   81MOL   H26338823   0.690   1.551   7.399 -0.5787 -0.3055  2.2380
   81MOL   H26438824   0.702   1.822   7.438 -3.7838 -0.5011 -0.3206
   81MOL   H26538825   0.822   1.731   7.356 -0.7018 -3.8229 -1.8219
   81MOL   O26638826   0.785   1.787   7.121 -0.2809 -0.1994 -0.4704
   81MOL   C26738827   0.786   1.842   6.990 -0.2144 -0.1911  0.4889
   81MOL   C26838828   0.713   1.736   6.895  0.3119 -0.5027 -0.2315
   81MOL   C26938829   0.771   1.597   6.883  0.0936  0.3902  0.2908
   81MOL   C27038830   0.707   1.497   6.786  0.3048  0.0791 -0.7011
   81MOL   O27138831   0.780   1.372   6.773 -0.1561  0.0486  0.3644
   81MOL   C27238832   0.779   1.276   6.866 -0.3603  0.1506 -0.4619
   81MOL   O27338833   0.699   1.268   6.960  0.2397 -0.2806  0.0010
   81MOL   C27438834   0.894   1.177   6.844 -0.3212  0.1175 -0.0365
   81MOL   C27538835   0.947   1.122   6.988 -0.5809  0.2642 -0.4860
   81MOL   C27638836   1.037   1.215   7.060 -0.0582 -0.8802  0.1677
   81MOL   O27738837   1.158   1.212   7.054 -0.6316 -0.1646 -0.5656
   81MOL   H27838838   0.750   1.944   6.975  1.0252  0.3059  0.8612
   81MOL   H27938839   0.892   1.848   6.967 -0.7752  0.0264 -2.2223
   81MOL   H28038840   0.714   1.778   6.794 -0.7793 -1.9606 -0.8592
   81MOL   H28138841   0.606   1.746   6.910  0.4923  2.0266 -0.3451
   81MOL   H28238842   0.775   1.558   6.985  0.1412  3.0161  1.3306
   81MOL   H28338843   0.874   1.616   6.851  0.3809  0.2531  1.1228
   81MOL   H28438844   0.608   1.478   6.825 -0.1464 -1.1645 -2.3921
   81MOL   H28538845   0.703   1.541   6.686  1.1778 -2.4442 -1.8856
   81MOL   H28638846   0.976   1.222   6.787  0.7784 -0.2558  1.2206
   81MOL   H28738847   0.847   1.092   6.796  1.5677 -0.9655 -0.0139
   81MOL   H28838848   0.857   1.098   7.044  0.0806 -3.6655 -0.9338
   81MOL   H28938849   1.004   1.032   6.962 -1.7503 -0.7046  0.2267
   81MOL   O29038850   0.969   1.295   7.152 -0.5829  0.3893 -0.0661
   81MOL   C29138851   1.041   1.392   7.225 -0.4886  0.2525 -0.5139
   81MOL   C29238852   1.026   1.521   7.152 -0.0101  0.3594  0.3006
   81MOL   C29338853   1.098   1.642   7.215  0.1960 -0.7575 -0.2304
   81MOL   C29438854   1.247   1.628   7.254 -0.5569 -0.2655  0.0976
   81MOL   O29538855   1.309   1.757   7.270 -0.1515  0.1968 -0.0335
   81MOL   C29638856   1.437   1.769   7.299  0.6692  0.3488  0.0905
   81MOL   O29738857   1.510   1.673   7.298  0.3171 -0.0285 -0.8231
   81MOL   C29838858   1.481   1.903   7.355  0.2745 -0.4499 -0.3511
   81MOL   C29938859   1.563   1.989   7.248 -0.3963  0.5983 -0.4034
   81MOL   C30038860   1.491   2.111   7.216 -0.7935  0.3466 -0.0746
   81MOL   O30138861   1.424   2.131   7.112 -0.1111 -0.4273 -0.0416
   81MOL   H30238862   1.008   1.407   7.328  1.0068  3.0427 -0.4048
   81MOL   H30338863   1.144   1.365   7.248 -0.0154  2.3644 -0.0349
   81MOL   H30438864   0.923   1.550   7.137  0.1978  0.1262 -1.7794
   81MOL   H30538865   1.064   1.509   7.050  1.5622  0.7188  0.8255
   81MOL   H30638866   1.040   1.666   7.304 -2.1690  1.0699 -2.1976
   81MOL   H30738867   1.083   1.730   7.153  2.4523  1.3247  2.0615
   81MOL   H30838868   1.257   1.574   7.349 -0.6462  0.1346  0.3356
   81MOL   H30938869   1.304   1.563   7.188  0.5672  0.8040 -0.0128
   81MOL   H31038870   1.529   1.887   7.452 -0.9203  1.0106  0.5007
   81MOL   H31138871   1.390   1.952   7.390  1.0359 -0.3350  1.5529
   81MOL   H31238872   1.657   2.015   7.297 -0.0209  0.3626 -0.9847
   81MOL   H31338873   1.580   1.935   7.154  2.8831  0.8599 -0.0406
   81MOL   O31438874   1.498   2.202   7.317  0.0781  0.3114 -0.3536
   81MOL   C31538875   1.435   2.331   7.305 -0.0775  0.1540  0.1393
   81MOL   C31638876   1.302   2.315   7.371  0.5666  0.1404  0.0841
   81MOL   C31738877   1.212   2.433   7.333 -0.4158  0.8040 -0.2360
   81MOL   C31838878   1.082   2.433   7.416  0.1160  0.2849 -0.5161
   81MOL   O31938879   1.106   2.456   7.554 -0.1101 -0.1895 -0.0611
   81MOL   C32038880   1.095   2.364   7.655  0.4243 -0.1376 -0.3269
   81MOL   O32138881   1.055   2.251   7.642 -0.4724  0.1945  0.1028
   81MOL   C32238882   1.147   2.410   7.792 -0.0282 -0.3944 -0.6386
   81MOL   C32338883   1.253   2.308   7.844 -0.5826 -0.2115  0.0781
   81MOL   C32438884   1.221   2.242   0.104  0.0837 -0.4886 -0.0900
   81MOL   O32538885   1.123   2.167   0.114 -0.0710  0.2829  0.3441
   81MOL   H32638886   1.502   2.389   7.369  0.3830  1.3976 -1.4407
   81MOL   H32738887   1.434   2.362   7.200 -0.1753  2.6083  0.8186
   81MOL   H32838888   1.316   2.311   7.479 -1.9301 -0.0714  0.4423
   81MOL   H32938889   1.250   2.224   7.340 -0.4045  0.3448  1.0792
   81MOL   H33038890   1.184   2.442   7.228  0.6432 -1.7386 -0.7664
   81MOL   H33138891   1.265   2.528   7.348 -0.1609  1.2730 -3.7276
   81MOL   H33238892   1.008   2.505   7.380 -0.4870  0.7747  1.6436
   81MOL   H33338893   1.035   2.335   7.403  1.3914 -0.3587 -0.3692
   81MOL   H33438894   1.059   2.419   7.857  0.4079 -1.1628  0.0763
   81MOL   H33538895   1.187   2.511   7.783 -1.3954  0.3481  1.3124
   81MOL   H33638896   1.286   2.239   7.766 -0.5950  1.5028 -1.4743
   81MOL   H33738897   1.348   2.358   7.861  0.6751 -2.3695 -0.4005
   81MOL   O33838898   1.317   2.264   0.201  0.2828 -0.3273 -0.6741
   81MOL   C33938899   1.312   2.229   0.331 -0.6251  0.6624  0.4158
   81MOL   C34038900   1.411   2.312   0.419  0.0452  0.3165  0.2439
   81MOL   C34138901   1.363   2.453   0.455 -0.8835  0.1320 -0.1547
   81MOL   C34238902   1.445   2.510   0.568  0.6278 -0.5417  0.1545
   81MOL   O34338903   1.561   2.573   0.510 -0.3459  0.5574  0.1954
   81MOL   C34438904   1.619   2.667   0.577  0.4163 -0.0201 -0.1536
   81MOL   O34538905   1.585   2.705   0.692 -0.3971  0.3024 -0.4143
   81MOL   C34638906   1.744   2.723   0.506  0.9659 -0.5580  0.1818
   81MOL   C34738907   1.692   2.809   0.392  0.3293  0.3955 -0.4215
   81MOL   C34838908   1.648   2.942   0.439 -0.2480 -0.7562 -0.6340
   81MOL   O34938909   1.647   2.976   0.559 -0.5739  0.3576  0.3739
   81MOL   H35038910   1.212   2.225   0.373 -1.4876 -0.2749 -1.6960
   81MOL   H35138911   1.340   2.124   0.331 -0.8108  0.6151 -1.0641
   81MOL   H35238912   1.505   2.326   0.367  0.4427  3.8512  1.8133
   81MOL   H35338913   1.429   2.238   0.497 -2.1934 -2.3488 -1.6416
   81MOL   H35438914   1.259   2.438   0.487 -0.3426 -0.5134  1.3451
   81MOL   H35538915   1.366   2.512   0.363  0.4128  1.2484  0.5937
   81MOL   H35638916   1.382   2.588   0.610  1.4632  0.8882 -1.2219
   81MOL   H35738917   1.464   2.430   0.640  0.1112  0.0514  0.9471
   81MOL   H35838918   1.808   2.638   0.481  0.6363 -1.1469  1.3495
   81MOL   H35938919   1.800   2.783   0.578  0.9950 -0.5526  0.1548
   81MOL   H36038920   1.772   2.817   0.318 -1.1802 -2.0417 -2.4132
   81MOL   H36138921   1.610   2.762   0.338  0.0930  0.8160 -0.4274
   81MOL   O36238922   1.608   3.018   0.336  0.3146  0.0907 -0.1556
   81MOL   C36338923   1.579   3.155   0.362  0.2048 -0.3287  0.4134
   81MOL   C36438924   1.518   3.213   0.237 -0.0557  0.2174 -0.9872
   81MOL   C36538925   1.515   3.371   0.235  0.5584  0.4254  0.8594
   81MOL   C36638926   1.486   3.433   0.372 -0.6740 -0.2679  0.1331
   81MOL   O36738927   1.367   3.379   0.429 -0.6138  0.3252 -0.5298
   81MOL   C36838928   1.247   3.427   0.404 -0.4235  0.1697 -0.1070
   81MOL   O36938929   1.211   3.503   0.312  0.1338  0.1738  0.7800
   81MOL   C37038930   1.138   3.368   0.491  0.4730  0.3434 -0.1673
   81MOL   C37138931   1.015   3.310   0.408 -0.2678 -0.0113 -0.2913
   81MOL   C37238932   0.961   3.176   0.458  0.4772 -0.2715  0.2639
   81MOL   O37338933   0.952   3.140   0.568 -0.7609 -0.2252 -0.7903
   81MOL   H37438934   1.510   3.165   0.446 -1.2279 -0.2877 -0.7479
   81MOL   H37538935   1.666   3.217   0.382  0.3848 -0.8096  1.1384
   81MOL   H37638936   1.417   3.176   0.219 -0.1166  0.3279 -0.8743
   81MOL   H37738937   1.579   3.184   0.151 -1.8701  0.8707 -2.5578
   81MOL   H37838938   1.450   3.402   0.153 -0.2995 -2.5464  0.3407
   81MOL   H37938939   1.607   3.412   0.195  0.7953 -0.1860  0.7702
   81MOL   H38038940   1.562   3.400   0.443 -0.1840  0.1153 -0.2016
   81MOL   H38138941   1.500   3.541   0.365  0.3552 -0.4272 -0.3281
   81MOL   H38238942   1.105   3.440   0.566  2.0703 -0.4779  1.3454
   81MOL   H38338943   1.190   3.285   0.538  1.8467  0.7058 -1.0368
   81MOL   H38438944   0.936   3.381   0.384  0.3485  1.2555  1.3446
   81MOL   H38538945   1.052   3.288   0.308 -0.2803 -0.2759 -0.2386
   81MOL   O38638946   0.896   3.110   0.350  0.0727  0.1938  0.3276
   81MOL   C38738947   0.823   2.986   0.366  0.3902 -0.1125 -0.5450
   81MOL   C38838948   0.793   2.937   0.222 -0.2326  0.4035  0.0406
   81MOL   C38938949   0.696   3.029   0.151  0.3842  0.1271 -0.4280
   81MOL   C39038950   0.665   2.971   0.005 -0.1707 -0.7020 -0.0331
   81MOL   O39138951   0.568   3.054   7.822 -0.0778  0.1436  0.3628
   81MOL   C39238952   0.545   3.018   7.690  0.3555 -0.2173  0.8707
   81MOL   O39338953   0.609   2.931   7.633 -0.1218 -0.7104 -0.1500
   81MOL   C39438954   0.421   3.077   7.623 -0.4044 -0.1998  0.0699
   81MOL   C39538955   0.397   3.030   7.475  0.0260 -0.1648 -0.0450
   81MOL   C39638956   0.490   3.094   7.377  0.2623  0.0186 -0.3340
   81MOL   O39738957   0.584   3.037   7.321 -0.3858 -0.1005 -0.2349
   81MOL   H39838958   0.875   2.906   0.419  2.6078  0.7217 -1.4008
   81MOL   H39938959   0.732   3.004   0.422  0.8828  1.4494 -0.2427
   81MOL   H40038960   0.750   2.837   0.228  0.5353  0.1020  0.6814
   81MOL   H40138961   0.888   2.931   0.168 -1.0410  0.8310 -1.4559
   81MOL   H40238962   0.735   3.131   0.145  2.9069 -0.7143  0.9184
   81MOL   H40338963   0.605   3.034   0.211  1.0887  2.0927  0.5431
   81MOL   H40438964   0.759   2.975   7.823 -0.9036  1.3928 -1.1359
   81MOL   H40538965   0.628   2.869   0.010 -0.8160 -0.4002  1.5422
   81MOL   H40638966   0.449   3.182   7.627  2.5126 -0.9407  0.7446
   81MOL   H40738967   0.337   3.050   7.687 -1.1753  0.4700 -0.6471
   81MOL   H40838968   0.401   2.921   7.478  0.3521 -0.1603 -0.3314
   81MOL   H40938969   0.297   3.057   7.439 -0.1231 -1.7329 -0.8626
   81MOL   O41038970   0.476   3.228   7.371  0.1794 -0.0031  0.5197
   81MOL   C41138971   0.544   3.303   7.275 -0.1617 -0.4541  0.4845
   81MOL   C41238972   0.678   3.333   7.325 -0.0113  0.2891  0.0435
   81MOL   C41338973   0.769   3.411   7.230 -0.1086  0.0880  0.0781
   81MOL   C41438974   0.895   3.457   7.291  0.0226  0.2244 -0.2730
   81MOL   O41538975   0.965   3.550   7.206  0.1155 -0.5249  0.8123
   81MOL   C41638976   0.951   3.682   7.217 -0.1106  0.2735  0.7627
   81MOL   O41738977   0.874   3.746   7.290  0.6364  0.0432  0.4644
   81MOL   C41838978   1.038   3.767   7.122 -0.0494  0.6324  0.2771
   81MOL   C41938979   1.017   3.719   6.977 -0.5968 -0.0558 -0.2507
   81MOL   C42038980   1.140   3.639   6.926 -0.4165 -0.0731 -0.0799
   81MOL   O42138981   1.237   3.702   6.877  0.0959 -0.6161  0.7427
   81MOL   H42238982   0.542   3.253   7.178 -2.2392 -0.9114  0.7359
   81MOL   H42338983   0.488   3.395   7.263  1.8202  0.8039  0.7649
   81MOL   H42438984   0.731   3.241   7.350 -1.5070  0.1748  2.9842
   81MOL   H42538985   0.669   3.389   7.417  1.6954  1.4774 -0.4836
   81MOL   H42638986   0.706   3.495   7.199 -1.5362 -1.3201 -0.8974
   81MOL   H42738987   0.783   3.364   7.133 -1.1201  0.5940 -0.3165
   81MOL   H42838988   0.880   3.497   7.391  0.5060  1.7146 -0.7754
   81MOL   H42938989   0.964   3.374   7.303 -1.1480 -0.8222 -0.6572
   81MOL   H43038990   1.141   3.770   7.156  0.2818  2.4011 -0.8100
   81MOL   H43138991   1.007   3.871   7.135 -0.1790  0.5948  0.2730
   81MOL   H43238992   0.927   3.662   6.951 -0.1335 -1.9966  2.2052
   81MOL   H43338993   1.010   3.802   6.907  0.6918 -1.5822 -2.2614
   81MOL   O43438994   1.142   3.509   6.957  0.1655  0.0249 -0.4996
   81MOL   C43538995   1.251   3.431   6.941  0.3754  0.4445  0.2544
   81MOL   C43638996   1.207   3.282   6.963  0.4116 -0.0982 -0.2795
   81MOL   C43738997   1.162   3.268   7.108  0.2554  0.2363 -0.5352
   81MOL   C43838998   1.278   3.278   7.209 -0.3946  0.2638  0.2123
   81MOL   O43938999   1.314   3.415   7.230 -0.1158  0.2464  0.2834
   81MOL   C44039000   1.352   3.454   7.355 -0.3579  0.0201  0.7938
   81MOL   O44139001   1.346   3.386   7.458  0.1992 -0.5245  0.3841
   81MOL   C44239002   1.390   3.602   7.353  0.0748 -0.7374  0.6112
   81MOL   C44339003   1.503   3.636   7.450  0.0288 -0.6572  0.1950
   81MOL   C44439004   1.645   3.580   7.429 -0.2566  0.1220 -0.1254
   81MOL   O44539005   1.673   3.464   7.465  0.1548  0.2961  0.4312
   81MOL   H44639006   1.303   3.438   6.846  1.1027 -0.0840  0.6026
   81MOL   H44739007   1.325   3.463   7.015 -1.6251 -2.3192  3.6080
   81MOL   H44839008   1.295   3.225   6.932  0.4373 -1.6397  2.5450
   81MOL   H44939009   1.124   3.257   6.897 -0.8850  2.7791  0.1653
   81MOL   H45039010   1.133   3.164   7.123  0.9654  0.4177  2.4274
   81MOL   H45139011   1.071   3.318   7.143  0.1075  0.0045 -0.5811
   81MOL   H45239012   1.235   3.231   7.297 -3.0650 -1.3414 -1.8589
   81MOL   H45339013   1.360   3.209   7.188  0.4791  1.4895 -0.4720
   81MOL   H45439014   1.301   3.658   7.383 -1.1867 -1.0633 -2.2931
   81MOL   H45539015   1.414   3.645   7.255 -2.1062 -1.6297 -0.3708
   81MOL   H45639016   1.500   3.745   7.462 -0.7789 -0.6653  0.1111
   81MOL   H45739017   1.483   3.589   7.547 -1.3211  1.1250  0.8106
   81MOL   O45839018   1.737   3.659   7.366 -0.1044 -0.7968  0.2032
   81MOL   C45939019   1.853   3.598   7.311 -0.1734 -0.2420  0.1585
   81MOL   C46039020   1.935   3.692   7.222 -0.0073 -0.4132 -0.6287
   81MOL   C46139021   2.053   3.622   7.143  1.1818 -0.8440 -0.5121
   81MOL   C46239022   2.002   3.514   7.047  0.6784 -0.1153  0.2385
   81MOL   O46339023   2.101   3.483   6.947 -0.2498 -0.1357 -0.1157
   81MOL   C46439024   2.072   3.424   6.833  0.1369  0.1673  0.3205
   81MOL   O46539025   1.967   3.366   6.814 -0.2520 -0.2869  0.4746
   81MOL   C46639026   2.196   3.419   6.739  0.2020  0.5918  0.0605
   81MOL   C46739027   2.157   3.381   6.592  0.0768 -0.6398  0.6704
   81MOL   C46839028   2.243   3.431   6.481  1.1708 -0.7232  0.1517
   81MOL   O46939029   2.361   3.449   6.504 -0.1702 -0.3211  0.2827
   81MOL   H47039030   1.905   3.563   7.400 -1.3592  1.8255  1.7222
   81MOL   H47139031   1.824   3.517   7.245 -0.9946  1.2287 -1.3435
   81MOL   H47239032   1.954   3.784   7.277 -0.3374  0.6036 -2.1756
   81MOL   H47339033   1.859   3.722   7.149  1.9584  0.6565 -2.2879
   81MOL   H47439034   2.124   3.573   7.210  0.6520 -0.0813  0.6129
   81MOL   H47539035   2.103   3.696   7.080  1.4273  0.2666  0.9615
   81MOL   H47639036   1.974   3.420   7.094  0.5206  0.5483  1.4778
   81MOL   H47739037   1.907   3.549   7.005  1.7348 -0.0845 -2.2055
   81MOL   H47839038   2.273   3.359   6.788 -0.5516 -0.2174  0.2777
   81MOL   H47939039   2.228   3.523   6.737 -2.9229  1.5982 -0.3436
   81MOL   H48039040   2.128   3.277   6.577 -0.7077 -0.3627  0.2053
   81MOL   H48139041   2.067   3.441   6.577 -0.4035 -1.9111 -1.8442
   81MOL   H48239042   2.197   3.444   6.383  0.0760 -0.4529  0.6994
   82MOL     O139043   3.102   1.914   0.118 -0.6094 -0.1659 -0.6173
   82MOL     C239044   3.063   1.782   0.172 -0.1963 -0.2286  0.1100
   82MOL     C339045   3.167   1.682   0.131  0.2176  0.3746 -0.3859
   82MOL     C439046   3.314   1.724   0.175 -0.3880 -0.0365  0.8911
   82MOL     C539047   3.424   1.637   0.116  0.0444  0.1259 -0.5250
   82MOL     O639048   3.553   1.668   0.156  0.4609 -0.0000 -0.0220
   82MOL     C739049   3.638   1.737   0.075 -0.7189  0.1195 -0.3211
   82MOL     O839050   3.623   1.763   7.830 -0.4498 -0.2784 -0.4630
   82MOL     C939051   3.766   1.778   0.151  0.4535  0.1191  0.1088
   82MOL    C1039052   3.760   1.897   0.251 -0.1485  0.2765  0.5406
   82MOL    C1139053   3.870   1.999   0.224  1.0324 -0.0852 -0.2052
   82MOL    O1239054   3.948   2.039   0.314  0.9016 -0.0298  0.5202
   82MOL    H1339055   3.052   1.803   0.278  0.8292 -0.1245  0.2033
   82MOL    H1439056   2.965   1.766   0.127 -1.2067  0.8703  1.8926
   82MOL    H1539057   3.170   1.663   0.024  3.2935 -0.0790 -0.2689
   82MOL    H1639058   3.146   1.582   0.169  0.8793 -0.6046 -2.4972
   82MOL    H1739059   3.323   1.702   0.281  0.8140 -0.0101  0.8020
   82MOL    H1839060   3.339   1.828   0.153 -0.4752 -0.0993  0.4872
   82MOL    H1939061   3.404   1.535   0.148  0.0903  0.4242  0.5029
   82MOL    H2039062   3.432   1.622   0.009  1.5833 -1.7763 -0.1703
   82MOL    H2139063   3.841   1.803   0.075 -0.3797 -2.1912 -1.5390
   82MOL    H2239064   3.807   1.686   0.193 -1.0809 -1.3546 -1.5387
   82MOL    H2339065   3.663   1.945   0.245 -0.3052 -0.1460 -0.3507
   82MOL    H2439066   3.773   1.871   0.356  1.3416  1.8232  0.7735
   82MOL    H2539067   3.027   1.972   0.117 -1.7682 -1.6291  0.0554
   82MOL    O2639068   3.864   2.043   0.098  0.5026 -0.1731  0.0429
   82MOL    C2739069   3.925   2.171   0.069 -0.2452  0.5193 -0.3897
   82MOL    C2839070   3.903   2.207   7.793  0.1887  0.8290  0.2305
   82MOL    C2939071   3.962   2.099   7.708 -0.4119 -0.0390  0.2341
   82MOL    C3039072   4.092   2.032   7.751 -0.4999 -0.6363  0.2251
   82MOL    O3139073   4.132   1.945   7.647 -0.6923 -0.0361 -0.0181
   82MOL    C3239074   4.225   1.994   7.550  0.9585  0.2627 -0.1221
   82MOL    O3339075   4.288   2.097   7.564 -0.2771 -0.3062  0.2353
   82MOL    C3439076   4.253   1.895   7.432 -0.2168  0.4574 -0.6897
   82MOL    C3539077   4.164   1.925   7.308 -0.7521 -0.8009  0.5342
   82MOL    C3639078   4.030   1.847   7.309  0.9197 -0.1845 -0.4544
   82MOL    O3739079   4.009   1.736   7.274 -0.3582  0.7799  0.0241
   82MOL    H3839080   3.895   2.247   0.141  0.0344  1.3785 -1.1774
   82MOL    H3939081   4.030   2.155   0.094 -0.3509 -0.0276 -0.2735
   82MOL    H4039082   3.962   2.298   7.781  0.8050  0.8339  2.8947
   82MOL    H4139083   3.800   2.233   7.769  0.5304  2.4480  0.4875
   82MOL    H4239084   3.973   2.136   7.606  0.0730 -2.0976 -0.4802
   82MOL    H4339085   3.878   2.031   7.722 -1.0498  0.9232  1.2131
   82MOL    H4439086   4.168   2.106   7.774 -0.0251 -1.1763  0.3883
   82MOL    H4539087   4.063   1.971   7.837 -0.0224 -0.3606  0.5814
   82MOL    H4639088   4.230   1.798   7.475 -0.4713 -0.2609 -2.3973
   82MOL    H4739089   4.357   1.912   7.404  0.1958 -0.0699  0.4866
   82MOL    H4839090   4.136   2.027   7.280 -3.5889 -1.1248  2.0100
   82MOL    H4939091   4.217   1.879   7.224  0.6225 -0.8826  1.4400
   82MOL    O5039092   3.936   1.925   7.357 -0.0063 -0.3406 -0.3294
   82MOL    C5139093   3.803   1.881   7.341  0.3544  0.3902  0.3623
   82MOL    C5239094   3.720   1.949   7.449  0.3065  0.7071  0.4067
   82MOL    C5339095   3.567   1.908   7.441  0.1617 -0.2123  0.1852
   82MOL    C5439096   3.472   1.967   7.549  0.2604 -0.5868 -0.0732
   82MOL    O5539097   3.529   2.013   7.674  0.3174 -0.5907  0.2377
   82MOL    C5639098   3.440   2.067   7.764  0.0749 -0.5374 -0.0137
   82MOL    O5739099   3.317   2.088   7.739  0.1137  0.0805  0.3021
   82MOL    C5839100   3.508   2.101   0.017  0.6664 -0.4815 -0.2465
   82MOL    C5939101   3.412   2.150   0.130  0.3432  0.8931  0.4155
   82MOL    C6039102   3.474   2.245   0.230 -0.2058 -0.0816 -0.1548
   82MOL    O6139103   3.588   2.286   0.219  0.1226 -0.4570 -0.1157
   82MOL    H6239104   3.768   1.910   7.242 -2.9095  0.4366  1.4578
   82MOL    H6339105   3.781   1.774   7.342 -2.1170  0.8596  1.6201
   82MOL    H6439106   3.734   2.056   7.438 -0.2727  0.8740  1.2414
   82MOL    H6539107   3.749   1.922   7.551 -2.0342  0.0217  0.9149
   82MOL    H6639108   3.563   1.800   7.432  1.4411 -0.2875  0.3992
   82MOL    H6739109   3.529   1.951   7.348  0.1785 -0.2330  0.1689
   82MOL    H6839110   3.412   2.046   7.503  2.4438  0.2106 -1.5939
   82MOL    H6939111   3.405   1.884   7.572 -0.4607 -0.5623 -2.0122
   82MOL    H7039112   3.591   2.170   0.006  0.0180  0.3141 -0.2079
   82MOL    H7139113   3.554   2.010   0.057  1.5097  1.2170  2.7872
   82MOL    H7239114   3.316   2.186   0.093 -0.3375  0.9762  2.2132
   82MOL    H7339115   3.376   2.071   0.196 -0.4569  1.2672  0.4256
   82MOL    O7439116   3.397   2.263   0.344  0.2050  0.0187  0.3118
   82MOL    C7539117   3.429   2.380   0.422 -0.1008  0.0510  0.1354
   82MOL    C7639118   3.376   2.503   0.345 -0.2268  0.3583  0.4781
   82MOL    C7739119   3.222   2.512   0.328 -0.4009  0.3580  0.4478
   82MOL    C7839120   3.180   2.587   0.199  0.1156 -0.8001 -0.2984
   82MOL    O7939121   3.201   2.505   0.087 -0.0791  0.2220 -0.5208
   82MOL    C8039122   3.129   2.512   7.851  0.3078 -0.7617  0.1783
   82MOL    O8139123   3.025   2.575   7.836 -0.8559  0.2205  0.1758
   82MOL    C8239124   3.175   2.408   7.749  0.2651 -0.0349  0.2503
   82MOL    C8339125   3.146   2.468   7.604  0.2036  0.3971 -0.3802
   82MOL    C8439126   3.228   2.403   7.499 -0.1364 -0.2613 -0.0401
   82MOL    O8539127   3.182   2.363   7.392  0.1900  0.1519  0.1415
   82MOL    H8639128   3.383   2.378   0.521 -0.6204  2.6291 -0.0233
   82MOL    H8739129   3.537   2.387   0.441 -0.2890  0.9974  0.9236
   82MOL    H8839130   3.424   2.514   0.248  0.2419 -4.9483 -0.0796
   82MOL    H8939131   3.412   2.582   0.411  1.5262  0.7835 -0.9739
   82MOL    H9039132   3.184   2.567   0.415  0.8985  2.0823 -0.0542
   82MOL    H9139133   3.172   2.416   0.341 -2.1190  1.0483 -0.7712
   82MOL    H9239134   3.073   2.607   0.210  0.1102 -1.4599  0.8841
   82MOL    H9339135   3.232   2.682   0.192 -0.3009 -0.4294  1.4625
   82MOL    H9439136   3.108   2.323   7.762  0.4141 -0.2345 -0.2939
   82MOL    H9539137   3.277   2.375   7.765  0.0142 -1.0443 -0.1801
   82MOL    H9639138   3.041   2.451   7.579  0.3692  1.4561 -1.8314
   82MOL    H9739139   3.144   2.577   7.598 -0.7977  0.5907  2.6191
   82MOL    O9839140   3.357   2.407   7.543 -0.0355 -0.0332  0.1547
   82MOL    C9939141   3.452   2.336   7.471  1.1830  0.1365  0.6171
   82MOL   C10039142   3.584   2.336   7.556 -0.6331 -0.0407 -0.0814
   82MOL   C10139143   3.667   2.467   7.555  0.7286 -0.1657  0.0365
   82MOL   C10239144   3.598   2.598   7.607  0.4998  0.5110 -0.4156
   82MOL   O10339145   3.576   2.598   7.747 -0.2134  0.1353 -0.2068
   82MOL   C10439146   3.663   2.667   7.825  0.3507  0.8111 -0.4425
   82MOL   O10539147   3.763   2.723   7.779  0.0193 -0.0708 -0.0882
   82MOL   C10639148   3.643   2.661   0.100  0.4267  0.0049 -0.7302
   82MOL   C10739149   3.732   2.553   0.162 -0.2948 -0.3375  0.1276
   82MOL   C10839150   3.861   2.596   0.219 -0.4819 -0.6404 -0.6839
   82MOL   O10939151   3.889   2.710   0.253  0.2776  0.0838  0.4098
   82MOL   H11039152   3.412   2.237   7.451  0.2609  0.9110 -1.4775
   82MOL   H11139153   3.462   2.380   7.372 -2.5918 -0.3954 -0.0813
   82MOL   H11239154   3.655   2.269   7.506  0.5097  0.9884  0.1451
   82MOL   H11339155   3.554   2.301   7.655 -0.3742  0.1505  0.0645
   82MOL   H11439156   3.705   2.488   7.455  0.7243 -1.0491 -0.1569
   82MOL   H11539157   3.760   2.451   7.608  0.2830  0.8868  1.1445
   82MOL   H11639158   3.673   2.673   7.582 -0.7011  1.0515 -2.5020
   82MOL   H11739159   3.508   2.633   7.556 -0.5073  0.9660  1.6090
   82MOL   H11839160   3.538   2.638   0.120 -0.0654  1.3964 -1.5924
   82MOL   H11939161   3.666   2.755   0.150 -0.0761 -0.8374  1.1190
   82MOL   H12039162   3.680   2.514   0.249  0.9304 -2.2756  0.0311
   82MOL   H12139163   3.742   2.467   0.095 -2.4570 -0.6197  0.1414
   82MOL   O12239164   3.941   2.491   0.238 -0.4159  0.0916  0.2454
   82MOL   C12339165   4.059   2.502   0.309  0.4038 -0.5066  0.0466
   82MOL   C12439166   4.089   2.384   0.404  0.3589  0.3016  0.0205
   82MOL   C12539167   3.965   2.350   0.481 -0.1145 -0.3094 -0.0675
   82MOL   C12639168   3.945   2.450   0.600 -0.4659  0.1095 -0.2118
   82MOL   O12739169   3.828   2.418   0.669  0.3100 -0.3051  0.0826
   82MOL   C12839170   3.793   2.484   0.784 -0.5296  0.5168 -0.1019
   82MOL   O12939171   3.862   2.574   0.840 -0.7317 -0.0431  0.0168
   82MOL   C13039172   3.658   2.438   0.835  0.1640  0.0091  0.5113
   82MOL   C13139173   3.538   2.488   0.746  0.0875 -0.5202  0.4213
   82MOL   C13239174   3.451   2.594   0.806  0.0503 -0.3503 -0.1413
   82MOL   O13339175   3.474   2.657   0.913  0.2524 -1.5982 -0.1451
   82MOL   H13439176   4.135   2.515   0.231  0.6021  2.4897  0.6531
   82MOL   H13539177   4.059   2.599   0.360 -0.0401  0.2880 -1.4308
   82MOL   H13639178   4.177   2.402   0.465  1.2078  0.2968 -1.1824
   82MOL   H13739179   4.109   2.300   0.337  0.9272 -0.7632  1.4996
   82MOL   H13839180   3.977   2.250   0.523  2.1774  0.6172  1.5745
   82MOL   H13939181   3.880   2.345   0.413  1.4235 -1.9529 -1.9276
   82MOL   H14039182   4.023   2.428   0.672 -0.2857 -1.1659 -0.7861
   82MOL   H14139183   3.942   2.554   0.567  0.2002 -0.0527 -0.8055
   82MOL   H14239184   3.634   2.445   0.941  2.2311 -1.1982  1.0999
   82MOL   H14339185   3.671   2.330   0.824 -1.9861 -0.0241 -2.0804
   82MOL   H14439186   3.577   2.523   0.650  0.2296 -1.3950  0.1543
   82MOL   H14539187   3.476   2.400   0.735 -1.9981  0.7160  1.9355
   82MOL   O14639188   3.345   2.615   0.726  0.6546 -0.1306  0.2781
   82MOL   C14739189   3.249   2.712   0.763 -0.1149 -0.2575 -0.3286
   82MOL   C14839190   3.153   2.727   0.647  0.2213 -0.5617 -0.2403
   82MOL   C14939191   3.205   2.808   0.527 -0.0895 -0.7247  0.7755
   82MOL   C15039192   3.268   2.946   0.566 -0.1109 -0.5406 -0.9979
   82MOL   O15139193   3.156   3.020   0.618  0.0356  0.5024  0.3970
   82MOL   C15239194   3.147   3.146   0.577 -0.8771  0.5049  0.9920
   82MOL   O15339195   3.223   3.207   0.495  0.0598 -0.7372  0.1684
   82MOL   C15439196   3.027   3.214   0.635 -0.2737  0.4225  0.4630
   82MOL   C15539197   2.935   3.274   0.526 -0.3561 -0.2686 -0.0612
   82MOL   C15639198   2.789   3.275   0.575  0.3613  0.1121  0.1065
   82MOL   O15739199   2.754   3.293   0.693 -0.3539  0.1490 -0.1752
   82MOL   H15839200   3.206   2.665   0.852 -0.9059  2.4990  0.8003
   82MOL   H15939201   3.285   2.810   0.792  3.0104 -1.2741 -0.5982
   82MOL   H16039202   3.058   2.759   0.689  0.6882 -0.6764  0.9225
   82MOL   H16139203   3.121   2.630   0.610  0.7168 -1.5148  1.7834
   82MOL   H16239204   3.122   2.809   0.456  0.2140  0.3900  0.4273
   82MOL   H16339205   3.288   2.757   0.477  1.3262  2.7806 -0.6281
   82MOL   H16439206   3.345   2.940   0.643  0.5626 -0.6855 -1.6747
   82MOL   H16539207   3.324   2.988   0.483  0.9321  1.6930  0.7900
   82MOL   H16639208   3.053   3.290   0.708 -1.0117  0.4929  0.6549
   82MOL   H16739209   2.967   3.143   0.692 -0.4967 -0.2958 -0.6396
   82MOL   H16839210   2.969   3.375   0.504 -0.3995 -0.6927 -2.2205
   82MOL   H16939211   2.946   3.218   0.433  1.1453 -1.3648  0.7515
   82MOL   O17039212   2.702   3.258   0.474  0.7299 -0.1896  0.6861
   82MOL   C17139213   2.558   3.271   0.497  0.4067 -0.2968 -0.1716
   82MOL   C17239214   2.494   3.395   0.448  0.4661  0.4959  0.7713
   82MOL   C17339215   2.494   3.403   0.296 -0.1270  0.3962 -0.1656
   82MOL   C17439216   2.383   3.490   0.256 -0.2333 -0.1442  0.4137
   82MOL   O17539217   2.355   3.483   0.112  0.1246  0.6640  0.4256
   82MOL   C17639218   2.265   3.398   0.054 -0.2301  0.4177  0.1046
   82MOL   O17739219   2.205   3.309   0.114  0.0601 -0.7107  0.3626
   82MOL   C17839220   2.246   3.429   7.784 -0.3332 -0.1618  0.5621
   82MOL   C17939221   2.206   3.572   7.760 -0.4989 -0.4853 -0.0783
   82MOL   C18039222   2.089   3.601   7.663  0.2336 -0.4237 -0.2389
   82MOL   O18139223   2.041   3.506   7.602  0.2661 -0.5361  0.7193
   82MOL   H18239224   2.510   3.182   0.456  2.2910 -0.6157 -1.7785
   82MOL   H18339225   2.553   3.258   0.605  1.9786 -0.5293 -0.1033
   82MOL   H18439226   2.541   3.482   0.494  0.4988  1.3089 -0.7518
   82MOL   H18539227   2.391   3.405   0.482  0.3335 -1.8818  1.1358
   82MOL   H18639228   2.470   3.304   0.255  0.1919 -1.0145  2.9272
   82MOL   H18739229   2.592   3.420   0.251  0.2022 -0.5980  0.1388
   82MOL   H18839230   2.294   3.468   0.314 -0.0395 -1.7299  0.1194
   82MOL   H18939231   2.424   3.591   0.268  0.2455 -0.4878  1.7542
   82MOL   H19039232   2.172   3.368   7.732 -0.8013  1.0791 -0.2665
   82MOL   H19139233   2.337   3.411   7.726  0.6138  1.3418  1.5310
   82MOL   H19239234   2.171   3.599   7.860 -1.3348  1.3302 -0.8235
   82MOL   H19339235   2.290   3.642   7.753 -0.2766 -0.7386  0.0555
   82MOL   O19439236   2.052   3.726   7.661  0.3915 -0.6300  0.2946
   82MOL   C19539237   1.927   3.764   7.601 -0.5858 -0.4784 -0.3757
   82MOL   C19639238   1.860   3.875   7.687  0.0137  0.1921  0.6926
   82MOL   C19739239   1.857   3.844   7.837  0.1613  0.7979 -0.6911
   82MOL   C19839240   1.746   3.757   0.014  0.5780 -0.5812 -0.0945
   82MOL   O19939241   1.782   3.618   0.005  0.1802  0.5233  0.8972
   82MOL   C20039242   1.710   3.531   7.809  0.2418  0.0352  0.0515
   82MOL   O20139243   1.595   3.557   7.775  0.0889 -0.4123  0.0956
   82MOL   C20239244   1.774   3.403   7.769 -0.0598 -0.5221  0.4267
   82MOL   C20339245   1.886   3.349   7.867  0.1703 -0.0852 -0.0756
   82MOL   C20439246   1.843   3.221   0.070 -0.0759 -0.5406  0.7327
   82MOL   O20539247   1.829   3.220   0.193 -0.1622  0.2443 -0.1822
   82MOL   H20639248   1.945   3.806   7.503  1.3972 -0.1483  0.1100
   82MOL   H20739249   1.862   3.677   7.594 -0.4436 -0.7527  1.4397
   82MOL   H20839250   1.761   3.886   7.641  0.4270 -0.6570 -0.4114
   82MOL   H20939251   1.915   3.966   7.666  1.3123 -0.8059 -0.2859
   82MOL   H21039252   1.834   3.934   0.019 -2.5184 -0.5896  0.5576
   82MOL   H21139253   1.951   3.803   7.873 -0.1831  0.5866 -0.0223
   82MOL   H21239254   1.728   3.775   0.120 -0.3221  1.2657 -0.5436
   82MOL   H21339255   1.650   3.779   7.843 -0.4182 -1.1235  1.6980
   82MOL   H21439256   1.821   3.427   7.673  0.7568 -1.8338  0.4835
   82MOL   H21539257   1.697   3.327   7.755 -0.4586 -0.2005  0.8757
   82MOL   H21639258   1.958   3.311   7.795  0.0636  0.6883 -0.6056
   82MOL   H21739259   1.928   3.416   0.067 -0.9026  0.6176 -0.0887
   82MOL   O21839260   1.836   3.120   7.862  0.1447  0.0397  0.2601
   82MOL   C21939261   1.829   2.984   0.028 -0.0674 -0.1018  0.6126
   82MOL   C22039262   1.908   2.902   7.802 -0.7039  0.9408 -0.1458
   82MOL   C22139263   2.056   2.941   7.788  0.0986  0.3790  0.0867
   82MOL   C22239264   2.148   2.862   7.693 -0.1759 -0.5748 -0.0060
   82MOL   O22339265   2.100   2.868   7.566  0.5452 -0.7818 -0.1021
   82MOL   C22439266   2.178   2.825   7.463 -0.0247  0.8805  0.1554
   82MOL   O22539267   2.284   2.761   7.472 -0.0127 -0.1142 -0.1153
   82MOL   C22639268   2.112   2.853   7.330 -0.2725  0.2302 -0.0263
   82MOL   C22739269   2.095   2.715   7.258 -0.0009  0.4903 -0.2506
   82MOL   C22839270   1.973   2.706   7.166 -0.1740 -0.0127 -0.0386
   82MOL   O22939271   1.940   2.806   7.102 -0.3384  0.2047  0.3055
   82MOL   H23039272   1.871   2.972   0.127 -0.7476  0.2884  0.9525
   82MOL   H23139273   1.723   2.962   0.023 -0.1032  0.1345  0.2814
   82MOL   H23239274   1.849   2.910   7.710 -2.8762 -0.7374  1.0685
   82MOL   H23339275   1.906   2.798   7.835  1.6819  0.7277 -0.5561
   82MOL   H23439276   2.102   2.943   0.012 -0.5312  0.5859  0.3848
   82MOL   H23539277   2.067   3.045   7.757 -0.2484  0.2218 -0.5622
   82MOL   H23639278   2.249   2.902   7.701 -1.0248  1.8249 -0.8036
   82MOL   H23739279   2.141   2.757   7.723 -1.5567 -0.5327 -0.1597
   82MOL   H23839280   2.177   2.925   7.279 -0.0953  0.3894  0.4211
   82MOL   H23939281   2.017   2.904   7.343 -1.5064 -1.3965 -2.3755
   82MOL   H24039282   2.190   2.683   7.215  0.4750 -0.0345  1.1656
   82MOL   H24139283   2.071   2.638   7.332  0.1313  0.1828 -0.5274
   82MOL   O24239284   1.904   2.582   7.158 -0.4690 -0.9091  0.0234
   82MOL   C24339285   1.775   2.561   7.103 -0.2764  0.1303  0.1703
   82MOL   C24439286   1.734   2.421   7.159  0.3160 -0.3482  0.4530
   82MOL   C24539287   1.802   2.294   7.091  0.4026 -0.3617  0.6040
   82MOL   C24639288   1.752   2.275   6.941 -1.0251 -0.3393 -0.3704
   82MOL   O24739289   1.786   2.139   6.909  0.2149 -0.2275 -0.4580
   82MOL   C24839290   1.909   2.121   6.845  0.7303 -0.4656  0.4141
   82MOL   O24939291   1.996   2.198   6.828  0.1925 -0.2834 -0.4894
   82MOL   C25039292   1.919   1.970   6.812  0.7563  0.5879 -0.1221
   82MOL   C25139293   1.995   1.896   6.920 -0.2994  0.3438 -0.1255
   82MOL   C25239294   1.893   1.842   7.022 -0.7020  0.0728  0.1380
   82MOL   O25339295   1.774   1.829   7.004  0.4632  0.3725  0.6395
   82MOL   H25439296   1.701   2.634   7.135 -1.5353 -0.7624 -0.6833
   82MOL   H25539297   1.790   2.543   6.997 -1.4012  1.9681 -0.3312
   82MOL   H25639298   1.627   2.410   7.141  0.3239  0.0462  0.1582
   82MOL   H25739299   1.744   2.422   7.267  0.7222 -0.3762  0.4171
   82MOL   H25839300   1.785   2.210   7.158  0.7989 -1.9332 -1.2079
   82MOL   H25939301   1.910   2.311   7.085  0.2871  0.0191 -0.5760
   82MOL   H26039302   1.645   2.260   6.934 -0.8518 -3.8244  2.8696
   82MOL   H26139303   1.789   2.342   6.863  4.7480 -2.5330  0.1993
   82MOL   H26239304   1.967   1.954   6.716 -0.1248 -0.1538 -0.4498
   82MOL   H26339305   1.818   1.932   6.796  1.0479  0.2230 -1.1300
   82MOL   H26439306   2.022   1.796   6.883 -1.9564  0.1128 -0.7320
   82MOL   H26539307   2.085   1.941   6.963  1.1530 -2.1995 -0.3739
   82MOL   O26639308   1.955   1.810   7.142 -0.8432  0.4044  0.4619
   82MOL   C26739309   1.885   1.741   7.248  1.0438 -0.3401  0.1962
   82MOL   C26839310   1.972   1.627   7.314  0.0565 -0.0652 -0.2228
   82MOL   C26939311   1.880   1.520   7.385  0.6822 -0.4230 -0.1290
   82MOL   C27039312   1.977   1.421   7.452  0.1415 -0.1018  0.4157
   82MOL   O27139313   1.918   1.323   7.529 -0.4344 -0.0880  0.2343
   82MOL   C27239314   1.868   1.343   7.655  0.4903  0.0657 -0.0126
   82MOL   O27339315   1.862   1.447   7.714 -0.0192 -0.4104 -0.3661
   82MOL   C27439316   1.808   1.215   7.715  0.3682 -0.4437  0.0306
   82MOL   C27539317   1.737   1.238   7.846 -0.8586  0.2849  0.1553
   82MOL   C27639318   1.724   1.113   0.065  0.4643  0.5285  0.0527
   82MOL   O27739319   1.783   1.109   0.172 -0.1302  0.7108 -0.6881
   82MOL   H27839320   1.850   1.809   7.325  0.6257 -1.2140  0.7821
   82MOL   H27939321   1.792   1.699   7.210  0.5841  1.2821 -0.5129
   82MOL   H28039322   2.043   1.681   7.376 -1.8186  3.4841 -0.9996
   82MOL   H28139323   2.030   1.564   7.248 -2.4447 -1.0810 -1.5355
   82MOL   H28239324   1.825   1.474   7.303 -0.0023 -1.0294  0.6589
   82MOL   H28339325   1.808   1.558   7.457  0.7415  0.8817 -0.7441
   82MOL   H28439326   2.036   1.373   7.375 -1.1709  1.9495 -1.9310
   82MOL   H28539327   2.040   1.489   7.510 -0.7240  1.7264 -0.7458
   82MOL   H28639328   1.892   1.152   7.745  0.2449 -0.9238 -0.6110
   82MOL   H28739329   1.750   1.159   7.642 -0.3162  2.2293 -1.5678
   82MOL   H28839330   1.776   1.322   0.030  0.4509 -0.0025 -0.2900
   82MOL   H28939331   1.639   1.279   7.822  0.3972  3.8131  0.6556
   82MOL   O29039332   1.632   1.030   0.028 -0.0757  0.5213 -0.4362
   82MOL   C29139333   1.583   0.940   0.123  0.6275 -0.3957  0.1620
   82MOL   C29239334   1.444   0.897   0.101  0.7897  0.0627 -0.0739
   82MOL   C29339335   1.420   0.862   7.829  0.0953 -0.0048  0.2255
   82MOL   C29439336   1.439   0.717   7.790 -0.3704 -0.1684 -0.3055
   82MOL   O29539337   1.567   0.667   7.794 -0.1381 -0.2651  0.1477
   82MOL   C29639338   1.650   0.662   7.684 -0.0432  0.7741  0.1582
   82MOL   O29739339   1.621   0.707   7.572 -0.9396 -0.5089  0.2279
   82MOL   C29839340   1.782   0.594   7.718 -0.2827 -0.2250 -0.1339
   82MOL   C29939341   1.863   0.665   7.834 -0.2680  0.3876  0.4725
   82MOL   C30039342   2.005   0.686   7.774  0.0078  0.0813  0.3063
   82MOL   O30139343   2.065   0.589   7.727  0.1134  0.0404  0.2497
   82MOL   H30239344   1.649   0.853   0.112  0.2972 -0.5625 -0.4706
   82MOL   H30339345   1.588   0.970   0.228 -1.2510  1.6272 -0.3123
   82MOL   H30439346   1.371   0.975   0.122  0.5755  0.3185 -1.6964
   82MOL   H30539347   1.433   0.814   0.171  2.3926  1.6745  2.1689
   82MOL   H30639348   1.481   0.920   7.760 -1.8271 -2.0680 -3.3348
   82MOL   H30739349   1.317   0.890   7.811 -0.0307 -0.4778  0.1927
   82MOL   H30839350   1.379   0.650   7.852 -1.5996 -1.8085 -3.2020
   82MOL   H30939351   1.407   0.696   7.688 -0.3852  0.1037 -0.3572
   82MOL   H31039352   1.840   0.587   7.626  1.0572  1.6669  0.5361
   82MOL   H31139353   1.753   0.497   7.758  1.3671 -0.4728  0.5207
   82MOL   H31239354   1.827   0.768   7.843 -1.3489  0.2117 -1.4749
   82MOL   H31339355   1.867   0.622   0.059  0.5248  1.6097  0.9884
   82MOL   O31439356   2.049   0.816   7.787  0.7249  0.7949  0.1979
   82MOL   C31539357   2.178   0.852   7.748 -0.0203  0.2318  0.7341
   82MOL   C31639358   2.195   0.861   7.596 -0.5773 -0.1875  0.3395
   82MOL   C31739359   2.107   0.969   7.537  0.3318 -0.0744  0.9700
   82MOL   C31839360   2.156   1.008   7.396 -0.1893  0.1391 -0.2881
   82MOL   O31939361   2.067   1.088   7.330  0.2229  0.0479  0.6891
   82MOL   C32039362   2.108   1.147   7.209 -0.4709  0.4482  0.0153
   82MOL   O32139363   2.220   1.147   7.155 -0.5481 -1.0433 -0.2337
   82MOL   C32239364   1.984   1.220   7.155 -0.0469 -0.4514  0.0724
   82MOL   C32339365   1.997   1.266   7.006 -0.0592  0.3706  0.6270
   82MOL   C32439366   1.931   1.397   6.970  0.2294 -0.4380 -0.4353
   82MOL   O32539367   2.006   1.483   6.937  0.5587 -0.2489  0.4322
   82MOL   H32639368   2.195   0.951   7.790  3.0463 -0.3359  0.9542
   82MOL   H32739369   2.255   0.796   7.802  0.6109  2.2146  1.9611
   82MOL   H32839370   2.175   0.767   7.544 -1.3145 -0.5620  1.3093
   82MOL   H32939371   2.298   0.881   7.565 -1.3583  0.6573 -1.8659
   82MOL   H33039372   2.113   1.061   7.596 -1.9912 -1.1285  2.9837
   82MOL   H33139373   2.002   0.941   7.545 -0.3270  2.3141  1.1854
   82MOL   H33239374   2.250   1.063   7.409 -0.7243  1.3272 -1.2946
   82MOL   H33339375   2.186   0.917   7.344  0.2499  0.5670 -0.7974
   82MOL   H33439376   1.959   1.307   7.215  3.0419 -0.4452  1.4553
   82MOL   H33539377   1.893   1.161   7.169 -0.7546  0.7923  0.7553
   82MOL   H33639378   2.098   1.260   6.965 -0.5275 -0.7877 -0.3664
   82MOL   H33739379   1.949   1.196   6.939 -2.3242  0.8378  1.7090
   82MOL   O33839380   1.802   1.394   6.974 -0.0545  0.1555 -0.6459
   82MOL   C33939381   1.721   1.505   6.939 -0.8965 -0.1965 -0.1334
   82MOL   C34039382   1.578   1.459   6.978 -0.0102 -0.3246 -0.1915
   82MOL   C34139383   1.467   1.533   6.901 -0.1506  0.1643 -0.5845
   82MOL   C34239384   1.331   1.468   6.902  0.2232  0.0834  0.1128
   82MOL   O34339385   1.243   1.545   6.822 -0.0640 -0.0361 -0.8184
   82MOL   C34439386   1.174   1.497   6.722  0.5943  0.2764 -0.0429
   82MOL   O34539387   1.158   1.379   6.697 -0.4747 -0.7348 -0.2967
   82MOL   C34639388   1.128   1.602   6.629  0.4744 -0.1975 -0.2032
   82MOL   C34739389   1.008   1.559   6.543  0.3124  0.2769 -0.1423
   82MOL   C34839390   0.898   1.659   6.516  0.4622  0.6709 -0.2075
   82MOL   O34939391   0.879   1.754   6.588  0.0480 -0.1452  0.2546
   82MOL   H35039392   1.755   1.587   7.003  0.2661 -1.3325  0.7157
   82MOL   H35139393   1.730   1.521   6.832  1.2573 -0.3614 -0.0018
   82MOL   H35239394   1.554   1.461   7.084 -0.5283  0.2225 -0.3151
   82MOL   H35339395   1.566   1.359   6.938 -1.3221 -0.4440  0.4745
   82MOL   H35439396   1.499   1.541   6.797  1.0692  1.1598 -0.1399
   82MOL   H35539397   1.462   1.634   6.942 -1.7207 -0.4043  0.6835
   82MOL   H35639398   1.340   1.367   6.863 -1.3742 -0.5389  1.2719
   82MOL   H35739399   1.302   1.471   7.007 -0.6073 -1.9737 -0.0335
   82MOL   H35839400   1.205   1.634   6.559 -1.1407 -1.8792 -2.7969
   82MOL   H35939401   1.105   1.698   6.676 -1.1861 -0.1898 -1.0328
   82MOL   H36039402   1.040   1.519   6.447  1.9168  2.9443 -0.7846
   82MOL   H36139403   0.965   1.473   6.593  0.1949  1.2558  1.4945
   82MOL   O36239404   0.839   1.627   6.402  0.3040  0.4241 -0.0906
   82MOL   C36339405   0.723   1.697   6.357 -0.6457  0.4541  0.2104
   82MOL   C36439406   0.602   1.599   6.329 -0.0833 -0.0763 -0.3981
   82MOL   C36539407   0.542   1.539   6.456 -0.0619 -0.6416 -0.3358
   82MOL   C36639408   0.431   1.437   6.435  0.3112 -0.9773 -0.4059
   82MOL   O36739409   0.387   1.392   6.558 -0.4367 -0.3219  0.4557
   82MOL   C36839410   0.268   1.326   6.564 -0.6120 -0.5233 -0.4367
   82MOL   O36939411   0.200   1.300   6.469 -0.9299  0.3988  0.0305
   82MOL   C37039412   0.220   1.298   6.712  0.2180  0.6773 -0.7811
   82MOL   C37139413   0.334   1.233   6.790 -0.0696 -0.4821 -0.2920
   82MOL   C37239414   0.283   1.223   6.935  0.2045 -0.1988 -0.1526
   82MOL   O37339415   0.232   1.118   6.975  0.4068 -0.3996 -0.2633
   82MOL   H37439416   0.695   1.777   6.426 -1.4660  0.3088  0.0433
   82MOL   H37539417   0.743   1.742   6.260  1.4571  1.0720  0.8919
   82MOL   H37639418   0.640   1.523   6.261  0.0087  0.2313 -0.6891
   82MOL   H37739419   0.528   1.656   6.272  1.3976  0.0463 -2.2442
   82MOL   H37839420   0.525   1.621   6.526  0.3827 -0.7935 -0.0428
   82MOL   H37939421   0.620   1.485   6.510 -0.1822  0.6688  1.1731
   82MOL   H38039422   0.348   1.476   6.377  1.1109 -0.8204 -1.4450
   82MOL   H38139423   0.488   1.368   6.374 -0.6293  0.6093 -3.1610
   82MOL   H38239424   0.135   1.230   6.710  1.8277 -1.4105 -0.3640
   82MOL   H38339425   0.195   1.397   6.751  2.7446  0.0685  2.7013
   82MOL   H38439426   0.353   1.134   6.749 -0.4007 -0.5500 -0.2808
   82MOL   H38539427   0.423   1.297   6.795  0.7125 -1.4743 -1.2496
   82MOL   O38639428   0.310   1.333   7.004  0.1120 -0.9759 -0.2171
   82MOL   C38739429   0.276   1.339   7.142 -0.1119 -0.7268 -0.2122
   82MOL   C38839430   0.336   1.475   7.187 -0.3919 -0.3967 -0.1259
   82MOL   C38939431   0.257   1.596   7.145 -0.0270  0.5057 -0.2440
   82MOL   C39039432   0.139   1.618   7.230 -0.2271  0.6799 -0.5118
   82MOL   O39139433   0.063   1.726   7.183  0.0613  0.4943  0.1905
   82MOL   C39239434   0.067   1.853   7.231  0.3375  1.1664  0.3560
   82MOL   O39339435   0.132   1.896   7.332 -0.2090  0.1220 -0.0911
   82MOL   C39439436   7.854   1.948   7.149  0.2752 -0.4011  0.1024
   82MOL   C39539437   7.746   2.020   7.242  0.5779 -0.2133  0.1121
   82MOL   C39639438   7.669   2.131   7.173  0.8639 -0.2229 -0.0504
   82MOL   O39739439   7.648   2.239   7.226  0.2441 -0.0179  0.5522
   82MOL   H39839440   0.169   1.332   7.158 -0.5716  0.4087 -2.5475
   82MOL   H39939441   0.333   1.260   7.191  0.9352  0.4887  0.5506
   82MOL   H40039442   0.436   1.489   7.148  0.3063 -0.3985  1.6219
   82MOL   H40139443   0.348   1.481   7.295  1.2485  1.3838 -0.3772
   82MOL   H40239444   0.225   1.592   7.041  2.1777  2.3889 -1.0413
   82MOL   H40339445   0.324   1.680   7.164  1.4128 -0.0271 -2.6783
   82MOL   H40439446   0.076   1.530   7.228 -0.1189  0.6256 -1.6762
   82MOL   H40539447   0.163   1.628   7.336  0.2290 -0.4200 -0.5134
   82MOL   H40639448   7.803   1.892   7.070 -0.7853 -2.1495  1.9693
   82MOL   H40739449   0.035   2.035   7.116  0.6925 -1.0721 -0.9807
   82MOL   H40839450   7.667   1.949   7.270  1.9199 -2.2114 -1.0255
   82MOL   H40939451   7.792   2.043   7.338 -0.1497 -1.2402  0.7200
   82MOL   O41039452   7.631   2.099   7.049 -0.0483 -0.6287  0.6249
   82MOL   C41139453   7.571   2.200   6.968  0.1259  0.3142  0.0568
   82MOL   C41239454   7.550   2.154   6.818 -0.1485  0.2340  0.3915
   82MOL   C41339455   7.685   2.136   6.752 -0.0234  0.0516 -0.8697
   82MOL   C41439456   7.680   2.076   6.612  0.1700  0.9826 -0.3606
   82MOL   O41539457   7.600   2.163   6.535 -0.4915  0.2879 -0.7223
   82MOL   C41639458   7.639   2.284   6.483 -0.3720  0.3497 -0.7781
   82MOL   O41739459   7.744   2.341   6.506  0.2181 -0.3314  0.3728
   82MOL   C41839460   7.547   2.343   6.381  0.2966  0.1129 -0.0800
   82MOL   C41939461   7.537   2.257   6.249  0.4802  0.0830 -0.2685
   82MOL   C42039462   7.659   2.276   6.159 -0.6578 -0.5557  0.0610
   82MOL   O42139463   7.673   2.359   6.066  1.0542 -0.6099  0.0046
   82MOL   H42239464   7.483   2.234   7.022  0.6655 -1.2505  1.9985
   82MOL   H42339465   7.635   2.288   6.967  0.4728  0.0693  0.6511
   82MOL   H42439466   7.488   2.220   6.757  1.1411 -0.2974 -1.5372
   82MOL   H42539467   7.489   2.064   6.826  0.7623 -0.4962 -0.8199
   82MOL   H42639468   7.738   2.066   6.818 -2.4899  0.3663  1.5261
   82MOL   H42739469   7.737   2.231   6.760 -0.7250  0.3425  0.2831
   82MOL   H42839470   7.783   2.065   6.578  0.3003 -1.6235  0.7428
   82MOL   H42939471   7.641   1.974   6.611 -0.1917  1.0730  1.5113
   82MOL   H43039472   7.573   2.448   6.367  0.1971  0.1423 -0.0434
   82MOL   H43139473   7.455   2.348   6.438 -0.7270 -2.2165 -1.4639
   82MOL   H43239474   7.533   2.152   6.279  0.3316  0.7453  2.0590
   82MOL   H43339475   7.448   2.274   6.187 -0.0368 -1.8150 -0.0890
   82MOL   O43439476   7.760   2.203   6.201 -0.2720  0.3856 -0.1925
   82MOL   C43539477   0.020   2.218   6.148  0.3118  0.1210 -0.0826
   82MOL   C43639478   0.109   2.111   6.210 -0.0218 -0.1750  0.8012
   82MOL   C43739479   0.087   2.092   6.365 -0.2282 -0.4432  0.7445
   82MOL   C43839480   0.206   2.037   6.441  0.7576 -0.0359 -0.8143
   82MOL   O43939481   0.326   2.111   6.431  0.0204 -0.3950 -1.1014
   82MOL   C44039482   0.443   2.034   6.445  0.1336  0.8124 -0.7065
   82MOL   O44139483   0.454   1.912   6.477 -0.3901 -0.3270 -0.1412
   82MOL   C44239484   0.574   2.122   6.433 -0.1357 -0.1555 -0.0173
   82MOL   C44339485   0.577   2.240   6.522  0.5461  0.1060  0.6217
   82MOL   C44439486   0.645   2.198   6.658  0.3504  0.2767  0.0159
   82MOL   O44539487   0.754   2.148   6.662  0.1907 -0.3010 -0.2791
   82MOL   H44639488   0.013   2.192   6.043  1.9250  0.5478 -0.3134
   82MOL   H44739489   0.073   2.312   6.166  2.6604 -1.2806  0.5768
   82MOL   H44839490   0.214   2.124   6.183 -0.0395  0.0133  0.8183
   82MOL   H44939491   0.065   2.018   6.175 -0.5444  0.9054 -1.5002
   82MOL   H45039492   0.016   2.013   6.388  0.8096 -0.8651  2.6076
   82MOL   H45139493   0.049   2.181   6.414  1.5897 -0.4047  2.1097
   82MOL   H45239494   0.185   2.026   6.547 -2.0487  3.3029 -0.9314
   82MOL   H45339495   0.215   1.934   6.405 -0.6235 -1.5356  2.8791
   82MOL   H45439496   0.600   2.147   6.330  0.9926 -0.3781  0.2057
   82MOL   H45539497   0.659   2.056   6.449  0.2727  0.2487 -0.5074
   82MOL   H45639498   0.628   2.325   6.477 -1.7786  0.5739 -1.2630
   82MOL   H45739499   0.477   2.278   6.542  0.5579 -0.4820  1.8122
   82MOL   O45839500   0.558   2.215   6.759 -0.5099  0.0174 -0.1720
   82MOL   C45939501   0.597   2.176   6.885  0.2878  0.7974 -0.1333
   82MOL   C46039502   0.477   2.112   6.953  0.3103  0.1922  0.2406
   82MOL   C46139503   0.405   1.998   6.887 -0.0630  0.6436 -0.8665
   82MOL   C46239504   0.275   1.970   6.956  0.3650 -0.2198 -0.5812
   82MOL   O46339505   0.212   1.848   6.910 -0.3905 -0.3312 -0.1714
   82MOL   C46439506   0.144   1.849   6.802 -0.1582 -0.7670  0.5679
   82MOL   O46539507   0.093   1.947   6.745 -0.1317 -0.5063 -0.2530
   82MOL   C46639508   0.118   1.711   6.749  0.0759  0.0470  0.4272
   82MOL   C46739509   0.008   1.704   6.637 -0.3213  0.2690  0.3057
   82MOL   C46839510   0.061   1.679   6.498  0.4536 -0.2542  0.3730
   82MOL   O46939511   0.179   1.695   6.457  1.0914  0.0345 -0.8440
   82MOL   H47039512   0.685   2.113   6.897 -0.8780 -0.6351  1.1653
   82MOL   H47139513   0.608   2.273   6.934 -2.1484  0.1227  1.8458
   82MOL   H47239514   0.398   2.187   6.958  0.6511  0.5382  0.5187
   82MOL   H47339515   0.509   2.089   7.055  2.8779 -1.7061 -0.9584
   82MOL   H47439516   0.474   1.913   6.892  0.0000  0.5781 -2.6061
   82MOL   H47539517   0.399   2.011   6.779  0.3264  2.4540 -0.6826
   82MOL   H47639518   0.300   1.964   7.061  0.9661  0.4196 -0.6815
   82MOL   H47739519   0.204   2.050   6.933 -0.2244 -0.8362 -0.9170
   82MOL   H47839520   0.085   1.658   6.839 -0.9156  3.4447  2.1338
   82MOL   H47939521   0.214   1.662   6.729 -0.4925 -1.4279  1.1797
   82MOL   H48039522   7.807   1.628   6.659 -0.3239  0.3434  0.5581
   82MOL   H48139523   7.830   1.799   6.636  2.6334  1.9951 -2.4674
   82MOL   H48239524   7.866   1.631   6.430  1.3376  0.3523 -0.9791
   83MOL     O139525   7.602   5.282   2.597 -0.1259 -0.1206  0.2624
   83MOL     C239526   7.715   5.355   2.554 -0.9686 -0.4024  0.0341
   83MOL     C339527   7.816   5.407   2.659 -0.8589 -0.1726  0.1911
   83MOL     C439528   0.070   5.459   2.587 -0.1502 -0.6077  0.3482
   83MOL     C539529   0.151   5.556   2.681 -0.6223 -0.0396  0.5108
   83MOL     O639530   0.225   5.475   2.767  0.3423 -0.3532 -0.2041
   83MOL     C739531   0.362   5.486   2.774  0.2894  0.3679  0.3739
   83MOL     O839532   0.430   5.558   2.696  0.0570  0.3508  0.2953
   83MOL     C939533   0.420   5.386   2.872  0.3531 -0.4951 -0.1092
   83MOL    C1039534   0.348   5.248   2.873  0.0355 -0.0204  0.0766
   83MOL    C1139535   0.244   5.232   2.986 -0.8538  0.2626  0.0104
   83MOL    O1239536   0.272   5.241   3.109 -0.1491  0.0471  0.1107
   83MOL    H1339537   7.761   5.309   2.466  0.3262  1.0063 -0.0318
   83MOL    H1439538   7.671   5.443   2.506 -2.1326 -1.2161 -0.4373
   83MOL    H1539539   7.842   5.325   2.726  1.0170  0.7210  0.5744
   83MOL    H1639540   7.754   5.477   2.715 -3.5291 -1.7172 -0.7255
   83MOL    H1739541   0.048   5.517   2.497 -1.4345 -1.2743  0.2168
   83MOL    H1839542   0.131   5.374   2.556 -0.3402 -0.1463 -1.3583
   83MOL    H1939543   0.210   5.625   2.622 -1.5217  1.0790  0.8989
   83MOL    H2039544   0.093   5.616   2.750 -0.9461  0.8786 -0.5431
   83MOL    H2139545   0.423   5.431   2.971  1.0438  2.2242 -1.3049
   83MOL    H2239546   0.524   5.367   2.847  1.8434  1.6428  4.0800
   83MOL    H2339547   0.291   5.231   2.781  0.6714  1.1074 -0.5422
   83MOL    H2439548   0.422   5.169   2.886 -0.4831 -0.3787  0.8326
   83MOL    H2539549   7.547   5.341   2.646  1.9964  2.3981 -0.2327
   83MOL    O2639550   0.123   5.198   2.936  0.8370  0.1827  0.2043
   83MOL    C2739551   0.006   5.166   3.014 -0.5563 -0.0102  0.1915
   83MOL    C2839552   7.769   5.272   3.014  0.1220 -0.3706  0.7935
   83MOL    C2939553   7.809   5.413   3.045  0.1689  0.1831 -0.2360
   83MOL    C3039554   7.703   5.513   3.087 -0.2237  0.2167  0.0986
   83MOL    O3139555   7.618   5.537   2.972 -0.3312 -0.4395  0.2596
   83MOL    C3239556   7.551   5.656   2.962  0.0474  0.4879  0.1952
   83MOL    O3339557   7.573   5.760   3.031 -0.0340  0.5004  0.1440
   83MOL    C3439558   7.463   5.651   2.838 -0.3701  0.0349 -0.3951
   83MOL    C3539559   7.325   5.602   2.867  0.0293 -0.3228 -0.0367
   83MOL    C3639560   7.247   5.584   2.738 -0.5082 -0.5633  0.1382
   83MOL    O3739561   7.141   5.637   2.718  0.5263  0.3764 -0.0368
   83MOL    H3839562   7.819   5.082   2.984 -0.0377 -1.3006  2.6037
   83MOL    H3939563   0.040   5.124   3.109  0.8462  2.3276  0.7506
   83MOL    H4039564   7.701   5.240   3.093 -0.8264  0.3913  0.3028
   83MOL    H4139565   7.723   5.265   2.915  1.8029  1.6476 -0.1851
   83MOL    H4239566   7.867   5.458   2.965  1.8353 -1.5110 -0.0262
   83MOL    H4339567   0.004   5.408   3.129 -0.4697  0.4479  0.3219
   83MOL    H4439568   7.643   5.486   3.173  1.1026 -3.6670 -0.1214
   83MOL    H4539569   7.749   5.610   3.106 -0.8406  0.5632 -0.1545
   83MOL    H4639570   7.515   5.587   2.767 -0.0102  0.6414 -0.6846
   83MOL    H4739571   7.464   5.753   2.798  0.5011  0.8965  1.7482
   83MOL    H4839572   7.315   5.510   2.925 -2.4593  0.2497  0.4793
   83MOL    H4939573   7.286   5.680   2.932  1.1379  2.5227 -2.6476
   83MOL    O5039574   7.310   5.498   2.667 -0.5488  0.3324  0.4269
   83MOL    C5139575   7.270   5.468   2.533  0.3203  0.3154  0.7352
   83MOL    C5239576   7.366   5.532   2.437 -0.1651 -0.8852  0.3453
   83MOL    C5339577   7.338   5.685   2.434 -1.0311 -0.1629  0.5572
   83MOL    C5439578   7.436   5.751   2.336 -0.1345  1.0465  0.1983
   83MOL    O5539579   7.560   5.785   2.408 -0.0302 -0.1674  0.2334
   83MOL    C5639580   7.676   5.717   2.378 -0.7409  0.1386  0.0741
   83MOL    O5739581   7.673   5.610   2.314  0.6288 -0.1869 -0.2348
   83MOL    C5839582   7.809   5.786   2.409 -0.0544 -0.1427 -1.1706
   83MOL    C5939583   7.788   5.892   2.519 -0.0037  0.1691  0.4180
   83MOL    C6039584   7.776   5.829   2.656  0.4492 -0.3548  0.6072
   83MOL    O6139585   7.690   5.741   2.675  1.0527  0.1952  0.5903
   83MOL    H6239586   7.279   5.361   2.514 -0.4088  0.9163 -3.3847
   83MOL    H6339587   7.165   5.499   2.526 -0.3126 -1.9243 -0.1240
   83MOL    H6439588   7.348   5.481   2.342  0.7399  0.8508 -0.7882
   83MOL    H6539589   7.470   5.509   2.460  0.6802  2.5550  0.2649
   83MOL    H6639590   7.364   5.727   2.531  1.3207 -0.5733  0.1522
   83MOL    H6739591   7.232   5.701   2.417 -2.3578 -5.4717  2.8749
   83MOL    H6839592   7.451   5.691   2.246  0.2648  1.7120 -0.1804
   83MOL    H6939593   7.371   5.828   2.293  0.3758  0.8673 -0.9117
   83MOL    H7039594   7.853   5.841   2.326 -1.0086  2.3159 -0.1135
   83MOL    H7139595   0.008   5.712   2.439 -0.7785 -0.8354 -1.0613
   83MOL    H7239596   7.869   5.965   2.524  0.4775 -0.4336  1.4880
   83MOL    H7339597   7.703   5.958   2.502  1.2695  2.0755  1.3172
   83MOL    O7439598   7.836   5.906   2.757 -0.3922  0.5415  0.2263
   83MOL    C7539599   7.815   5.878   2.891 -0.7411 -1.4506 -0.7710
   83MOL    C7639600   0.069   5.907   2.968 -0.9078 -0.3384  0.5994
   83MOL    C7739601   0.050   5.872   3.114  0.5847  0.1408  0.8584
   83MOL    C7839602   0.168   5.896   3.203 -0.5739 -0.6793  0.1165
   83MOL    O7939603   0.197   6.032   3.207  0.9385  0.2953  0.0861
   83MOL    C8039604   0.314   6.064   3.258  0.1778  0.7327  0.3205
   83MOL    O8139605   0.388   6.001   3.328 -0.9296 -0.8329 -0.6246
   83MOL    C8239606   0.351   6.207   3.223  0.1383 -0.0026 -0.3167
   83MOL    C8339607   0.498   6.250   3.252 -0.2848  0.5872  0.0225
   83MOL    C8439608   0.512   6.310   3.392 -0.7588 -0.2131 -0.5893
   83MOL    O8539609   0.423   6.351   3.465 -0.6268 -0.6360  0.6103
   83MOL    H8639610   7.733   5.947   2.914  0.3161 -0.1791 -0.7683
   83MOL    H8739611   7.796   5.772   2.909 -0.1954 -1.1714  1.6210
   83MOL    H8839612   0.084   6.015   2.955 -0.5908 -0.3770  0.6422
   83MOL    H8939613   0.164   5.866   2.934 -0.8438  0.4328 -0.1829
   83MOL    H9039614   0.024   5.767   3.124 -1.3643  0.4881 -0.2356
   83MOL    H9139615   7.843   5.927   3.161 -2.1129 -2.2470 -0.8100
   83MOL    H9239616   0.149   5.870   3.307 -0.2460 -1.5939 -0.0501
   83MOL    H9339617   0.250   5.844   3.154 -0.0438 -0.2704  0.5568
   83MOL    H9439618   0.279   6.279   3.260  0.9013 -0.4844  2.2029
   83MOL    H9539619   0.345   6.215   3.114  0.0229  1.7171 -0.1919
   83MOL    H9639620   0.572   6.177   3.220  0.2361  0.6725  1.0090
   83MOL    H9739621   0.525   6.338   3.194  1.8732  0.5119  0.8753
   83MOL    O9839622   0.640   6.313   3.425  0.0902  0.0835  0.1940
   83MOL    C9939623   0.691   6.360   3.549  0.2216  0.2613 -0.4943
   83MOL   C10039624   0.755   6.502   3.526 -0.3965 -0.1846 -0.3530
   83MOL   C10139625   0.800   6.569   3.655 -0.2617  0.1327  0.0905
   83MOL   C10239626   0.913   6.503   3.739 -0.8630 -0.1733 -0.1003
   83MOL   O10339627   0.836   6.407   3.816 -0.7284 -0.5755 -0.0514
   83MOL   C10439628   0.863   6.388   3.945 -0.2003 -0.1447  0.6556
   83MOL   O10539629   0.941   6.456   4.013 -0.2578  0.0497 -0.2950
   83MOL   C10639630   0.780   6.271   3.995  0.3446  0.0386 -0.1877
   83MOL   C10739631   0.626   6.298   4.000  0.0809  0.9537  0.2694
   83MOL   C10839632   0.568   6.225   4.118  0.2654  0.3219  0.2190
   83MOL   O10939633   0.520   6.282   4.218  0.0598 -0.4915 -0.0679
   83MOL   H11039634   0.619   6.368   3.630  1.5623  2.0591  0.5766
   83MOL   H11139635   0.771   6.298   3.589 -0.2990 -0.8773 -1.1970
   83MOL   H11239636   0.690   6.572   3.475 -3.0385  0.0677  3.1658
   83MOL   H11339637   0.840   6.487   3.460 -0.1407  2.5206 -0.6895
   83MOL   H11439638   0.708   6.596   3.706  0.4746  3.9085 -0.3877
   83MOL   H11539639   0.849   6.657   3.613  1.5498 -1.5387 -1.4515
   83MOL   H11639640   0.974   6.446   3.669  1.3527 -1.9666  3.1805
   83MOL   H11739641   0.967   6.572   3.804 -0.1471  0.0400 -0.9134
   83MOL   H11839642   0.808   6.249   4.098  1.0746 -0.8051 -0.5710
   83MOL   H11939643   0.798   6.180   3.938 -0.9603  1.6122 -3.2467
   83MOL   H12039644   0.591   6.401   4.010  0.1086  1.0162 -0.2436
   83MOL   H12139645   0.583   6.262   3.906 -1.3703  0.6965  1.0040
   83MOL   O12239646   0.564   6.091   4.096 -0.1153 -0.0880 -0.0911
   83MOL   C12339647   0.535   6.003   4.201  0.3912 -0.3899 -0.3709
   83MOL   C12439648   0.628   5.992   4.320 -0.4013 -0.1216 -1.2798
   83MOL   C12539649   0.766   5.952   4.269  0.0990  0.4112 -0.1627
   83MOL   C12639650   0.863   5.910   4.380  0.4788  0.0671  0.1349
   83MOL   O12739651   0.787   5.818   4.458 -0.2363  0.2391 -0.4705
   83MOL   C12839652   0.837   5.759   4.567  0.6410  0.4536  0.1970
   83MOL   O12939653   0.956   5.756   4.600  0.0145 -1.1440  0.5842
   83MOL   C13039654   0.729   5.694   4.654  0.0807 -0.4969 -0.0371
   83MOL   C13139655   0.782   5.557   4.693 -0.0819 -0.8995  0.1285
   83MOL   C13239656   0.691   5.443   4.648  1.1893  0.5371 -0.1481
   83MOL   O13339657   0.743   5.360   4.572  0.2034  0.1683 -0.2304
   83MOL   H13439658   0.440   6.034   4.244  0.7780  1.2469 -0.6957
   83MOL   H13539659   0.514   5.905   4.157 -0.2792  0.1639 -1.3079
   83MOL   H13639660   0.579   5.920   4.386  0.5782  0.9407  0.6628
   83MOL   H13739661   0.646   6.084   4.376 -0.4472 -2.1328  2.1722
   83MOL   H13839662   0.818   6.021   4.203 -0.3343 -0.3727 -1.3357
   83MOL   H13939663   0.756   5.861   4.210 -0.5492  1.0235 -1.0047
   83MOL   H14039664   0.961   5.870   4.356  0.0611 -0.8357 -0.0972
   83MOL   H14139665   0.880   5.992   4.450  2.8718 -0.4215  0.1716
   83MOL   H14239666   0.635   5.695   4.599  0.1130 -0.8343 -0.0971
   83MOL   H14339667   0.723   5.756   4.744 -1.1229 -0.6251 -0.0129
   83MOL   H14439668   0.879   5.534   4.650  0.2027 -1.5275  1.0759
   83MOL   H14539669   0.813   5.558   4.798 -1.7039 -2.5217  0.6418
   83MOL   O14639670   0.563   5.436   4.696  0.2206  0.0937  0.8588
   83MOL   C14739671   0.478   5.331   4.650  0.6256  0.2935  0.1742
   83MOL   C14839672   0.413   5.258   4.764  0.2525  0.9976  0.1781
   83MOL   C14939673   0.509   5.167   4.848  0.4924  0.3097 -0.5579
   83MOL   C15039674   0.439   5.063   4.928 -0.4812 -0.5036  0.0379
   83MOL   O15139675   0.329   5.128   5.002 -0.4592 -0.2654  0.6163
   83MOL   C15239676   0.323   5.094   5.134 -0.6320 -0.9280  0.0484
   83MOL   O15339677   0.390   5.018   5.200  0.2882  0.1436  0.0300
   83MOL   C15439678   0.203   5.162   5.201  0.5808  0.5343 -0.8124
   83MOL   C15539679   0.210   5.316   5.216 -0.1441  0.3608 -0.4811
   83MOL   C15639680   0.114   5.393   5.125  1.3449  0.2575 -0.1277
   83MOL   O15739681   0.002   5.427   5.174  0.2081  0.5276 -0.1453
   83MOL   H15839682   0.403   5.388   4.595 -0.3302  1.2651  2.4176
   83MOL   H15939683   0.535   5.258   4.593  0.5928 -0.6986  1.4019
   83MOL   H16039684   0.334   5.195   4.723 -0.6217  2.5710 -0.5675
   83MOL   H16139685   0.369   5.326   4.837 -1.4764  0.7108 -0.5541
   83MOL   H16239686   0.564   5.240   4.907 -2.6542  2.0940  0.2476
   83MOL   H16339687   0.581   5.118   4.782 -0.6121 -3.4111  0.8689
   83MOL   H16439688   0.408   4.975   4.872  1.4618 -1.6028  0.6422
   83MOL   H16539689   0.512   5.023   4.998 -2.9230 -1.0311  2.3647
   83MOL   H16639690   0.189   5.110   5.295  1.7276 -0.1706 -1.0286
   83MOL   H16739691   0.112   5.140   5.145 -0.5603  0.9178  0.8497
   83MOL   H16839692   0.191   5.347   5.319 -3.4771  0.0325 -0.9411
   83MOL   H16939693   0.309   5.350   5.187 -0.7931  1.3836 -1.5074
   83MOL   O17039694   0.143   5.396   4.998 -0.2301 -0.5311 -0.1187
   83MOL   C17139695   0.053   5.471   4.911  0.0182 -0.3883  0.2531
   83MOL   C17239696   0.008   5.383   4.800 -0.2682  0.6567  0.1313
   83MOL   C17339697   7.787   5.455   4.702  0.5072  0.1160 -0.4362
   83MOL   C17439698   7.689   5.359   4.631  0.0834  0.4618 -0.2721
   83MOL   O17539699   7.767   5.281   4.533  0.5126 -0.8207  0.2679
   83MOL   C17639700   7.707   5.184   4.468  0.0352 -0.2438  0.0923
   83MOL   O17739701   7.597   5.140   4.486  0.4149  0.2147 -0.0940
   83MOL   C17839702   7.804   5.134   4.358  0.1796  0.6958 -0.0020
   83MOL   C17939703   7.815   5.243   4.249  0.5980  0.1316 -0.1651
   83MOL   C18039704   0.003   5.193   4.113  0.4764  0.2082  0.5313
   83MOL   O18139705   0.042   5.077   4.086 -0.0365 -0.3369  0.1134
   83MOL   H18239706   7.847   5.519   4.968  1.1966  1.0503  0.7418
   83MOL   H18339707   0.115   5.554   4.877 -1.2049  0.8607  0.9971
   83MOL   H18439708   7.820   5.305   4.842 -0.8740  0.8187 -0.4627
   83MOL   H18539709   0.088   5.332   4.746 -1.4656 -1.8894  0.6881
   83MOL   H18639710   7.844   5.506   4.624 -0.8777 -0.0358 -1.5800
   83MOL   H18739711   7.733   5.531   4.758 -0.0662 -0.7104  0.1467
   83MOL   H18839712   7.640   5.294   4.704 -1.0658 -0.6583 -2.0144
   83MOL   H18939713   7.614   5.417   4.578 -0.9080 -2.4800 -2.2065
   83MOL   H19039714   7.759   5.043   4.317 -0.6962  1.4091 -0.6466
   83MOL   H19139715   0.024   5.101   4.401 -0.9917 -3.8329 -0.5791
   83MOL   H19239716   7.713   5.273   4.224  1.0714  1.5822 -0.3843
   83MOL   H19339717   7.873   5.331   4.275  1.8227 -0.3808 -1.0941
   83MOL   O19439718   0.018   5.300   4.030 -0.0824  0.2280 -0.0170
   83MOL   C19539719   0.069   5.274   3.901 -0.0930  0.2402  0.1550
   83MOL   C19639720   0.228   5.277   3.898  0.5186 -0.5660  0.1157
   83MOL   C19739721   0.296   5.346   3.777  0.0259 -0.2522  0.3077
   83MOL   C19839722   0.448   5.358   3.787  0.4073  0.3973  0.1740
   83MOL   O19939723   0.498   5.240   3.743 -0.1243  0.0830 -0.2336
   83MOL   C20039724   0.593   5.178   3.818 -0.0518 -0.1421 -0.2324
   83MOL   O20139725   0.630   5.221   3.930 -0.5089  0.2740  0.5598
   83MOL   C20239726   0.658   5.046   3.759  0.0910 -0.1752 -0.0941
   83MOL   C20339727   0.563   4.923   3.760 -0.1238 -0.3791  0.1409
   83MOL   C20439728   0.620   4.803   3.694  0.2487 -0.0657 -0.8336
   83MOL   O20539729   0.740   4.787   3.688  0.2250  0.1072 -0.1088
   83MOL   H20639730   0.031   5.174   3.880  0.5657 -0.3915  1.8661
   83MOL   H20739731   0.026   5.345   3.830  0.3408 -0.4021 -0.7471
   83MOL   H20839732   0.274   5.179   3.906 -0.8790 -1.2303  0.2563
   83MOL   H20939733   0.266   5.324   3.988 -0.9809 -1.1636  1.0849
   83MOL   H21039734   0.251   5.446   3.781 -0.5871 -0.5385  0.6786
   83MOL   H21139735   0.260   5.295   3.688 -0.7367 -1.9673  1.5723
   83MOL   H21239736   0.495   5.436   3.728 -1.3494 -0.1591 -2.0288
   83MOL   H21339737   0.474   5.378   3.891 -0.2060 -0.6010  0.5296
   83MOL   H21439738   0.746   5.024   3.819  0.5683 -0.6612 -0.9582
   83MOL   H21539739   0.699   5.060   3.659 -0.1226 -0.6603 -0.2492
   83MOL   H21639740   0.531   4.900   3.861 -1.2628  1.3266  0.1847
   83MOL   H21739741   0.465   4.950   3.720  0.5136  0.5986 -0.7727
   83MOL   O21839742   0.524   4.713   3.656 -0.3357 -0.4534 -0.3290
   83MOL   C21939743   0.562   4.578   3.631 -0.6140 -0.6124 -0.5985
   83MOL   C22039744   0.430   4.503   3.601  0.0758 -0.4528  0.3110
   83MOL   C22139745   0.446   4.369   3.529  0.4254 -0.1861  0.4518
   83MOL   C22239746   0.501   4.383   3.383  0.6252 -0.9521  0.1183
   83MOL   O22339747   0.640   4.411   3.385  0.3575 -0.7933  0.2072
   83MOL   C22439748   0.725   4.310   3.383 -0.7007  0.0511  0.2176
   83MOL   O22539749   0.686   4.190   3.389 -0.1028 -0.5491 -1.1115
   83MOL   C22639750   0.870   4.356   3.384 -0.3235  0.3058  0.2511
   83MOL   C22739751   0.924   4.364   3.521 -0.2472  0.4681  0.2562
   83MOL   C22839752   1.075   4.407   3.513 -0.2450  0.5656 -0.1782
   83MOL   O22939753   1.132   4.441   3.404  0.0306 -0.0434  0.2205
   83MOL   H23039754   0.630   4.584   3.546  3.7495  1.4575  2.8165
   83MOL   H23139755   0.612   4.534   3.717  2.8938 -1.9814 -3.2055
   83MOL   H23239756   0.365   4.569   3.544 -1.1088 -2.7561 -1.0913
   83MOL   H23339757   0.382   4.499   3.698  2.2154 -1.3006  1.3690
   83MOL   H23439758   0.346   4.327   3.519 -0.6122  2.3357 -0.1388
   83MOL   H23539759   0.503   4.301   3.594 -0.7681 -0.8568  0.8014
   83MOL   H23639760   0.473   4.308   3.309  1.1872 -0.2666 -0.8151
   83MOL   H23739761   0.451   4.468   3.338  1.3687 -1.1268 -1.0561
   83MOL   H23839762   0.889   4.453   3.339 -0.3693 -0.7430 -2.1333
   83MOL   H23939763   0.925   4.284   3.323 -0.1408  1.2889 -0.7571
   83MOL   H24039764   0.876   4.441   3.583 -1.7751  2.4529 -3.2481
   83MOL   H24139765   0.920   4.270   3.575 -1.6477 -0.5892 -1.6442
   83MOL   O24239766   1.125   4.437   3.642  0.3195  0.2504  0.4098
   83MOL   C24339767   1.259   4.480   3.652 -0.3544 -0.6713 -0.0150
   83MOL   C24439768   1.288   4.523   3.799  0.0939  0.7599 -0.1323
   83MOL   C24539769   1.294   4.394   3.892 -0.0464 -0.6061 -0.0492
   83MOL   C24639770   1.429   4.320   3.888  0.2490  0.4915  0.3327
   83MOL   O24739771   1.446   4.261   3.764  0.0607 -0.0656 -0.3521
   83MOL   C24839772   1.557   4.185   3.744 -0.0493  0.0888  0.3899
   83MOL   O24939773   1.642   4.172   3.831 -0.2902  0.1714  0.3986
   83MOL   C25039774   1.586   4.127   3.602  0.4610  0.9306  0.2434
   83MOL   C25139775   1.549   4.217   3.489  0.1425 -0.3247  0.0614
   83MOL   C25239776   1.448   4.154   3.393 -0.2465 -0.2903  0.3138
   83MOL   O25339777   1.485   4.130   3.278 -0.0731  0.5356 -0.1656
   83MOL   H25439778   1.334   4.409   3.616 -1.3772 -1.0632 -1.4264
   83MOL   H25539779   1.259   4.570   3.591 -0.2909 -0.4239  0.3478
   83MOL   H25639780   1.220   4.605   3.825 -0.5291 -0.7702  3.4272
   83MOL   H25739781   1.389   4.562   3.791 -0.0229  1.4405  1.4143
   83MOL   H25839782   1.205   4.332   3.887 -0.0181 -0.5864 -0.9065
   83MOL   H25939783   1.299   4.438   3.992  3.4410 -1.4127  0.1993
   83MOL   H26039784   1.507   4.392   3.908 -0.6936  1.3954  0.7769
   83MOL   H26139785   1.435   4.236   3.957  3.3935  0.3241 -0.0645
   83MOL   H26239786   1.558   4.022   3.600 -0.4668  1.1878 -0.5830
   83MOL   H26339787   1.694   4.122   3.592  0.3392  0.7018 -1.0666
   83MOL   H26439788   1.496   4.300   3.535 -0.5598  0.0122 -1.3327
   83MOL   H26539789   1.630   4.252   3.424 -0.9796  2.3610  0.0407
   83MOL   O26639790   1.328   4.141   3.445 -0.6491  0.7218  0.0027
   83MOL   C26739791   1.220   4.080   3.372  0.0593 -0.5381  0.3291
   83MOL   C26839792   1.114   4.030   3.472  0.0170 -0.1707  0.4133
   83MOL   C26939793   1.026   3.925   3.397 -0.1226  0.2180  0.3894
   83MOL   C27039794   0.936   3.840   3.494 -0.2019 -0.0466 -0.8348
   83MOL   O27139795   0.806   3.843   3.439  0.8479 -0.4503 -0.2567
   83MOL   C27239796   0.761   3.731   3.388  0.0600  0.5881  0.0419
   83MOL   O27339797   0.815   3.621   3.404  0.2391 -0.4273 -0.1356
   83MOL   C27439798   0.623   3.750   3.324 -0.4411 -0.4163 -0.7616
   83MOL   C27539799   0.547   3.625   3.289 -0.2720  0.3929 -0.0238
   83MOL   C27639800   0.585   3.585   3.148  0.5970  0.1060  0.7640
   83MOL   O27739801   0.699   3.595   3.103 -0.1165  0.6293 -0.3855
   83MOL   H27839802   1.173   4.155   3.309  1.0295 -0.1126  0.0976
   83MOL   H27939803   1.247   4.003   3.299  0.0238 -2.4273  2.2585
   83MOL   H28039804   1.050   4.111   3.506  0.1287  0.1487 -0.1233
   83MOL   H28139805   1.159   3.988   3.562 -3.6144  1.5362  3.1503
   83MOL   H28239806   1.092   3.849   3.354  0.4718  1.6331 -1.2385
   83MOL   H28339807   0.976   3.980   3.318  0.8650 -0.7817 -0.9483
   83MOL   H28439808   0.971   3.740   3.517  0.1104 -0.1688 -1.7991
   83MOL   H28539809   0.935   3.893   3.589  3.5714 -0.6522 -0.3695
   83MOL   H28639810   0.636   3.813   3.235  0.5710 -1.0318 -1.0689
   83MOL   H28739811   0.561   3.810   3.390 -0.9204 -1.5135 -0.2245
   83MOL   H28839812   0.595   3.561   3.363  0.5074 -0.2326 -1.0486
   83MOL   H28939813   0.443   3.629   3.320 -0.9587  1.5404 -2.3507
   83MOL   O29039814   0.491   3.534   3.079  0.4374  0.0272  0.1779
   83MOL   C29139815   0.511   3.496   2.943 -0.5909  0.2547  0.4625
   83MOL   C29239816   0.498   3.614   2.845  0.0284 -0.0388 -0.5397
   83MOL   C29339817   0.340   3.647   2.816 -0.7079 -0.4821 -0.2463
   83MOL   C29439818   0.270   3.529   2.740 -0.3127 -0.6905 -0.8120
   83MOL   O29539819   0.337   3.490   2.630  0.0416 -0.2199 -0.0750
   83MOL   C29639820   0.399   3.365   2.618  0.0511  0.4522  0.5053
   83MOL   O29739821   0.405   3.279   2.705 -0.1904  0.8463  0.0214
   83MOL   C29839822   0.464   3.347   2.482 -0.4239 -0.0307  0.4499
   83MOL   C29939823   0.581   3.441   2.447 -0.0865  0.5966 -0.9186
   83MOL   C30039824   0.707   3.402   2.516 -0.1419 -0.2690  0.1647
   83MOL   O30139825   0.764   3.486   2.588  0.5099 -0.4053  0.3087
   83MOL   H30239826   0.604   3.442   2.930 -0.1370  1.2481 -0.5898
   83MOL   H30339827   0.441   3.416   2.919  0.8358 -0.6207 -0.8987
   83MOL   H30439828   0.543   3.585   2.750  0.8111  0.7233 -0.4053
   83MOL   H30539829   0.557   3.702   2.868  0.0363  0.1772 -1.3768
   83MOL   H30639830   0.342   3.736   2.753  1.0437  0.4515  1.1107
   83MOL   H30739831   0.294   3.667   2.912  0.0836  2.2528 -0.4114
   83MOL   H30839832   0.254   3.448   2.812  1.4199 -1.0192 -0.7611
   83MOL   H30939833   0.173   3.562   2.704  0.2400  0.1156 -1.5633
   83MOL   H31039834   0.394   3.356   2.399 -1.4482  0.3807  1.3452
   83MOL   H31139835   0.492   3.243   2.466 -1.1534  0.0004 -1.0878
   83MOL   H31239836   0.598   3.427   2.340  0.1712  1.7973 -1.0352
   83MOL   H31339837   0.554   3.546   2.458  2.8557  1.0992  2.0828
   83MOL   O31439838   0.764   3.286   2.480  0.1404 -0.4245 -0.8071
   83MOL   C31539839   0.880   3.246   2.541 -0.5638 -0.2911 -1.0795
   83MOL   C31639840   0.915   3.116   2.478  0.3964 -0.7519 -0.2798
   83MOL   C31739841   0.951   3.120   2.328  1.1521 -0.1561  0.7440
   83MOL   C31839842   0.838   3.145   2.224 -0.0283  0.4315  0.6999
   83MOL   O31939843   0.873   3.126   2.086 -0.0399 -0.2145 -0.5051
   83MOL   C32039844   0.933   3.226   2.016 -0.5085 -0.0768 -0.3308
   83MOL   O32139845   0.970   3.337   2.048  0.6509 -0.1242 -0.0072
   83MOL   C32239846   0.944   3.180   1.870 -0.1224  0.0541  0.0242
   83MOL   C32339847   0.892   3.274   1.763  0.4528 -0.6066  0.2604
   83MOL   C32439848   0.743   3.280   1.743 -0.5103 -0.4406  0.5915
   83MOL   O32539849   0.676   3.187   1.782  0.8576  0.1123 -0.2000
   83MOL   H32639850   0.963   3.315   2.533 -1.2657  0.5267 -1.4156
   83MOL   H32739851   0.851   3.221   2.643 -0.2138  0.9288 -0.6788
   83MOL   H32839852   0.833   3.046   2.491  0.7031 -0.9133  0.8367
   83MOL   H32939853   1.006   3.079   2.525  1.2699  0.4269 -1.0201
   83MOL   H33039854   1.015   3.040   2.292  0.9663 -0.5887  1.3738
   83MOL   H33139855   1.025   3.200   2.326 -0.9895  1.9003  1.3894
   83MOL   H33239856   0.765   3.071   2.258  1.6575 -1.0703  1.1489
   83MOL   H33339857   0.795   3.243   2.244 -1.5859 -0.1994  0.4426
   83MOL   H33439858   0.911   3.079   1.844 -1.0037  0.1976  0.5489
   83MOL   H33539859   1.052   3.190   1.862 -0.0760 -0.7437 -0.4250
   83MOL   H33639860   0.944   3.370   1.761  1.6195 -1.2105  0.7314
   83MOL   H33739861   0.924   3.228   1.669  0.1122 -1.0816  0.3761
   83MOL   O33839862   0.699   3.396   1.679  0.0188  0.2020 -0.7416
   83MOL   C33939863   0.573   3.385   1.616  0.0047  0.2975  0.3189
   83MOL   C34039864   0.546   3.524   1.553  0.8065  0.9327 -0.3329
   83MOL   C34139865   0.416   3.520   1.476  0.1840 -0.1949 -0.2654
   83MOL   C34239866   0.359   3.661   1.427 -0.3501  0.3687  0.3808
   83MOL   O34339867   0.473   3.736   1.374 -0.2758  0.5592 -0.0062
   83MOL   C34439868   0.459   3.856   1.334 -0.1056  0.5228 -0.9410
   83MOL   O34539869   0.358   3.917   1.365  0.2719  0.0992  0.3133
   83MOL   C34639870   0.583   3.915   1.277  0.3416 -0.6135 -0.0888
   83MOL   C34739871   0.698   3.938   1.375 -0.2227 -0.2761 -0.4150
   83MOL   C34839872   0.778   4.066   1.358 -0.2168 -0.3573 -1.1506
   83MOL   O34939873   0.765   4.144   1.258 -0.0767  0.1515 -0.0501
   83MOL   H35039874   0.570   3.308   1.540  1.7064  0.0359  0.4778
   83MOL   H35139875   0.502   3.358   1.694  1.2521 -0.8115  1.0942
   83MOL   H35239876   0.622   3.544   1.477 -1.0246  2.1951 -1.8621
   83MOL   H35339877   0.544   3.611   1.618  0.2237  1.2599 -0.7937
   83MOL   H35439878   0.334   3.481   1.536 -1.3502  1.7314 -1.0126
   83MOL   H35539879   0.424   3.449   1.394 -1.4984 -1.7989  0.9163
   83MOL   H35639880   0.279   3.656   1.354 -0.3336  0.9973  0.3215
   83MOL   H35739881   0.320   3.706   1.518 -0.7584  1.2464 -0.2280
   83MOL   H35839882   0.545   4.005   1.229  0.9614 -0.0039  0.5616
   83MOL   H35939883   0.624   3.854   1.197  1.6895 -0.7833  0.7223
   83MOL   H36039884   0.653   3.939   1.475  1.2007 -2.5051  0.2906
   83MOL   H36139885   0.762   3.850   1.373  0.9716  0.5629  0.5034
   83MOL   O36239886   0.874   4.076   1.447 -0.1154 -0.3417  0.0262
   83MOL   C36339887   0.956   4.188   1.432  0.0851 -0.4758 -0.2732
   83MOL   C36439888   1.041   4.200   1.559 -0.5070  0.3229  0.4923
   83MOL   C36539889   1.151   4.092   1.568  0.9197 -1.1259  0.9057
   83MOL   C36639890   1.209   4.088   1.708  0.3215  0.5609 -0.0447
   83MOL   O36739891   1.288   4.206   1.726 -0.4061  0.5446 -0.2660
   83MOL   C36839892   1.271   4.287   1.832  0.3908  0.8219 -0.1200
   83MOL   O36939893   1.190   4.262   1.925  0.5516  0.2243 -0.0306
   83MOL   C37039894   1.368   4.410   1.838  0.0662 -0.6585  0.0260
   83MOL   C37139895   1.496   4.366   1.895 -0.5067 -0.6376 -0.0130
   83MOL   C37239896   1.496   4.365   2.046  0.2886 -0.1566 -0.8061
   83MOL   O37339897   1.460   4.460   2.119  0.2733 -0.5288 -0.1996
   83MOL   H37439898   1.015   4.192   1.340  1.0659 -0.6611  0.3356
   83MOL   H37539899   0.892   4.275   1.418  0.6001 -0.4021 -2.4672
   83MOL   H37639900   0.976   4.198   1.647  1.0821  0.6432  1.7097
   83MOL   H37739901   1.079   4.302   1.556  0.5509 -0.1016 -1.1898
   83MOL   H37839902   1.231   4.107   1.496 -0.3674 -0.2135 -0.3709
   83MOL   H37939903   1.096   4.001   1.544 -1.1412 -0.2626  2.1682
   83MOL   H38039904   1.123   4.077   1.775  0.1607 -1.2692 -0.5115
   83MOL   H38139905   1.271   3.998   1.708 -0.9230 -0.3488 -2.4599
   83MOL   H38239906   1.321   4.491   1.892  1.0588 -0.5502  0.7560
   83MOL   H38339907   1.379   4.435   1.733  1.2700  0.7623  0.4731
   83MOL   H38439908   1.536   4.272   1.856 -0.6923 -0.1818 -1.3189
   83MOL   H38539909   1.570   4.442   1.871 -0.1493  0.0554  3.1833
   83MOL   O38639910   1.570   4.257   2.081  0.3588 -0.0003 -0.5008
   83MOL   C38739911   1.607   4.242   2.215 -0.2676 -0.1060 -0.3377
   83MOL   C38839912   1.752   4.195   2.217  0.4884  0.6609 -0.5500
   83MOL   C38939913   1.847   4.272   2.126  0.8921  0.4283  0.2863
   83MOL   C39039914   1.989   4.213   2.116  0.0008 -0.3726 -0.2802
   83MOL   O39139915   2.068   4.276   2.015  0.6896 -0.7100  0.0510
   83MOL   C39239916   2.203   4.275   2.014  0.0970 -0.3470 -0.6191
   83MOL   O39339917   2.273   4.245   2.108  0.9817  0.4055 -0.5037
   83MOL   C39439918   2.266   4.343   1.896  1.0020  0.7914  0.5210
   83MOL   C39539919   2.266   4.252   1.773  0.2603  0.0090  0.9173
   83MOL   C39639920   2.136   4.243   1.694 -0.1892  0.2913 -0.2557
   83MOL   O39739921   2.072   4.141   1.693 -0.4184 -0.2531  0.2390
   83MOL   H39839922   1.624   4.341   2.258 -1.0741  0.7146 -1.8831
   83MOL   H39939923   1.545   4.184   2.284  0.7939  0.5233  1.1679
   83MOL   H40039924   1.739   4.092   2.182 -0.1522  0.8113 -0.7532
   83MOL   H40139925   1.787   4.192   2.320 -1.6877 -0.3401  0.1675
   83MOL   H40239926   1.840   4.372   2.167  0.3272 -0.4855  2.4637
   83MOL   H40339927   1.799   4.277   2.028  1.1164  0.2480  0.1679
   83MOL   H40439928   2.038   4.221   2.214 -0.9696  2.1276  0.0360
   83MOL   H40539929   1.985   4.108   2.090  2.3122 -0.6790  0.4880
   83MOL   H40639930   2.369   4.364   1.925  1.5762  0.2813 -1.0829
   83MOL   H40739931   2.221   4.437   1.864 -1.0764  0.4669  2.3890
   83MOL   H40839932   2.341   4.296   1.707 -0.1775  0.2294  0.5620
   83MOL   H40939933   2.313   4.155   1.789 -0.1976 -0.9452 -2.9183
   83MOL   O41039934   2.092   4.360   1.644  0.1188  0.2449 -0.4332
   83MOL   C41139935   1.968   4.365   1.578  0.1301  0.1687 -0.0937
   83MOL   C41239936   1.895   4.498   1.585  0.0243 -0.4460  0.1189
   83MOL   C41339937   1.808   4.526   1.713  0.4180  0.8195 -0.1739
   83MOL   C41439938   1.895   4.536   1.845  0.4355 -0.9519  0.1647
   83MOL   O41539939   1.809   4.569   1.948  0.3764  0.7545 -0.1522
   83MOL   C41639940   1.851   4.639   2.056 -0.1145  0.0482  0.5503
   83MOL   O41739941   1.972   4.670   2.071  0.1409  0.1020 -0.3892
   83MOL   C41839942   1.746   4.665   2.160  0.1526  0.4092 -0.3252
   83MOL   C41939943   1.791   4.755   2.281 -0.1487 -0.0275  0.0493
   83MOL   C42039944   1.870   4.688   2.388 -0.2553  0.4316 -0.0118
   83MOL   O42139945   1.907   4.572   2.383  0.2799 -0.2934 -0.0967
   83MOL   H42239946   1.991   4.342   1.474  0.1966 -0.3427  0.0325
   83MOL   H42339947   1.899   4.284   1.602 -0.6771  1.2510  1.3201
   83MOL   H42439948   1.831   4.508   1.497 -0.3564 -1.5001  0.2766
   83MOL   H42539949   1.958   4.587   1.574  0.2033 -0.2448  2.5068
   83MOL   H42639950   1.750   4.434   1.719  1.6987 -0.0944 -1.3330
   83MOL   H42739951   1.744   4.613   1.697  0.7814  0.9415 -0.9887
   83MOL   H42839952   1.945   4.439   1.853  0.8412 -0.9886 -2.4142
   83MOL   H42939953   1.969   4.617   1.845  1.1165 -1.5471  1.4487
   83MOL   H43039954   1.695   4.571   2.182  3.5502 -2.1667 -2.8196
   83MOL   H43139955   1.671   4.720   2.103 -1.3812 -1.9668 -0.6436
   83MOL   H43239956   1.850   4.840   2.247  0.2590  0.9094  2.8908
   83MOL   H43339957   1.712   4.781   2.351 -0.1062 -0.0650  0.1120
   83MOL   O43439958   1.884   4.772   2.496 -0.4249  0.9122 -0.2834
   83MOL   C43539959   1.952   4.729   2.610 -0.1947 -0.1958 -0.2406
   83MOL   C43639960   2.076   4.816   2.622  0.2469  0.0925 -0.3001
   83MOL   C43739961   2.047   4.964   2.661  0.2004  0.2501 -0.5586
   83MOL   C43839962   2.168   5.027   2.724  0.1522 -0.5816 -0.2355
   83MOL   O43939963   2.258   5.051   2.615  0.4269 -0.6183  0.2224
   83MOL   C44039964   2.364   4.987   2.583  0.7343  0.2149 -0.1008
   83MOL   O44139965   2.417   4.905   2.656 -0.3729  0.0138  0.2659
   83MOL   C44239966   2.435   5.040   2.462 -0.0394 -0.5262  0.0574
   83MOL   C44339967   2.474   5.192   2.473 -0.0787  0.5904 -0.2558
   83MOL   C44439968   2.367   5.273   2.408 -0.1559 -0.3325  0.0846
   83MOL   O44539969   2.302   5.343   2.484  0.3385  0.3609 -0.0762
   83MOL   H44639970   1.897   4.727   2.705  0.5321 -0.1152  0.1906
   83MOL   H44739971   1.991   4.628   2.595  0.7216  0.4472 -2.3570
   83MOL   H44839972   2.130   4.826   2.528 -0.1079 -0.1062 -0.5238
   83MOL   H44939973   2.140   4.776   2.701  0.2796  1.5834  0.4354
   83MOL   H45039974   1.967   4.971   2.735 -0.7435 -1.1118 -1.4183
   83MOL   H45139975   2.019   5.002   2.563 -0.0567 -1.7058 -1.2705
   83MOL   H45239976   2.137   5.126   2.756  1.0105 -0.3056 -0.2324
   83MOL   H45339977   2.211   4.968   2.805 -0.5671  0.7888  1.1812
   83MOL   H45439978   2.379   5.021   2.370 -0.1536  1.3727 -0.2756
   83MOL   H45539979   2.521   4.979   2.436 -0.7831 -1.6124  0.0774
   83MOL   H45639980   2.504   5.213   2.576  0.2597 -1.4216  0.0600
   83MOL   H45739981   2.571   5.206   2.424  1.0786 -0.1511  1.7704
   83MOL   O45839982   2.344   5.267   2.270  0.0867  0.4853 -0.0265
   83MOL   C45939983   2.232   5.339   2.219 -0.4115 -0.0113 -0.3681
   83MOL   C46039984   2.292   5.473   2.166 -0.0300  0.7822 -0.1130
   83MOL   C46139985   2.202   5.583   2.188 -0.3849  0.2257  0.1029
   83MOL   C46239986   2.253   5.718   2.162  0.6168  0.0180  0.0365
   83MOL   O46339987   2.252   5.748   2.022 -0.2636 -0.0152 -0.2088
   83MOL   C46439988   2.134   5.776   1.952  0.2758 -0.1778 -0.5213
   83MOL   O46539989   2.027   5.807   2.007  0.3181  0.0069 -0.0546
   83MOL   C46639990   2.144   5.762   1.800 -1.1199 -0.2507 -0.4901
   83MOL   C46739991   2.217   5.895   1.754  0.0976 -0.1440  0.2165
   83MOL   C46839992   2.347   5.870   1.677  0.0769 -0.1634  0.9509
   83MOL   O46939993   2.397   5.761   1.679  0.3709  0.4402 -0.6819
   83MOL   H47039994   2.187   5.290   2.132  0.3439 -1.1546 -0.1212
   83MOL   H47139995   2.151   5.350   2.291 -0.7831 -0.6033 -0.6892
   83MOL   H47239996   2.331   5.481   2.065  0.2364  0.9827  0.0052
   83MOL   H47339997   2.376   5.503   2.228 -0.3678  0.0365  0.7227
   83MOL   H47439998   2.177   5.575   2.294 -2.4441  1.1618 -0.2841
   83MOL   H47539999   2.106   5.564   2.139 -0.1396  0.3519 -0.4205
   83MOL   H47640000   2.196   5.795   2.214  2.5523  2.1664 -0.9217
   83MOL   H47740001   2.355   5.730   2.198  0.2362 -0.3762  1.2529
   83MOL   H47840002   2.045   5.739   1.762 -0.5968  1.1916 -2.8088
   83MOL   H47940003   2.206   5.677   1.773  0.3144  0.2115  1.2374
   83MOL   H48040004   2.159   5.959   1.687  2.1292  1.3938 -0.1296
   83MOL   H48140005   2.231   5.964   1.837  2.2985 -0.2625 -0.0247
   83MOL   H48240006   2.384   5.953   1.618  2.5331 -2.6777 -1.2156
   84MOL     O140007   2.897   0.818   0.957 -0.0780  0.4583  0.4716
   84MOL     C240008   2.904   0.736   0.843 -0.1319  0.0879  0.1832
   84MOL     C340009   3.015   0.796   0.766 -0.5408  0.2001 -0.5125
   84MOL     C440010   2.976   0.929   0.692 -0.2336  0.4765 -1.0829
   84MOL     C540011   3.098   0.989   0.619  0.3953  0.2677  0.0630
   84MOL     O640012   3.104   1.138   0.629  0.1499  0.0810  0.1008
   84MOL     C740013   3.032   1.213   0.548 -0.5398  0.1561  0.9216
   84MOL     O840014   2.952   1.167   0.464 -0.1135  0.1452 -0.1022
   84MOL     C940015   3.051   1.364   0.569  0.5027 -0.4061  0.1958
   84MOL    C1040016   3.193   1.399   0.627 -0.2726 -0.5424 -0.7439
   84MOL    C1140017   3.249   1.542   0.605 -0.2123 -0.3246  0.2847
   84MOL    O1240018   3.207   1.610   0.513  0.8177  0.0433  0.4605
   84MOL    H1340019   2.916   0.632   0.870 -1.3884 -0.6953 -2.1486
   84MOL    H1440020   2.816   0.724   0.780 -1.2058  0.7203  1.5277
   84MOL    H1540021   3.059   0.717   0.705  0.5856 -0.6782  1.3683
   84MOL    H1640022   3.091   0.818   0.842 -0.5140 -3.1910  0.5471
   84MOL    H1740023   2.942   0.999   0.768 -0.8174  1.7874 -2.5266
   84MOL    H1840024   2.897   0.912   0.619  0.9938 -1.1981 -2.0477
   84MOL    H1940025   3.195   0.962   0.660  0.8118  1.5576 -0.0524
   84MOL    H2040026   3.092   0.963   0.514 -1.5675 -1.0857  0.4734
   84MOL    H2140027   2.976   1.394   0.642 -0.9576 -2.3069 -0.4768
   84MOL    H2240028   3.044   1.417   0.474  1.4791 -0.4167  0.1135
   84MOL    H2340029   3.190   1.382   0.735  2.4923 -0.1285 -0.5600
   84MOL    H2440030   3.271   1.328   0.599  1.4925  0.6384  1.0564
   84MOL    H2540031   2.917   0.755   1.025  3.7453  1.2667  0.1740
   84MOL    O2640032   3.348   1.577   0.688  0.3524  0.0033  0.2077
   84MOL    C2740033   3.423   1.687   0.667  0.0350  0.2916  0.0896
   84MOL    C2840034   3.498   1.716   0.792 -0.3652 -0.1828  0.3035
   84MOL    C2940035   3.621   1.624   0.820 -0.3406 -0.2555  0.5684
   84MOL    C3040036   3.643   1.591   0.968 -0.4920 -0.4983  0.1478
   84MOL    O3140037   3.529   1.510   1.012 -0.2121  0.5878 -0.0528
   84MOL    C3240038   3.457   1.551   1.123  0.5129 -0.1768  0.0394
   84MOL    O3340039   3.474   1.656   1.186  0.4494  0.0481 -0.1182
   84MOL    C3440040   3.337   1.463   1.155 -0.0923  0.0710  0.3391
   84MOL    C3540041   3.378   1.332   1.219 -0.0168  0.4240 -0.4654
   84MOL    C3640042   3.317   1.214   1.152 -0.5272  0.2483 -0.7253
   84MOL    O3740043   3.241   1.136   1.213 -0.3963 -0.2871 -0.0807
   84MOL    H3840044   3.486   1.657   0.583 -3.3710 -3.3564 -1.3007
   84MOL    H3940045   3.356   1.767   0.638 -1.6058 -1.6010 -1.4741
   84MOL    H4040046   3.430   1.707   0.876  0.5805  2.7218  1.4412
   84MOL    H4140047   3.526   1.821   0.782 -0.6942 -0.1341 -0.1389
   84MOL    H4240048   3.708   1.683   0.791  0.9134 -1.0714  2.6230
   84MOL    H4340049   3.616   1.532   0.762  1.2022  1.1552 -1.9065
   84MOL    H4440050   3.727   1.525   0.989 -0.6080 -0.4405  0.8065
   84MOL    H4540051   3.658   1.679   1.030  2.3837 -1.0913  0.3875
   84MOL    H4640052   3.291   1.446   1.057 -0.7151  1.0915  0.4492
   84MOL    H4740053   3.273   1.527   1.216 -0.5463 -0.6317  0.6020
   84MOL    H4840054   3.487   1.327   1.224 -0.1297 -0.8840  1.7289
   84MOL    H4940055   3.339   1.325   1.321 -1.4039  0.8409 -0.9692
   84MOL    O5040056   3.354   1.209   1.021 -0.3555 -0.0306  0.1383
   84MOL    C5140057   3.336   1.095   0.939 -0.8799  0.3665 -0.2037
   84MOL    C5240058   3.479   1.033   0.922  0.1817  0.4144  0.2522
   84MOL    C5340059   3.488   0.900   0.854 -0.4121  0.4768 -0.4428
   84MOL    C5440060   3.631   0.854   0.839  0.0508  0.1324 -0.1239
   84MOL    O5540061   3.701   0.867   0.958  0.5436  0.5927  0.2285
   84MOL    C5640062   3.828   0.835   0.960  0.9760  0.0275  0.0503
   84MOL    O5740063   3.892   0.806   0.862 -0.0570  0.3988 -0.1399
   84MOL    C5840064   3.891   0.845   1.099  0.5198  0.0716  0.7632
   84MOL    C5940065   4.038   0.821   1.100 -0.0089 -0.0988 -0.7489
   84MOL    C6040066   4.086   0.685   1.148  0.4316 -0.0336 -0.0481
   84MOL    O6140067   4.009   0.590   1.181 -0.2912 -0.3286  0.3786
   84MOL    H6240068   3.263   1.027   0.981 -1.8263 -0.3212 -2.8861
   84MOL    H6340069   3.295   1.113   0.840 -1.7385  2.2585  0.4636
   84MOL    H6440070   3.526   1.022   1.019  1.2008 -0.8995 -0.3686
   84MOL    H6540071   3.551   1.101   0.877 -0.1436 -0.0950 -1.0852
   84MOL    H6640072   3.452   0.905   0.751 -2.4631 -0.6832  0.1823
   84MOL    H6740073   3.428   0.827   0.909  0.9151 -1.3448 -1.3602
   84MOL    H6840074   3.635   0.746   0.824  3.7266  0.2754 -0.7090
   84MOL    H6940075   3.676   0.903   0.752 -1.7217  0.6092 -0.7853
   84MOL    H7040076   3.841   0.768   1.158 -0.4344  0.7077  0.8035
   84MOL    H7140077   3.874   0.940   1.150 -2.9431  0.0705 -0.2731
   84MOL    H7240078   4.070   0.820   0.995 -0.0392 -3.8892 -0.7778
   84MOL    H7340079   4.093   0.902   1.148  0.8410 -0.3912 -1.2050
   84MOL    O7440080   4.222   0.687   1.151  0.0074 -0.1463  0.1424
   84MOL    C7540081   4.293   0.573   1.210 -0.3037  0.2658 -0.0265
   84MOL    C7640082   4.445   0.588   1.209 -0.0192 -0.0817 -0.0904
   84MOL    C7740083   4.516   0.532   1.081  0.1297  0.0987 -0.6994
   84MOL    C7840084   4.667   0.573   1.067  0.5579  0.7716  0.2616
   84MOL    O7940085   4.681   0.714   1.078 -0.6484  0.1366  0.2897
   84MOL    C8040086   4.790   0.761   1.141  0.4184 -0.1091 -0.1366
   84MOL    O8140087   4.873   0.699   1.209  0.3230  0.5105 -0.0964
   84MOL    C8240088   4.797   0.905   1.139 -0.2909  0.4022 -0.0343
   84MOL    C8340089   4.804   0.965   1.280 -0.4954  0.3742 -0.2708
   84MOL    C8440090   4.687   0.958   1.379 -0.5185  0.7465  0.5644
   84MOL    O8540091   4.586   0.898   1.359 -0.2286  1.1354 -0.6824
   84MOL    H8640092   4.245   0.563   1.307  0.2965  1.8068  0.4380
   84MOL    H8740093   4.269   0.485   1.150 -2.8135 -0.3110  1.7629
   84MOL    H8840094   4.485   0.530   1.293 -1.3228 -1.2944 -0.2863
   84MOL    H8940095   4.468   0.692   1.229  2.0293 -0.6628  0.7057
   84MOL    H9040096   4.469   0.564   0.989 -1.9388  1.0590  0.6605
   84MOL    H9140097   4.510   0.423   1.088  1.5138  0.1065  1.1121
   84MOL    H9240098   4.717   0.514   1.144  1.0665 -0.3387 -0.8893
   84MOL    H9340099   4.705   0.528   0.975  1.4436  0.5419  0.7395
   84MOL    H9440100   4.722   0.949   1.073 -0.2903 -2.0087 -1.6730
   84MOL    H9540101   4.888   0.926   1.083 -0.2594 -1.5415 -0.7299
   84MOL    H9640102   4.890   0.917   1.326 -0.0971  0.8556 -0.5146
   84MOL    H9740103   4.822   1.072   1.275  1.6519  0.0616  0.3742
   84MOL    O9840104   4.715   1.024   1.497  0.5046 -0.4895 -0.4039
   84MOL    C9940105   4.616   1.044   1.594 -0.4381  0.8088 -0.0014
   84MOL   C10040106   4.609   1.193   1.627  0.1791 -0.3129  0.4812
   84MOL   C10140107   4.483   1.246   1.689  0.4494  0.7429 -0.7056
   84MOL   C10240108   4.456   1.199   1.824  0.0997 -0.9385 -0.5504
   84MOL   O10340109   4.341   1.260   1.873  0.3704  0.3504  0.2024
   84MOL   C10440110   4.300   1.236   2.007  0.3167  0.2652  0.2775
   84MOL   O10540111   4.366   1.182   2.090 -0.1020 -0.6653  0.4167
   84MOL   C10640112   4.158   1.290   2.037 -0.3485 -0.0481 -0.0062
   84MOL   C10740113   4.117   1.419   1.965 -0.2496 -0.5027  0.3057
   84MOL   C10840114   4.046   1.394   1.833 -0.1705 -0.7935 -0.5762
   84MOL   O10940115   3.966   1.299   1.818 -0.2803 -0.2538 -0.0877
   84MOL   H11040116   4.514   1.014   1.568  0.8270 -3.5011 -0.3882
   84MOL   H11140117   4.640   0.996   1.689  1.1834 -1.0170 -1.3235
   84MOL   H11240118   4.621   1.256   1.538  0.1843 -0.2067  0.5577
   84MOL   H11340119   4.691   1.222   1.692  0.1532  0.7388  0.0727
   84MOL   H11440120   4.414   1.198   1.620  2.1146 -1.2814 -0.9954
   84MOL   H11540121   4.483   1.355   1.677 -3.1469  0.8141 -0.5745
   84MOL   H11640122   4.435   1.092   1.819  1.3796 -1.1559 -1.8550
   84MOL   H11740123   4.546   1.210   1.885 -0.0416 -0.8637 -0.3579
   84MOL   H11840124   4.158   1.316   2.143 -1.4203 -1.4579  0.3583
   84MOL   H11940125   4.083   1.211   2.036  1.3241 -1.7579  2.6646
   84MOL   H12040126   4.042   1.464   2.030  0.2862  0.0021  0.5829
   84MOL   H12140127   4.199   1.490   1.955 -2.9256  2.3269 -2.5371
   84MOL   O12240128   4.067   1.492   1.749 -0.0064  0.7958 -0.3949
   84MOL   C12340129   4.015   1.477   1.608 -0.9270  0.4455 -0.4807
   84MOL   C12440130   3.868   1.505   1.607  0.1970  0.1494 -0.1661
   84MOL   C12540131   3.811   1.506   1.463 -0.2751 -0.6401  0.2199
   84MOL   C12640132   3.663   1.549   1.465  0.0529 -0.0799  0.0415
   84MOL   O12740133   3.582   1.441   1.500  0.0206 -0.4894  0.1856
   84MOL   C12840134   3.525   1.437   1.627 -0.3453  0.3296  0.2376
   84MOL   O12940135   3.525   1.513   1.722 -0.4342  0.0134 -0.4088
   84MOL   C13040136   3.447   1.301   1.650 -0.6700 -0.9426  0.0912
   84MOL   C13140137   3.556   1.213   1.717  0.2017 -0.0052  0.0962
   84MOL   C13240138   3.603   1.109   1.623  0.4263  0.0896 -0.8925
   84MOL   O13340139   3.519   1.042   1.563 -0.8360 -0.2094 -0.5955
   84MOL   H13440140   4.066   1.544   1.538 -0.1074  0.5369  0.1947
   84MOL   H13540141   4.018   1.374   1.573 -0.9937 -0.6510  2.5894
   84MOL   H13640142   3.843   1.595   1.664  1.0389  1.1359 -1.3182
   84MOL   H13740143   3.807   1.434   1.662  0.0176 -0.5971 -1.3268
   84MOL   H13840144   3.812   1.403   1.427 -0.5169 -1.0835  1.4662
   84MOL   H13940145   3.871   1.570   1.398 -0.2637 -0.3971  0.4680
   84MOL   H14040146   3.660   1.638   1.528  1.4900 -1.4536  2.1292
   84MOL   H14140147   3.637   1.579   1.364 -0.8095 -1.5238 -0.1764
   84MOL   H14240148   3.420   1.254   1.555 -1.0077  1.8616 -1.2627
   84MOL   H14340149   3.360   1.307   1.715 -0.8592  2.1535 -0.3709
   84MOL   H14440150   3.643   1.264   1.756  0.8634 -0.0102 -1.3419
   84MOL   H14540151   3.506   1.164   1.801 -0.4624  1.0992  0.3606
   84MOL   O14640152   3.740   1.099   1.611 -0.1227 -0.2824  0.1042
   84MOL   C14740153   3.794   1.023   1.507  0.4911  0.3833  0.1431
   84MOL   C14840154   3.845   1.113   1.394 -0.0161 -0.2706  0.3090
   84MOL   C14940155   3.730   1.174   1.304  0.9122  0.1573 -0.0664
   84MOL   C15040156   3.776   1.267   1.188 -0.2223  0.0568  0.6512
   84MOL   O15140157   3.848   1.190   1.081 -0.0702  0.4017 -0.2347
   84MOL   C15240158   3.901   1.256   0.978  0.2879 -0.1873  0.1724
   84MOL   O15340159   3.893   1.383   0.955 -0.3492  0.4626 -0.9141
   84MOL   C15440160   3.992   1.164   0.895 -0.3792 -0.5542 -0.2667
   84MOL   C15540161   4.047   1.226   0.767  0.4593  0.2436 -0.4768
   84MOL   C15640162   4.059   1.126   0.650 -0.3949  0.0696  0.1469
   84MOL   O15740163   4.166   1.083   0.613  0.0480 -0.4943 -0.0124
   84MOL   H15840164   3.876   0.972   1.557 -0.4043 -0.4513  0.7750
   84MOL   H15940165   3.727   0.946   1.470  2.2755 -1.0767 -0.1238
   84MOL   H16040166   3.912   1.054   1.330  1.7479  1.1025  0.8361
   84MOL   H16140167   3.899   1.201   1.427 -0.9247  0.4992 -0.2315
   84MOL   H16240168   3.657   1.237   1.355 -0.2672 -0.8198 -0.5139
   84MOL   H16340169   3.657   1.097   1.278  0.0010  1.0705 -0.2783
   84MOL   H16440170   3.683   1.309   1.149 -0.2019 -0.0631  0.4705
   84MOL   H16540171   3.846   1.345   1.220  1.1558 -0.3091 -1.3272
   84MOL   H16640172   3.926   1.082   0.866 -3.9246  1.9388  0.3808
   84MOL   H16740173   4.064   1.127   0.968  1.3157 -0.2387 -1.7478
   84MOL   H16840174   3.987   1.311   0.735  0.1281 -0.1933 -1.0224
   84MOL   H16940175   4.142   1.268   0.800 -0.5667  0.5612  2.1857
   84MOL   O17040176   3.935   1.097   0.610  0.1165  0.4371 -0.4800
   84MOL   C17140177   3.930   1.022   0.489  0.0092  0.2125 -0.9146
   84MOL   C17240178   3.901   0.880   0.530 -0.6626  0.3023  0.1220
   84MOL   C17340179   3.876   0.786   0.416  0.0655  0.3488  0.1635
   84MOL   C17440180   3.809   0.658   0.463  0.7781 -1.0403 -1.0922
   84MOL   O17540181   3.910   0.597   0.542 -0.2894  0.1723 -0.1257
   84MOL   C17640182   3.891   0.538   0.663  0.4175 -0.0392  0.4370
   84MOL   O17740183   3.784   0.539   0.731  0.4349  0.5164  0.3375
   84MOL   C17840184   4.021   0.465   0.720  0.0644 -0.5881  0.3023
   84MOL   C17940185   4.112   0.555   0.805 -1.3714  0.0146 -0.3255
   84MOL   C18040186   4.220   0.624   0.719 -0.2116 -0.3959  0.5463
   84MOL   O18140187   4.229   0.598   0.601  0.6347  0.1324  0.6421
   84MOL   H18240188   3.856   1.072   0.426 -0.0349 -1.4998 -2.2556
   84MOL   H18340189   4.024   1.023   0.433  1.4428 -3.0279  1.3016
   84MOL   H18440190   3.808   0.887   0.587 -1.1890 -2.7467 -0.2696
   84MOL   H18540191   3.973   0.845   0.604 -0.9408 -1.1138 -0.2667
   84MOL   H18640192   3.974   0.766   0.374  0.4244  0.9650  0.6919
   84MOL   H18740193   3.809   0.828   0.341 -2.4912 -0.3681  1.9748
   84MOL   H18840194   3.721   0.685   0.522  0.2816 -1.7377 -1.5101
   84MOL   H18940195   3.779   0.598   0.377  0.5450  0.4457 -2.0721
   84MOL   H19040196   4.075   0.434   0.631  3.2677  2.5133  1.0358
   84MOL   H19140197   3.979   0.391   0.788 -1.2744 -0.0127  0.1238
   84MOL   H19240198   4.060   0.622   0.874  2.3855  0.8617  1.8410
   84MOL   H19340199   4.176   0.491   0.865 -0.3778  0.6756 -0.6702
   84MOL   O19440200   4.314   0.697   0.794  0.0890 -0.2632 -0.5320
   84MOL   C19540201   4.365   0.813   0.737 -0.0143  0.3346  0.1672
   84MOL   C19640202   4.353   0.929   0.837 -0.0280 -0.7599 -0.1598
   84MOL   C19740203   4.419   0.895   0.973  0.1825  0.0342  0.1050
   84MOL   C19840204   4.416   1.009   1.072  0.4087 -1.3802 -0.6107
   84MOL   O19940205   4.508   1.109   1.035  0.0780  0.4832 -0.0684
   84MOL   C20040206   4.519   1.223   1.102  0.4859  0.6350 -0.6302
   84MOL   O20140207   4.464   1.256   1.210 -0.9712  0.0216  0.1370
   84MOL   C20240208   4.618   1.310   1.035 -0.7082 -0.6865  0.1323
   84MOL   C20340209   4.552   1.427   0.968 -0.1594  0.5386 -0.0645
   84MOL   C20440210   4.545   1.408   0.814  0.1960 -0.3265  0.0252
   84MOL   O20540211   4.625   1.473   0.749 -0.0684 -0.5319  0.0916
   84MOL   H20640212   4.467   0.793   0.704  0.3489  0.8027  0.9909
   84MOL   H20740213   4.302   0.826   0.649 -1.5347  2.8688  1.5499
   84MOL   H20840214   4.247   0.940   0.862 -0.1255  0.5271 -1.1125
   84MOL   H20940215   4.396   1.020   0.798 -0.4013 -0.1981  0.7162
   84MOL   H21040216   4.516   0.846   0.964 -0.3969 -1.2467  0.6746
   84MOL   H21140217   4.368   0.809   1.018  0.6101 -0.8996 -1.1842
   84MOL   H21240218   4.315   1.050   1.067  1.0885  0.6187  1.3691
   84MOL   H21340219   4.436   0.966   1.169  0.1099  0.2771  0.2148
   84MOL   H21440220   4.682   1.258   0.963  1.2608  0.2978  1.1195
   84MOL   H21540221   4.694   1.347   1.104  0.5399  1.6953 -2.4151
   84MOL   H21640222   4.461   1.462   1.018 -0.3107  1.0884 -0.7238
   84MOL   H21740223   4.620   1.510   0.988  1.4782 -0.7199 -0.2907
   84MOL   O21840224   4.442   1.319   0.769  0.9638  0.1466  0.5576
   84MOL   C21940225   4.427   1.306   0.624  0.1774 -0.7001  0.0022
   84MOL   C22040226   4.344   1.424   0.569 -0.1839  0.3288  0.0320
   84MOL   C22140227   4.315   1.416   0.418 -0.4573 -0.5663  0.0915
   84MOL   C22240228   4.219   1.302   0.375 -0.2804 -0.3752  0.0402
   84MOL   O22340229   4.224   1.289   0.235  0.3455 -0.0323 -0.1375
   84MOL   C22440230   4.150   1.196   0.171  0.5034  0.3177  0.3709
   84MOL   O22540231   4.058   1.130   0.217  0.5954  0.4755 -0.3318
   84MOL   C22640232   4.198   1.173   0.023 -0.6143 -0.8012  0.3838
   84MOL   C22740233   4.163   1.031   7.845  0.8492  0.2555  0.1309
   84MOL   C22840234   4.278   0.941   7.803  0.5797 -0.4782  0.3482
   84MOL   O22940235   4.299   0.835   7.861 -0.1692  0.1977 -0.2754
   84MOL   H23040236   4.528   1.316   0.583  0.2073 -1.6071 -0.1615
   84MOL   H23140237   4.383   1.210   0.597 -0.6195  0.0898 -1.5839
   84MOL   H23240238   4.398   1.517   0.583  1.9989 -0.9457  0.2433
   84MOL   H23340239   4.256   1.421   0.633 -0.7764 -0.5290 -0.8119
   84MOL   H23440240   4.409   1.399   0.365 -0.5166  3.2078 -1.3552
   84MOL   H23540241   4.277   1.513   0.385  0.6059  0.1341  0.9088
   84MOL   H23640242   4.260   1.216   0.428 -0.0274 -0.1407  0.2295
   84MOL   H23740243   4.124   1.341   0.414 -0.4172  0.5468 -1.1908
   84MOL   H23840244   4.306   1.184   0.012 -0.7824  1.2445  0.6077
   84MOL   H23940245   4.157   1.255   7.839  1.7567  1.0876  1.2877
   84MOL   H24040246   4.104   0.975   0.044 -0.1929 -0.6932 -1.3998
   84MOL   H24140247   4.097   1.039   7.759  1.2440  0.2816 -0.1671
   84MOL   O24240248   4.335   0.998   7.691  0.1092  0.7477  0.2048
   84MOL   C24340249   4.450   0.936   7.643  0.0313  0.2049  0.3134
   84MOL   C24440250   4.581   1.020   7.678  0.0598  0.1546  0.7413
   84MOL   C24540251   4.712   0.948   7.629  0.0468 -0.9123 -0.0521
   84MOL   C24640252   4.722   0.797   7.649  0.1409 -0.1851 -0.1437
   84MOL   O24740253   4.747   0.755   7.775  0.7363  0.1855 -0.2011
   84MOL   C24840254   4.849   0.684   7.811  0.4514 -0.1907  0.2874
   84MOL   O24940255   4.951   0.672   7.746 -0.3983 -1.0798 -0.2474
   84MOL   C25040256   4.827   0.622   0.080 -0.6717 -0.2425  0.1335
   84MOL   C25140257   4.880   0.478   0.091  0.3626 -0.1510  0.9639
   84MOL   C25240258   4.871   0.411   0.236  0.4327 -0.1583 -0.0822
   84MOL   O25340259   4.837   0.483   0.328 -0.0575 -0.1490 -0.1093
   84MOL   H25440260   4.460   0.836   7.685 -0.3178  1.0296  2.3916
   84MOL   H25540261   4.446   0.927   7.534 -2.8424  3.2767  0.1007
   84MOL   H25640262   4.596   1.029   7.786 -0.8283 -0.1516  0.8928
   84MOL   H25740263   4.575   1.123   7.642  1.7390 -0.1822 -0.5764
   84MOL   H25840264   4.803   0.989   7.672 -0.3787  1.5133 -1.3472
   84MOL   H25940265   4.729   0.972   7.524 -1.3576 -0.5286 -0.2106
   84MOL   H26040266   4.622   0.757   7.629  0.3571  0.2569 -2.3266
   84MOL   H26140267   4.772   0.745   7.567  0.6060  1.1413 -0.7111
   84MOL   H26240268   4.720   0.618   0.103 -0.1459 -3.2535  2.4577
   84MOL   H26340269   4.878   0.690   0.149  0.5347  0.2667 -1.2512
   84MOL   H26440270   4.826   0.421   0.015  2.1793  0.5830 -0.9150
   84MOL   H26540271   4.983   0.470   0.057  0.5311  1.0492  1.1823
   84MOL   O26640272   4.905   0.282   0.247 -0.3518 -0.5605  0.4928
   84MOL   C26740273   4.913   0.219   0.377  0.8790  0.1444  0.8186
   84MOL   C26840274   5.049   0.221   0.447 -0.2143  0.3987  0.6914
   84MOL   C26940275   5.170   0.142   0.392  0.0847 -0.4907  0.6209
   84MOL   C27040276   5.299   0.147   0.477 -0.3879 -0.3991 -0.3225
   84MOL   O27140277   5.407   0.086   0.411 -0.3920  0.0088  0.3466
   84MOL   C27240278   5.526   0.123   0.451  0.4630  0.1694 -0.3936
   84MOL   O27340279   5.548   0.209   0.537  0.6795 -0.1920  0.1551
   84MOL   C27440280   5.647   0.063   0.375  0.6109  0.0940  0.4158
   84MOL   C27540281   5.660   7.788   0.398  0.0404 -0.6261  0.3495
   84MOL   C27640282   5.809   7.743   0.413 -0.4021  0.4731  0.4025
   84MOL   O27740283   5.901   7.824   0.419  0.0646 -0.0330  0.3762
   84MOL   H27840284   4.844   0.267   0.447 -1.7065 -0.9096 -0.9379
   84MOL   H27940285   4.877   0.120   0.350  0.8221  0.1551  0.8548
   84MOL   H28040286   5.046   0.179   0.548 -2.4071  1.6267  1.1646
   84MOL   H28140287   5.078   0.325   0.460  1.2340 -0.0502  1.2047
   84MOL   H28240288   5.196   0.161   0.288  2.4000 -0.8238  1.1201
   84MOL   H28340289   5.137   0.038   0.384  1.4899 -0.9002 -0.0932
   84MOL   H28440290   5.314   0.253   0.496  1.9547 -0.7096 -0.4017
   84MOL   H28540291   5.273   0.104   0.574  1.9213  0.1535  0.5775
   84MOL   H28640292   5.744   0.110   0.391  0.7990 -0.8871  2.3999
   84MOL   H28740293   5.624   0.072   0.269 -1.6197 -2.0223  0.6661
   84MOL   H28840294   5.607   7.772   0.492  0.7859 -0.7600  0.7447
   84MOL   H28940295   5.611   7.724   0.325  0.1803  0.5581 -0.8149
   84MOL   O29040296   5.828   7.609   0.427  0.5024  0.1211 -0.1974
   84MOL   C29140297   5.951   7.541   0.432 -0.5615  0.1337  0.0224
   84MOL   C29240298   5.938   7.394   0.395 -0.3508  1.0342 -0.4267
   84MOL   C29340299   5.867   7.305   0.495 -0.5125 -0.4526 -0.2890
   84MOL   C29440300   5.857   7.159   0.455 -0.6547 -0.3203 -0.3806
   84MOL   O29540301   5.816   7.074   0.548 -0.1624 -0.3523 -0.5079
   84MOL   C29640302   5.685   7.058   0.581  0.1549  0.5360 -0.2877
   84MOL   O29740303   5.593   7.126   0.533  0.2091  0.5608 -0.1358
   84MOL   C29840304   5.646   6.947   0.676  0.4013  0.4104 -0.3868
   84MOL   C29940305   5.503   6.954   0.731 -0.3224 -0.1478 -0.2875
   84MOL   C30040306   5.492   7.032   0.858  0.6366  0.1483  0.2478
   84MOL   O30140307   5.458   6.978   0.966  0.5405 -0.3301 -0.0170
   84MOL   H30240308   6.009   7.593   0.356  0.1906 -0.1048  0.4276
   84MOL   H30340309   5.996   7.561   0.529  0.0589 -0.6906 -0.0946
   84MOL   H30440310   6.037   7.354   0.375 -1.1297 -0.2658 -1.8225
   84MOL   H30540311   5.878   7.380   0.305 -1.4262 -1.4785  0.5947
   84MOL   H30640312   5.764   7.340   0.499 -0.2978  0.4200 -1.8564
   84MOL   H30740313   5.913   7.303   0.594  0.0347  0.4404 -0.5202
   84MOL   H30840314   5.790   7.162   0.369 -0.8653  2.6501 -0.1414
   84MOL   H30940315   5.951   7.131   0.407 -1.3048 -0.3946 -1.6300
   84MOL   H31040316   5.717   6.935   0.758 -1.1541 -1.8056  0.6700
   84MOL   H31140317   5.654   6.856   0.617  1.6765  0.8669 -0.9472
   84MOL   H31240318   5.426   6.980   0.658  1.2958 -0.4760 -2.1647
   84MOL   H31340319   5.474   6.852   0.753  1.8302 -0.4031  1.5157
   84MOL   O31440320   5.508   7.166   0.831  0.1183  0.2464 -0.2511
   84MOL   C31540321   5.467   7.259   0.931 -0.0217 -0.6270 -0.5240
   84MOL   C31640322   5.588   7.303   1.008  0.3079  0.4349  0.4624
   84MOL   C31740323   5.689   7.375   0.923 -0.6673  0.2449 -0.3798
   84MOL   C31840324   5.813   7.419   1.005  0.1011  0.4057 -0.3097
   84MOL   O31940325   5.907   7.485   0.928  0.2713 -0.1164  0.0853
   84MOL   C32040326   6.029   7.525   0.981  0.4202  0.2810  0.2408
   84MOL   O32140327   6.062   7.526   1.099  0.3705 -0.3126  0.1913
   84MOL   C32240328   6.125   7.577   0.874  0.2976  0.3183  0.4043
   84MOL   C32340329   6.246   7.645   0.935 -0.0240  0.3009  0.9362
   84MOL   C32440330   6.361   7.541   0.955 -0.3483 -0.0225 -0.0329
   84MOL   O32540331   6.427   7.506   0.856 -0.1069  0.1037  0.0274
   84MOL   H32640332   5.440   7.347   0.871  0.1756 -0.3019 -0.1352
   84MOL   H32740333   5.377   7.230   0.985 -0.6103  0.5175 -0.8707
   84MOL   H32840334   5.630   7.229   1.076 -0.1765 -0.1327  0.1465
   84MOL   H32940335   5.553   7.376   1.080 -1.2419 -0.6571  0.8339
   84MOL   H33040336   5.633   7.453   0.873 -0.6122  0.9781  0.7045
   84MOL   H33140337   5.727   7.313   0.842 -0.1975 -0.8388  0.6494
   84MOL   H33240338   5.794   7.493   1.082 -1.0962  1.8772 -1.9697
   84MOL   H33340339   5.857   7.329   1.049 -0.2205 -0.0275 -0.8650
   84MOL   H33440340   6.069   7.652   0.818 -3.0171 -1.8932  0.6286
   84MOL   H33540341   6.151   7.504   0.797 -1.7041 -1.6207  1.5240
   84MOL   H33640342   6.289   7.721   0.871 -0.4783  1.1567  1.6462
   84MOL   H33740343   6.225   7.717   1.014 -0.3378  2.2229 -0.8747
   84MOL   O33840344   6.374   7.502   1.085 -0.0044  0.2501  0.5133
   84MOL   C33940345   6.479   7.409   1.121 -0.6476 -0.7216  0.0795
   84MOL   C34040346   6.450   7.370   1.270 -0.6139 -0.8112  0.4595
   84MOL   C34140347   6.312   7.308   1.291 -0.2089  0.5396 -0.0507
   84MOL   C34240348   6.287   7.274   1.437  0.0228  0.1969  0.3684
   84MOL   O34340349   6.378   7.183   1.502  0.2052  0.0539 -0.1711
   84MOL   C34440350   6.457   7.229   1.604  0.8848  0.2852 -0.3328
   84MOL   O34540351   6.448   7.337   1.664  0.2526 -0.1336 -0.2506
   84MOL   C34640352   6.577   7.132   1.634  0.0503 -0.5839 -0.1889
   84MOL   C34740353   6.698   7.146   1.534 -0.6517  0.2603  0.3916
   84MOL   C34840354   6.751   7.014   1.475 -0.4208 -0.1123  0.4739
   84MOL   O34940355   6.777   7.002   1.351  0.1301  0.0714 -0.0963
   84MOL   H35040356   6.485   7.325   1.052 -0.3532 -0.7424  0.1287
   84MOL   H35140357   6.574   7.460   1.105 -1.1222  0.3177  0.4913
   84MOL   H35240358   6.463   7.456   1.336  0.6762 -0.2630 -0.4884
   84MOL   H35340359   6.535   7.308   1.299 -0.4036 -1.5088 -1.5961
   84MOL   H35440360   6.313   7.210   1.242 -0.6507 -0.2759  1.5676
   84MOL   H35540361   6.237   7.364   1.235  2.1852  2.6454 -1.2530
   84MOL   H35640362   6.277   7.371   1.486  0.4213 -0.5196  1.8966
   84MOL   H35740363   6.188   7.230   1.452  0.5389 -0.6734  1.2556
   84MOL   H35840364   6.543   7.029   1.621  0.4247 -0.4810 -2.2885
   84MOL   H35940365   6.599   7.143   1.740 -0.8757  3.2226 -0.3189
   84MOL   H36040366   6.662   7.200   1.447  3.1473  0.8421 -0.9021
   84MOL   H36140367   6.779   7.201   1.581 -1.4344  1.2465  0.5983
   84MOL   O36240368   6.767   6.931   1.572  0.2499 -0.5445  0.1024
   84MOL   C36340369   6.839   6.809   1.542 -0.3991  0.3012  0.1185
   84MOL   C36440370   6.866   6.731   1.674  0.0507 -0.1518  0.4442
   84MOL   C36540371   6.738   6.658   1.723  0.4492  0.1567  0.1442
   84MOL   C36640372   6.759   6.554   1.841 -0.0451  0.7628  0.0378
   84MOL   O36740373   6.672   6.442   1.820 -0.3499 -0.5561  0.4500
   84MOL   C36840374   6.593   6.397   1.918 -0.4596 -0.2343 -0.0604
   84MOL   O36940375   6.603   6.428   2.040 -0.3453 -0.4377 -0.2556
   84MOL   C37040376   6.489   6.302   1.863 -0.7686 -0.1190  0.2103
   84MOL   C37140377   6.353   6.373   1.864 -0.1136 -0.1370 -0.2634
   84MOL   C37240378   6.273   6.323   1.750  1.5506 -0.9376  0.1793
   84MOL   O37340379   6.256   6.382   1.645  0.1101 -0.5614 -0.0408
   84MOL   H37440380   6.771   6.756   1.476  0.3325 -1.0643  0.4515
   84MOL   H37540381   6.935   6.812   1.491 -1.0468  1.3316 -1.0673
   84MOL   H37640382   6.909   6.797   1.750 -1.3094  2.2991 -0.8297
   84MOL   H37740383   6.950   6.667   1.649 -0.8538 -0.6639 -1.3491
   84MOL   H37840384   6.694   6.608   1.637 -0.5545  0.0070  0.7426
   84MOL   H37940385   6.662   6.727   1.761  0.9956  0.2665  1.0708
   84MOL   H38040386   6.857   6.507   1.846 -0.5242 -0.1027  1.7705
   84MOL   H38140387   6.732   6.610   1.930 -1.4991 -0.4114  0.3617
   84MOL   H38240388   6.491   6.206   1.914  0.3087  0.4694  1.2924
   84MOL   H38340389   6.500   6.282   1.757 -2.1123 -1.9542  0.3998
   84MOL   H38440390   6.295   6.358   1.955 -0.2234 -0.8044 -0.4476
   84MOL   H38540391   6.350   6.478   1.833 -1.7643 -0.4994 -1.4158
   84MOL   O38640392   6.222   6.203   1.775  0.4575 -0.0845 -0.7712
   84MOL   C38740393   6.173   6.115   1.672  0.3573  0.4596 -0.3656
   84MOL   C38840394   6.274   6.008   1.647  0.0999  0.1550  0.2492
   84MOL   C38940395   6.252   5.917   1.516  0.1282  0.5193  0.3014
   84MOL   C39040396   6.347   5.801   1.486 -0.1764  0.1814  0.3996
   84MOL   O39140397   6.487   5.849   1.473  0.3182  0.4141  0.5494
   84MOL   C39240398   6.577   5.828   1.573  0.0619  0.7667 -0.0415
   84MOL   O39340399   6.541   5.794   1.683 -0.2019  0.1367 -0.8999
   84MOL   C39440400   6.726   5.858   1.546 -0.4140  0.0321 -0.3900
   84MOL   C39540401   6.756   5.945   1.424  0.0764 -0.1592  0.3352
   84MOL   C39640402   6.696   6.083   1.445  0.1947  0.1044  0.0167
   84MOL   O39740403   6.681   6.130   1.555  0.1964 -0.2877 -0.6216
   84MOL   H39840404   6.075   6.078   1.699  0.5438 -0.9300 -1.5051
   84MOL   H39940405   6.156   6.165   1.577 -0.4755 -0.0017 -0.4660
   84MOL   H40040406   6.273   5.945   1.736 -0.4292 -0.9310 -0.5156
   84MOL   H40140407   6.370   6.059   1.638  0.8814 -1.2744  0.1924
   84MOL   H40240408   6.260   5.986   1.432 -0.8247 -0.4879 -0.6219
   84MOL   H40340409   6.150   5.879   1.505 -0.4466  2.2589 -0.6181
   84MOL   H40440410   6.334   5.729   1.567 -0.9054 -0.2395 -0.0961
   84MOL   H40540411   6.331   5.755   1.389 -0.1072  1.1289 -0.0702
   84MOL   H40640412   6.763   5.756   1.539  0.5815  0.4983 -2.2540
   84MOL   H40740413   6.777   5.896   1.634  0.4960 -1.8989 -0.0678
   84MOL   H40840414   6.861   5.956   1.396  0.2773 -0.7655  0.8414
   84MOL   H40940415   6.700   5.903   1.341 -2.5244 -0.4702  2.1842
   84MOL   O41040416   6.650   6.122   1.326 -0.2820  0.1949 -0.0721
   84MOL   C41140417   6.540   6.209   1.336 -0.2796 -0.0263  0.5739
   84MOL   C41240418   6.610   6.349   1.324 -0.7084 -0.1434  0.7271
   84MOL   C41340419   6.515   6.460   1.361  0.7559 -0.6338  0.4671
   84MOL   C41440420   6.571   6.598   1.317  0.3976  0.7403  0.2976
   84MOL   O41540421   6.465   6.689   1.332 -0.1592 -0.2378 -0.5187
   84MOL   C41640422   6.434   6.725   1.458 -0.6259 -0.5876  0.5110
   84MOL   O41740423   6.485   6.712   1.571 -0.4701  0.2171  0.7348
   84MOL   C41840424   6.299   6.787   1.456 -0.8357 -0.3074  0.2420
   84MOL   C41940425   6.200   6.684   1.489 -0.0799  0.2027 -0.5394
   84MOL   C42040426   6.067   6.708   1.422  0.1145  0.1334 -0.2613
   84MOL   O42140427   6.030   6.635   1.330 -0.3573  0.1188 -0.2097
   84MOL   H42240428   6.461   6.188   1.264 -0.3107 -2.8950  1.4098
   84MOL   H42340429   6.483   6.201   1.429  0.9823  0.8716  1.4388
   84MOL   H42440430   6.645   6.364   1.222 -0.2323  0.9154  1.0444
   84MOL   H42540431   6.693   6.360   1.394 -0.2348  1.0382 -0.0059
   84MOL   H42640432   6.490   6.456   1.467 -1.8518 -0.9861 -0.1454
   84MOL   H42740433   6.421   6.449   1.308 -0.0518  2.2519  1.1818
   84MOL   H42840434   6.646   6.635   1.387  2.0975 -0.8607 -0.6404
   84MOL   H42940435   6.610   6.593   1.216 -1.5165 -0.8467 -0.3905
   84MOL   H43040436   6.289   6.832   1.357  0.9219 -1.4682 -0.4862
   84MOL   H43140437   6.293   6.862   1.534  0.6985  0.5062 -0.4056
   84MOL   H43240438   6.229   6.582   1.467 -1.3362  0.1402 -1.9783
   84MOL   H43340439   6.188   6.681   1.597  0.3170 -0.2570 -0.5061
   84MOL   O43440440   6.008   6.809   1.477 -0.4610 -0.0423 -0.2401
   84MOL   C43540441   5.875   6.840   1.436 -0.4352 -0.1184 -0.1763
   84MOL   C43640442   5.876   6.941   1.317 -1.1716  0.1623 -0.1196
   84MOL   C43740443   5.951   7.073   1.350 -0.8009 -0.1808  0.2715
   84MOL   C43840444   5.925   7.177   1.243 -0.3425  0.0883 -0.7588
   84MOL   O43940445   5.986   7.131   1.119  0.2562  0.3181  0.9163
   84MOL   C44040446   5.924   7.070   1.023  0.9534 -0.0423  0.3549
   84MOL   O44140447   5.802   7.047   1.025 -0.1815  1.1699 -0.2016
   84MOL   C44240448   6.006   7.033   0.902 -0.5147  0.0587  0.4919
   84MOL   C44340449   6.068   7.163   0.844 -0.3427  0.6383  0.3528
   84MOL   C44440450   6.179   7.132   0.741  0.5808  0.6504 -0.4207
   84MOL   O44540451   6.279   7.203   0.728  0.0224  0.0177 -0.3359
   84MOL   H44640452   5.809   6.753   1.430  0.4890 -0.6570 -2.8439
   84MOL   H44740453   5.843   6.898   1.523 -0.4388  0.5418 -0.6185
   84MOL   H44840454   5.771   6.958   1.294 -1.1955 -1.7582 -1.5240
   84MOL   H44940455   5.925   6.893   1.232 -1.7328 -2.1700  0.8439
   84MOL   H45040456   6.055   7.042   1.359 -0.6254 -0.5931 -2.4806
   84MOL   H45140457   5.918   7.114   1.445 -0.5776  0.5304  0.0459
   84MOL   H45240458   5.818   7.192   1.231 -0.8412 -0.8686  2.1593
   84MOL   H45340459   5.979   7.269   1.266  0.1788 -0.3731 -0.1419
   84MOL   H45440460   5.938   6.976   0.838 -0.1184 -1.1219  1.1160
   84MOL   H45540461   6.091   6.970   0.927  0.7420  0.8021 -1.7396
   84MOL   H45640462   5.992   7.225   0.797  1.8210  2.7390 -0.4646
   84MOL   H45740463   6.104   7.233   0.919 -1.1879  0.4336  0.9611
   84MOL   O45840464   6.156   7.011   0.672 -0.1426  0.0095  0.4159
   84MOL   C45940465   6.242   6.989   0.566  0.0392 -0.4555  0.1683
   84MOL   C46040466   6.225   6.846   0.518 -0.0195 -0.2856  0.7046
   84MOL   C46140467   6.084   6.833   0.455  0.9499 -0.2405 -0.1602
   84MOL   C46240468   6.040   6.698   0.405 -0.0936 -0.7898  0.5626
   84MOL   O46340469   6.144   6.629   0.338 -0.2782 -1.1304  0.0362
   84MOL   C46440470   6.114   6.510   0.284  0.1708 -0.4029 -0.2308
   84MOL   O46540471   5.999   6.457   0.291 -0.5680 -0.6071  0.7293
   84MOL   C46640472   6.231   6.457   0.217 -0.6851 -0.0416 -0.8787
   84MOL   C46740473   6.284   6.343   0.295 -0.5827 -0.0893  0.6211
   84MOL   C46840474   6.351   6.247   0.197  0.2062  0.3624 -0.1544
   84MOL   O46940475   6.439   6.288   0.116 -0.6158  0.2566 -0.4245
   84MOL   H47040476   6.209   7.054   0.486 -1.3546 -2.4057 -0.8674
   84MOL   H47140477   6.347   7.002   0.594  0.2960 -1.4074 -0.3427
   84MOL   H47240478   6.247   6.772   0.595 -0.4339 -0.9567  0.1837
   84MOL   H47340479   6.302   6.822   0.444  0.9392  0.5123  1.4381
   84MOL   H47440480   6.092   6.901   0.370 -1.1098 -1.7810 -1.6390
   84MOL   H47540481   6.008   6.875   0.520  3.1620  1.1038  1.6299
   84MOL   H47640482   6.015   6.641   0.494 -2.0480 -2.3367 -0.9183
   84MOL   H47740483   5.955   6.716   0.339 -0.8991  0.0156  1.7874
   84MOL   H47840484   6.296   6.545   0.211 -2.2140  1.0203 -2.3844
   84MOL   H47940485   6.218   6.432   0.112  0.4101 -1.6300 -0.6453
   84MOL   H48040486   6.358   6.386   0.363 -0.2075  1.3192 -0.6454
   84MOL   H48140487   6.221   6.282   0.359 -1.6321 -2.3120 -2.4220
   84MOL   H48240488   6.308   6.147   0.195 -0.1278  0.5062 -0.2403
   85MOL     O140489   7.704   6.434   2.581 -0.0223  0.3247  0.8242
   85MOL     C240490   7.766   6.351   2.683 -0.3027  0.4053 -0.4658
   85MOL     C340491   0.008   6.409   2.752 -0.0619  0.2999 -0.5767
   85MOL     C440492   0.052   6.318   2.872  0.1059  0.0319 -0.3223
   85MOL     C540493   0.172   6.362   2.952  0.3952  0.1159 -0.2265
   85MOL     O640494   0.167   6.489   2.997  0.5218  0.1786  0.3449
   85MOL     C740495   0.289   6.543   3.031  0.9871 -0.8628  0.1602
   85MOL     O840496   0.396   6.487   3.023 -0.0312 -0.5186 -0.0491
   85MOL     C940497   0.273   6.680   3.090  0.5595  0.3988 -0.6233
   85MOL    C1040498   0.344   6.688   3.226  0.5085  0.8115 -0.3752
   85MOL    C1140499   0.490   6.728   3.201  0.2234 -0.5300 -0.6011
   85MOL    O1240500   0.518   6.835   3.157 -0.3110 -0.0572 -0.0675
   85MOL    H1340501   7.685   6.331   2.753  0.2553  2.3362  0.7628
   85MOL    H1440502   7.790   6.252   2.642  0.2824  0.0492  0.7197
   85MOL    H1540503   7.859   6.512   2.780 -1.8997 -0.4817  0.8821
   85MOL    H1640504   0.100   6.420   2.696  1.1089 -0.3050  1.1876
   85MOL    H1740505   0.083   6.219   2.837 -0.5904 -0.5966  0.7790
   85MOL    H1840506   7.840   6.305   2.937  1.2546 -2.1256  0.8598
   85MOL    H1940507   0.184   6.287   3.031 -0.2496  1.7363  1.4437
   85MOL    H2040508   0.261   6.346   2.891  0.7145  0.5735  0.1186
   85MOL    H2140509   0.167   6.702   3.099  0.6192  0.7132 -0.6947
   85MOL    H2240510   0.310   6.749   3.015  0.4542  0.1794 -0.8778
   85MOL    H2340511   0.295   6.769   3.281 -0.5177  0.8444 -1.3090
   85MOL    H2440512   0.335   6.596   3.283 -1.7690  1.2719  0.0644
   85MOL    H2540513   7.637   6.385   2.536  1.0587 -0.1293 -0.3031
   85MOL    O2640514   0.574   6.628   3.209  0.0725  0.1267 -0.4082
   85MOL    C2740515   0.708   6.639   3.165 -0.2950 -0.6098 -0.4422
   85MOL    C2840516   0.744   6.502   3.110 -0.0313  0.6304 -0.1337
   85MOL    C2940517   0.874   6.489   3.034 -0.9756  0.3946 -0.0904
   85MOL    C3040518   0.907   6.351   2.971  0.0587  0.4187 -0.2499
   85MOL    O3140519   0.834   6.344   2.851  0.4771 -0.5617 -0.1527
   85MOL    C3240520   0.723   6.262   2.833  0.1332 -0.3854 -0.9710
   85MOL    O3340521   0.685   6.172   2.908  0.0736  0.1767 -0.2067
   85MOL    C3440522   0.652   6.285   2.698  0.1732 -0.5065  0.2694
   85MOL    C3540523   0.513   6.340   2.719 -0.5367 -0.3230 -0.5020
   85MOL    C3640524   0.489   6.480   2.676 -0.4426  0.4595  0.8312
   85MOL    O3740525   0.464   6.505   2.559 -0.0037  0.3429 -0.0451
   85MOL    H3840526   0.737   6.713   3.091 -1.9654  2.3368  1.7262
   85MOL    H3940527   0.758   6.664   3.258 -2.4774 -1.1479  0.9134
   85MOL    H4040528   0.673   6.469   3.034 -0.3221  0.7339  0.0957
   85MOL    H4140529   0.734   6.427   3.189  4.4712 -0.7223 -0.7220
   85MOL    H4240530   0.954   6.506   3.107  0.0035 -0.0734 -1.0391
   85MOL    H4340531   0.899   6.564   2.959  1.7929 -0.1086  0.2506
   85MOL    H4440532   1.009   6.336   2.935 -0.8934 -2.3900 -1.9743
   85MOL    H4540533   0.881   6.266   3.034  0.3117  0.8534  0.4441
   85MOL    H4640534   0.655   6.188   2.649  1.5654  0.9847 -2.7038
   85MOL    H4740535   0.707   6.354   2.634 -2.2341  0.2756 -1.0168
   85MOL    H4840536   0.441   6.277   2.666 -0.9120  1.7017 -2.4751
   85MOL    H4940537   0.482   6.324   2.822 -1.5664 -0.3014 -0.7995
   85MOL    O5040538   0.507   6.569   2.777 -0.1319  0.4040 -0.1599
   85MOL    C5140539   0.479   6.704   2.748  0.3307 -0.6170 -0.2782
   85MOL    C5240540   0.594   6.789   2.713  0.0218  0.2286  0.7033
   85MOL    C5340541   0.708   6.768   2.818 -0.9418 -1.1088 -0.2486
   85MOL    C5440542   0.834   6.837   2.763 -0.1295  0.0687 -0.3040
   85MOL    O5540543   0.879   6.758   2.647  0.5028 -0.4062  0.2945
   85MOL    C5640544   0.978   6.676   2.658  0.0129 -0.2830  0.4610
   85MOL    O5740545   1.043   6.655   2.761 -0.1409 -0.2969  0.4970
   85MOL    C5840546   1.020   6.615   2.526  0.7921  0.7423  0.5324
   85MOL    C5940547   1.175   6.622   2.501  0.0419 -0.2657  0.2426
   85MOL    C6040548   1.231   6.500   2.431  0.0743 -0.4055 -0.5022
   85MOL    O6140549   1.331   6.449   2.473  0.3714 -0.6752  0.5120
   85MOL    H6240550   0.411   6.706   2.663  0.7517  0.9802 -0.5991
   85MOL    H6340551   0.427   6.749   2.832  1.9888  0.7807  0.0490
   85MOL    H6440552   0.558   6.891   2.701  2.7448  1.3264  1.4026
   85MOL    H6540553   0.624   6.755   2.614 -0.5683  0.0386  0.5935
   85MOL    H6640554   0.732   6.664   2.839 -0.5914 -0.9738  0.0302
   85MOL    H6740555   0.675   6.810   2.913  0.3617 -1.0387  0.1802
   85MOL    H6840556   0.809   6.938   2.729 -0.1849  0.4287  0.7681
   85MOL    H6940557   0.912   6.840   2.840 -2.0533 -1.9837  1.7928
   85MOL    H7040558   0.960   6.656   2.445  0.1293  1.0563  1.1698
   85MOL    H7140559   0.991   6.511   2.542 -1.5831  1.4544  1.0552
   85MOL    H7240560   1.200   6.707   2.437  1.6853 -0.8048  0.1609
   85MOL    H7340561   1.233   6.647   2.590  0.0580 -0.1357  0.1966
   85MOL    O7440562   1.158   6.459   2.331 -0.4662 -0.3467 -0.0612
   85MOL    C7540563   1.182   6.347   2.254 -0.4144 -0.5562  0.2895
   85MOL    C7640564   1.054   6.308   2.193 -0.0572  0.6583  0.5699
   85MOL    C7740565   1.080   6.221   2.077 -0.6157  0.1397 -0.0812
   85MOL    C7840566   0.957   6.158   2.009  0.1960 -0.3079  0.3281
   85MOL    O7940567   0.996   6.070   1.898  0.6261  0.3339 -0.7330
   85MOL    C8040568   0.915   6.055   1.797 -0.4139 -0.3651  0.2265
   85MOL    O8140569   0.800   6.095   1.788  0.2411  0.0741 -0.9686
   85MOL    C8240570   0.991   5.987   1.679 -1.0263 -0.2044  0.3431
   85MOL    C8340571   0.886   5.902   1.595  0.2734  0.7731  0.5742
   85MOL    C8440572   0.864   5.980   1.463  0.0353  0.3768  0.8619
   85MOL    O8540573   0.918   6.090   1.434 -0.0572  0.3071 -0.0032
   85MOL    H8640574   1.253   6.360   2.173 -1.2778 -1.5701 -0.6524
   85MOL    H8740575   1.233   6.271   2.314  0.7265 -0.9533 -1.1754
   85MOL    H8840576   1.002   6.399   2.162  0.5293  0.3814 -1.2964
   85MOL    H8940577   0.999   6.261   2.274  0.3271  0.2165  0.5776
   85MOL    H9040578   1.154   6.149   2.112  0.6665  0.7069 -1.5741
   85MOL    H9140579   1.131   6.274   1.997 -0.4178 -2.5819 -1.8408
   85MOL    H9240580   0.906   6.097   2.083  1.5101  0.7290  2.1073
   85MOL    H9340581   0.883   6.233   1.980  2.0436  1.1713 -0.6142
   85MOL    H9440582   1.066   5.926   1.729 -0.7002 -2.7195 -3.0251
   85MOL    H9540583   1.051   6.062   1.627 -1.7858  1.9487  2.5121
   85MOL    H9640584   0.924   5.803   1.569 -1.3014  0.4353 -0.5119
   85MOL    H9740585   0.792   5.888   1.648  1.2337  0.5123  2.2566
   85MOL    O9840586   0.796   5.915   1.372  0.2684 -0.1094  0.2229
   85MOL    C9940587   0.791   5.964   1.237 -0.5202 -0.7450 -0.3161
   85MOL   C10040588   0.798   5.845   1.138 -0.3697  0.1653 -0.4178
   85MOL   C10140589   0.675   5.741   1.151  0.2418 -0.0363 -0.4074
   85MOL   C10240590   0.699   5.630   1.252 -0.4922 -0.2599 -0.1393
   85MOL   O10340591   0.572   5.563   1.258 -0.5702  0.0829 -0.3325
   85MOL   C10440592   0.558   5.433   1.222  0.5032  0.4989 -0.5590
   85MOL   O10540593   0.654   5.359   1.206 -0.2371 -0.1953  0.3923
   85MOL   C10640594   0.416   5.387   1.206 -0.0573  0.1845  0.2637
   85MOL   C10740595   0.356   5.420   1.339 -0.3718  0.4755 -0.0690
   85MOL   C10840596   0.317   5.288   1.409  0.2604 -0.4996 -0.0905
   85MOL   O10940597   0.362   5.272   1.522  0.1958 -0.4089 -0.2040
   85MOL   H11040598   0.697   6.018   1.224  0.1202  0.5558  0.3867
   85MOL   H11140599   0.870   6.033   1.208  0.4577 -1.1762  1.2739
   85MOL   H11240600   0.894   5.796   1.143  0.0174  0.8837 -0.7415
   85MOL   H11340601   0.794   5.881   1.035 -3.5526  1.6975  0.1692
   85MOL   H11440602   0.671   5.685   1.057 -2.7114  0.8966 -0.8720
   85MOL   H11540603   0.585   5.802   1.156  0.2392  0.1760 -2.4606
   85MOL   H11640604   0.779   5.561   1.228  0.5092  0.5319  0.8557
   85MOL   H11740605   0.718   5.677   1.349 -1.4081  0.5265 -0.3352
   85MOL   H11840606   0.415   5.280   1.182  0.3168  0.8761 -2.9510
   85MOL   H11940607   0.368   5.446   1.128 -1.5751 -1.0750  0.2164
   85MOL   H12040608   0.417   5.481   1.405 -0.6238 -1.9096  2.4408
   85MOL   H12140609   0.264   5.478   1.331 -2.5763 -2.6365  1.6408
   85MOL   O12240610   0.226   5.217   1.343  0.2067  0.2834  0.3792
   85MOL   C12340611   0.167   5.103   1.409 -0.4520  0.6683  0.0463
   85MOL   C12440612   0.049   5.141   1.497 -0.3938  0.0808  0.1164
   85MOL   C12540613   7.812   5.185   1.402  0.2076  0.4582 -0.3048
   85MOL   C12640614   7.674   5.191   1.471  0.3971  0.3264  0.6049
   85MOL   O12740615   7.674   5.297   1.566  0.2804  0.3166 -0.4643
   85MOL   C12840616   7.565   5.309   1.642  0.0829  0.0713  0.0970
   85MOL   O12940617   7.472   5.228   1.661 -0.1930 -0.0435  0.4110
   85MOL   C13040618   7.560   5.442   1.715 -0.3163 -0.3522 -0.6204
   85MOL   C13140619   7.440   5.473   1.802  0.6011 -0.5310  0.2667
   85MOL   C13240620   7.481   5.472   1.951 -0.1145 -0.4346 -0.1320
   85MOL   O13340621   7.467   5.569   2.023  0.1763 -0.0779  0.2761
   85MOL   H13440622   0.127   5.029   1.341  2.4338 -2.3722  1.4838
   85MOL   H13540623   0.240   5.049   1.470 -0.8543  1.7043  1.4847
   85MOL   H13640624   0.064   5.194   1.592  0.6475 -0.1632  0.0901
   85MOL   H13740625   0.005   5.047   1.530 -3.1665  0.8613 -1.1591
   85MOL   H13840626   7.813   5.127   1.310  0.7370 -0.0628  0.0316
   85MOL   H13940627   7.838   5.287   1.371  1.8387  0.0737 -0.2500
   85MOL   H14040628   7.594   5.204   1.398 -0.2797 -1.9956  0.8895
   85MOL   H14140629   7.649   5.094   1.513  2.2160 -0.5933 -0.3577
   85MOL   H14240630   7.570   5.525   1.645 -0.9290 -0.3212 -0.6762
   85MOL   H14340631   7.654   5.459   1.766  0.0929 -2.0225 -0.7952
   85MOL   H14440632   7.389   5.567   1.784  0.1299 -1.2078 -2.0901
   85MOL   H14540633   7.365   5.396   1.784 -1.7761  2.1133 -1.4025
   85MOL   O14640634   7.524   5.351   1.993 -0.4479 -0.2482  0.2074
   85MOL   C14740635   7.555   5.321   2.132  0.1855 -0.0641 -0.2524
   85MOL   C14840636   7.641   5.198   2.155  0.3982  0.3597 -0.1120
   85MOL   C14940637   7.792   5.220   2.147 -0.6875  0.5790  0.5977
   85MOL   C15040638   7.871   5.098   2.183  0.1571  0.5782 -0.1500
   85MOL   O15140639   7.856   5.047   2.317  0.4943 -0.1533  0.1428
   85MOL   C15240640   0.071   5.080   2.416 -0.3788  0.2116  0.5682
   85MOL   O15340641   0.171   5.148   2.406  0.2534  0.3279 -0.2996
   85MOL   C15440642   0.024   5.024   2.545  0.0610  0.1334 -0.1474
   85MOL   C15540643   0.120   5.031   2.667 -0.1267 -0.3651 -0.0923
   85MOL   C15640644   0.168   4.895   2.721 -0.1218 -0.6749 -0.9844
   85MOL   O15740645   0.114   4.790   2.686 -0.3091 -0.3387  0.0957
   85MOL   H15840646   7.593   5.411   2.181 -1.8137 -0.6180  2.4428
   85MOL   H15940647   7.454   5.303   2.169  0.4421 -2.3612 -0.5987
   85MOL   H16040648   7.619   5.107   2.098  1.0394  0.2816 -0.2419
   85MOL   H16140649   7.625   5.176   2.260 -1.9301 -2.7022 -1.0244
   85MOL   H16240650   7.831   5.307   2.201  0.8141  0.3940 -0.1559
   85MOL   H16340651   7.817   5.242   2.043 -0.3005 -1.6356  0.2029
   85MOL   H16440652   7.828   5.012   2.131  1.3551  0.3903 -0.8262
   85MOL   H16540653   0.096   5.109   2.143 -0.1681 -0.5389 -1.2953
   85MOL   H16640654   7.854   4.924   2.545 -1.0927  0.5870  2.8823
   85MOL   H16740655   7.805   5.071   2.574  0.4217  0.9411 -0.2923
   85MOL   H16840656   0.194   5.108   2.648 -2.0747  1.6768  0.3111
   85MOL   H16940657   0.055   5.064   2.748 -1.5535  1.0880 -1.7824
   85MOL   O17040658   0.266   4.908   2.818 -0.5692 -0.1345  0.1272
   85MOL   C17140659   0.324   4.790   2.867  0.5197  0.4279  0.4979
   85MOL   C17240660   0.463   4.803   2.923 -0.3316  0.7465  0.1250
   85MOL   C17340661   0.521   4.672   2.981  0.3926  0.2780  0.1356
   85MOL   C17440662   0.673   4.648   2.965  0.8339 -0.2994 -0.1191
   85MOL   O17540663   0.716   4.613   2.837 -0.4192  0.3864  0.4087
   85MOL   C17640664   0.780   4.704   2.766  0.2436  0.1022  0.5772
   85MOL   O17740665   0.804   4.814   2.812  0.5248 -0.1460 -0.7923
   85MOL   C17840666   0.828   4.668   2.628  0.2478 -0.1740  0.4923
   85MOL   C17940667   0.929   4.762   2.571 -0.4331  0.0137  0.4908
   85MOL   C18040668   0.865   4.839   2.452  0.2623 -0.1308 -0.2437
   85MOL   O18140669   0.873   4.963   2.444  0.5838  0.1678 -0.6070
   85MOL   H18240670   0.261   4.748   2.945  2.4236 -2.5698  0.4888
   85MOL   H18340671   0.326   4.727   2.778  1.5445 -1.3574  1.7524
   85MOL   H18440672   0.463   4.880   3.000 -2.3971 -1.5067  2.4662
   85MOL   H18540673   0.528   4.838   2.842 -3.3516  1.0455 -2.2717
   85MOL   H18640674   0.460   4.588   2.946 -0.4405  0.6802  0.6289
   85MOL   H18740675   0.500   4.670   3.088 -0.6770  0.8639 -0.0573
   85MOL   H18840676   0.733   4.726   3.012  1.0124 -0.3051 -0.3376
   85MOL   H18940677   0.696   4.557   3.022  0.2716  0.2841  1.0660
   85MOL   H19040678   0.734   4.660   2.574 -0.1721  0.8080  1.0561
   85MOL   H19140679   0.882   4.574   2.636  0.4133 -0.0337  1.1022
   85MOL   H19240680   0.980   4.828   2.641  0.3820  0.1802 -0.2608
   85MOL   H19340681   1.015   4.708   2.531 -1.3392  0.8114 -2.7047
   85MOL   O19440682   0.832   4.751   2.351  0.0473  0.1366 -0.2794
   85MOL   C19540683   0.782   4.806   2.228  0.4504 -0.1985 -0.6263
   85MOL   C19640684   0.773   4.682   2.136 -0.2404 -0.3376  0.3302
   85MOL   C19740685   0.675   4.567   2.147 -0.3087  0.4563  0.2591
   85MOL   C19840686   0.534   4.602   2.104  0.0187  0.0346  0.5362
   85MOL   O19940687   0.448   4.493   2.102  0.3254  0.4882  0.0877
   85MOL   C20040688   0.364   4.461   1.996 -0.2974 -0.0155  0.4376
   85MOL   O20140689   0.379   4.495   1.876 -0.0086 -0.4093  0.7141
   85MOL   C20240690   0.246   4.385   2.045  0.7769 -0.4846  0.0377
   85MOL   C20340691   0.160   4.334   1.931  0.2242 -0.3775 -0.4708
   85MOL   C20440692   0.015   4.386   1.945  0.3429  0.0120  0.3049
   85MOL   O20540693   7.861   4.492   1.888 -0.0028 -0.2010 -0.1120
   85MOL   H20640694   0.681   4.845   2.232  1.2733  2.4154 -3.6205
   85MOL   H20740695   0.858   4.875   2.190  1.3179  0.5995  2.4500
   85MOL   H20840696   0.876   4.646   2.132  1.2766  3.5530  1.8627
   85MOL   H20940697   0.762   4.730   2.039 -1.3465 -2.5123 -0.6469
   85MOL   H21040698   0.664   4.520   2.245 -0.1784  1.6776  0.8721
   85MOL   H21140699   0.708   4.482   2.086 -1.5322  0.9647 -1.1195
   85MOL   H21240700   0.500   4.679   2.172 -0.2254 -0.9175  1.5072
   85MOL   H21340701   0.529   4.646   2.005 -2.0307 -1.8148 -0.2181
   85MOL   H21440702   0.186   4.440   2.118  1.1070 -1.3770  0.9901
   85MOL   H21540703   0.272   4.304   2.112 -3.4884 -0.0245  2.4445
   85MOL   H21640704   0.187   4.361   1.829  0.5423 -1.0808 -0.5730
   85MOL   H21740705   0.151   4.226   1.942 -1.9147 -0.2582 -0.7146
   85MOL   O21840706   7.802   4.299   2.005 -0.3466 -0.4488 -0.4358
   85MOL   C21940707   7.668   4.326   2.037 -0.0119  0.5521  0.0337
   85MOL   C22040708   7.664   4.413   2.156  0.8605  0.0685  0.2543
   85MOL   C22140709   7.524   4.406   2.221  0.3032 -0.1307 -0.2207
   85MOL   C22240710   7.523   4.479   2.360  0.1480  0.3507  0.0499
   85MOL   O22340711   7.544   4.613   2.335 -0.1053 -0.4417  0.3982
   85MOL   C22440712   7.543   4.701   2.438 -0.8194  0.4767  0.5055
   85MOL   O22540713   7.551   4.671   2.554  0.3138  0.7413 -0.6385
   85MOL   C22640714   7.547   4.842   2.394 -0.6075  0.6204 -0.2220
   85MOL   C22740715   7.469   4.889   2.276  0.3179  1.1010  0.7235
   85MOL   C22840716   7.329   4.834   2.280 -0.2703 -0.3472  0.3753
   85MOL   O22940717   7.282   4.763   2.191  0.3915 -0.8684 -0.3981
   85MOL   H23040718   7.616   4.371   1.952  0.7493 -1.7246 -1.6853
   85MOL   H23140719   7.623   4.229   2.060  0.9873 -0.5666 -2.5062
   85MOL   H23240720   7.682   4.518   2.129  0.6588  0.1586  0.4642
   85MOL   H23340721   7.736   4.376   2.228 -0.4494 -0.2906  1.4128
   85MOL   H23440722   7.496   4.302   2.233  1.7604 -0.8144 -2.4820
   85MOL   H23540723   7.447   4.442   2.153  0.2902 -0.5073 -0.4040
   85MOL   H23640724   7.429   4.459   2.411  0.9174 -0.1385  1.2937
   85MOL   H23740725   7.602   4.448   2.428 -0.0395  1.5135  0.8027
   85MOL   H23840726   7.649   4.879   2.387 -1.1187  1.9255 -1.0436
   85MOL   H23940727   7.503   4.893   2.479 -0.8535  0.2896 -0.1503
   85MOL   H24040728   7.464   4.998   2.276 -1.1102  1.0694 -1.3803
   85MOL   H24140729   7.503   4.849   2.180  0.7035 -0.8962  1.6662
   85MOL   O24240730   7.269   4.860   2.399 -0.5410  0.6750  0.2031
   85MOL   C24340731   7.138   4.819   2.422 -0.9769 -0.3477 -0.3727
   85MOL   C24440732   7.107   4.764   2.563 -0.3891 -0.4420 -0.2812
   85MOL   C24540733   7.161   4.624   2.583  0.0779  0.0064  0.1861
   85MOL   C24640734   7.128   4.551   2.712 -0.0427  0.5423  0.0007
   85MOL   O24740735   7.222   4.446   2.734  0.5144 -0.2421 -0.0544
   85MOL   C24840736   7.234   4.389   2.852  0.8400 -0.4733  0.4023
   85MOL   O24940737   7.178   4.423   2.955  0.9606  0.3920 -0.0689
   85MOL   C25040738   7.330   4.266   2.852  0.5979 -0.2011  1.3862
   85MOL   C25140739   7.454   4.285   2.755  0.5547 -0.2479 -0.0567
   85MOL   C25240740   7.482   4.165   2.672  0.0448  0.5663  0.6118
   85MOL   O25340741   7.569   4.089   2.710  0.2795 -0.0047  0.4643
   85MOL   H25440742   7.071   4.902   2.400 -0.0713  0.3795 -0.4355
   85MOL   H25540743   7.107   4.751   2.342 -0.3599  1.0299 -1.8010
   85MOL   H25640744   7.000   4.769   2.580 -0.3362  1.1440 -0.3888
   85MOL   H25740745   7.143   4.829   2.643 -0.1490 -2.9532  1.7291
   85MOL   H25840746   7.269   4.638   2.591  0.5746 -3.2541 -0.0982
   85MOL   H25940747   7.142   4.558   2.499  0.2596  0.5816 -0.3095
   85MOL   H26040748   7.141   4.617   2.798  0.9834  0.9783 -0.4859
   85MOL   H26140749   7.031   4.501   2.710 -0.8398  2.0849 -0.8956
   85MOL   H26240750   7.274   4.181   2.812 -0.2185  1.1498 -0.4598
   85MOL   H26340751   7.349   4.243   2.957 -0.4670  1.8015  2.0597
   85MOL   H26440752   7.448   4.367   2.683  3.0289 -0.8545 -0.9950
   85MOL   H26540753   7.536   4.300   2.826  1.6551  0.6732 -1.4790
   85MOL   O26640754   7.418   4.153   2.557 -0.6802  0.5967  0.0263
   85MOL   C26740755   7.434   4.033   2.479 -0.0772 -0.5599 -0.5017
   85MOL   C26840756   7.330   3.935   2.533  0.2553  0.3285  0.9156
   85MOL   C26940757   7.366   3.786   2.476  0.1933 -0.1182 -0.1570
   85MOL   C27040758   7.252   3.684   2.522  0.2507 -0.1964 -0.9465
   85MOL   O27140759   7.250   3.560   2.456  0.8134 -0.5247 -0.0302
   85MOL   C27240760   7.337   3.469   2.497  0.0256 -0.2017 -0.3026
   85MOL   O27340761   7.430   3.485   2.580 -0.3441 -0.4569  0.1345
   85MOL   C27440762   7.336   3.341   2.411  0.0156 -0.4729 -0.0047
   85MOL   C27540763   7.458   3.343   2.318 -0.0070 -0.1796  0.6746
   85MOL   C27640764   7.432   3.402   2.179 -0.9216  0.2261 -0.0775
   85MOL   O27740765   7.325   3.451   2.142 -0.4110 -0.2448 -0.5804
   85MOL   H27840766   7.428   4.048   2.371  1.2349 -1.4726 -0.7078
   85MOL   H27940767   7.531   3.987   2.494  0.7793  0.9334 -1.3352
   85MOL   H28040768   7.228   3.965   2.508  0.3380 -0.0457  0.1221
   85MOL   H28140769   7.333   3.926   2.642  0.6896 -2.7732  0.6718
   85MOL   H28240770   7.463   3.750   2.512  0.3007  1.4209  1.1674
   85MOL   H28340771   7.365   3.791   2.367 -0.1836 -1.3442 -0.2191
   85MOL   H28440772   7.248   3.668   2.630  0.5978  2.0022 -0.5791
   85MOL   H28540773   7.154   3.724   2.497  0.1568  0.4839  0.4473
   85MOL   H28640774   7.238   3.335   2.365 -0.4222  1.1946  0.6902
   85MOL   H28740775   7.345   3.250   2.470 -0.8583 -1.2707 -1.0982
   85MOL   H28840776   7.539   3.404   2.359 -1.3820  2.2985 -0.1930
   85MOL   H28940777   7.498   3.243   2.303 -1.7565 -0.9699  1.1949
   85MOL   O29040778   7.543   3.403   2.111  0.3238 -1.0015 -0.0714
   85MOL   C29140779   7.557   3.454   1.980 -0.0665 -1.0293 -1.3141
   85MOL   C29240780   7.702   3.452   1.927 -0.5993 -0.1610 -0.1875
   85MOL   C29340781   7.801   3.497   2.038  0.3816 -0.2875 -0.1418
   85MOL   C29440782   0.072   3.513   1.990  0.9816 -0.2119  0.0789
   85MOL   O29540783   0.080   3.581   1.860 -0.2983 -0.1513  0.1458
   85MOL   C29640784   0.089   3.717   1.855 -0.5578 -0.6645  0.4018
   85MOL   O29740785   0.058   3.793   1.946 -0.3922 -0.3603  0.5821
   85MOL   C29840786   0.116   3.768   1.712  0.2790  0.1498  0.4261
   85MOL   C29940787   0.175   3.909   1.696  0.2003  0.1798 -0.6870
   85MOL   C30040788   0.315   3.929   1.764 -0.3961 -0.7878  0.2476
   85MOL   O30140789   0.341   4.039   1.823  0.3234  0.4257 -0.6416
   85MOL   H30240790   7.502   3.391   1.910 -0.7375 -1.0944 -0.7294
   85MOL   H30340791   7.511   3.552   1.990  0.0079 -1.2262  1.2198
   85MOL   H30440792   7.715   3.514   1.839  0.0182  1.5028  1.0480
   85MOL   H30540793   7.731   3.352   1.896  0.3711  0.4311 -1.1980
   85MOL   H30640794   7.815   3.441   2.131  0.8227  0.4080  0.2201
   85MOL   H30740795   7.766   3.596   2.066  1.2938 -0.4516  1.6771
   85MOL   H30840796   0.135   3.563   2.063 -0.9083  2.2117  0.0827
   85MOL   H30940797   0.117   3.414   1.977 -0.0104 -0.5570 -0.8822
   85MOL   H31040798   0.022   3.768   1.656 -0.9210  3.9933  2.3017
   85MOL   H31140799   0.177   3.687   1.670 -0.4023 -1.5903  2.6431
   85MOL   H31240800   0.188   3.921   1.588  0.5342 -1.2011 -0.8081
   85MOL   H31340801   0.107   3.984   1.738 -0.9878 -0.5547 -1.2824
   85MOL   O31440802   0.398   3.820   1.764 -0.1229 -0.2501 -0.1368
   85MOL   C31540803   0.533   3.830   1.814  0.4354 -0.1336  0.2064
   85MOL   C31640804   0.544   3.741   1.938 -0.0931 -0.4802 -0.0599
   85MOL   C31740805   0.557   3.590   1.908  0.1785  0.2263  0.0237
   85MOL   C31840806   0.543   3.509   2.037 -0.4312  0.2963  0.0643
   85MOL   O31940807   0.524   3.378   2.000  0.2016  0.6585  0.4398
   85MOL   C32040808   0.422   3.303   2.053  0.0097 -0.5849  0.2555
   85MOL   O32140809   0.351   3.341   2.144 -0.6664 -0.2932 -1.0075
   85MOL   C32240810   0.419   3.155   2.009 -0.5127  0.4783 -0.2394
   85MOL   C32340811   0.531   3.073   2.069  0.1907 -0.0715  0.1291
   85MOL   C32440812   0.518   2.927   2.022  0.2917  0.2485 -0.0529
   85MOL   O32540813   0.490   2.840   2.104 -0.2664 -0.4814 -0.0031
   85MOL   H32640814   0.611   3.816   1.740  1.0355  0.3376  0.7438
   85MOL   H32740815   0.546   3.932   1.851 -0.3067 -0.2856  0.9246
   85MOL   H32840816   0.448   3.754   1.988 -0.5188 -3.1659 -0.0972
   85MOL   H32940817   0.623   3.782   2.000  0.0651  2.3423 -2.0262
   85MOL   H33040818   0.644   3.558   1.851  0.4000 -2.5274  1.8044
   85MOL   H33140819   0.471   3.563   1.847 -1.0386 -1.5214  2.4555
   85MOL   H33240820   0.629   3.501   2.102 -0.3505  2.8694  0.3070
   85MOL   H33340821   0.459   3.545   2.096 -0.8406  0.4805 -0.6218
   85MOL   H33440822   0.423   3.144   1.901  1.9472  0.8017 -0.2011
   85MOL   H33540823   0.324   3.113   2.042 -0.2291  0.1164  0.1178
   85MOL   H33640824   0.629   3.112   2.043 -0.4152  0.8371 -0.8647
   85MOL   H33740825   0.536   3.083   2.177 -1.3082  0.8119  0.1405
   85MOL   O33840826   0.541   2.914   1.892 -1.3031 -0.1263  0.7886
   85MOL   C33940827   0.541   2.790   1.829 -0.3227  0.0972  0.1560
   85MOL   C34040828   0.563   2.826   1.674  0.1138 -0.2424 -0.4645
   85MOL   C34140829   0.441   2.876   1.589  0.5042 -0.4499 -0.3855
   85MOL   C34240830   0.398   3.014   1.649  0.1839 -0.0730 -0.7583
   85MOL   O34340831   0.303   3.079   1.563  0.2300 -0.0302  0.5790
   85MOL   C34440832   0.256   3.199   1.593 -0.2089 -1.1249  0.0450
   85MOL   O34540833   0.283   3.266   1.696 -0.2341 -0.1438  0.0578
   85MOL   C34640834   0.143   3.243   1.498 -0.4918  0.4213 -0.1676
   85MOL   C34740835   0.044   3.354   1.547  1.0818 -0.1414 -0.0692
   85MOL   C34840836   7.848   3.426   1.434 -0.1452 -0.5862 -0.5892
   85MOL   O34940837   7.727   3.424   1.424 -0.2729 -0.4289  0.3978
   85MOL   H35040838   0.614   2.718   1.866 -1.7734  0.0825  3.2596
   85MOL   H35140839   0.440   2.749   1.837 -1.4403  2.2229 -2.4624
   85MOL   H35240840   0.614   2.738   1.634 -0.7342  0.1641 -2.5087
   85MOL   H35340841   0.647   2.896   1.675  0.8759 -1.1389 -0.7043
   85MOL   H35440842   0.357   2.807   1.590 -1.6174  2.0219  0.0708
   85MOL   H35540843   0.469   2.881   1.484  0.4152  1.1742 -0.3569
   85MOL   H35640844   0.353   2.999   1.747  2.3039  0.7575  0.3567
   85MOL   H35740845   0.486   3.077   1.654  0.6767 -0.8410  0.4443
   85MOL   H35840846   0.081   3.156   1.473  0.2987  0.1642 -1.2711
   85MOL   H35940847   0.172   3.266   1.396 -1.6290 -0.9473 -0.8275
   85MOL   H36040848   7.839   3.302   1.600  0.6421 -0.1301 -0.7236
   85MOL   H36140849   0.109   3.415   1.609  0.6780 -1.6169  1.8584
   85MOL   O36240850   0.056   3.493   1.357  0.5139  0.8720 -0.0881
   85MOL   C36340851   0.011   3.569   1.253  0.8581  0.3152 -0.2357
   85MOL   C36440852   0.021   3.496   1.122  0.1860  0.4103 -0.0147
   85MOL   C36540853   7.801   3.552   1.021  0.2395  0.2501 -0.0141
   85MOL   C36640854   7.805   3.489   0.882  0.1616  0.5128 -0.1364
   85MOL   O36740855   7.755   3.351   0.881  0.3270  0.0924 -0.2275
   85MOL   C36840856   7.822   3.254   0.823 -1.1787  0.4045 -1.1687
   85MOL   O36940857   0.048   3.259   0.752  0.8669 -0.0962 -0.1275
   85MOL   C37040858   7.755   3.124   0.858  0.3344  0.4287  0.4059
   85MOL   C37140859   7.732   3.039   0.731  0.5206  0.1737  0.1695
   85MOL   C37240860   7.801   2.904   0.740  0.0017 -0.0425 -0.3001
   85MOL   O37340861   7.733   2.806   0.729  0.6062  0.7783 -0.4113
   85MOL   H37440862   7.781   3.596   1.270  0.4879 -1.4702  0.4123
   85MOL   H37540863   0.062   3.665   1.256 -0.2145  0.9101 -0.6629
   85MOL   H37640864   0.023   3.389   1.140  0.1399  0.1077 -1.7375
   85MOL   H37740865   0.121   3.525   1.090  0.7858 -0.9871  0.5706
   85MOL   H37840866   7.814   3.660   1.024 -0.6798  0.3515  0.2063
   85MOL   H37940867   7.703   3.531   1.063  1.4493 -1.8344  1.9800
   85MOL   H38040868   7.734   3.539   0.816 -0.9073  0.5526  1.0076
   85MOL   H38140869   0.031   3.503   0.845  0.1390 -1.6092 -1.0473
   85MOL   H38240870   7.661   3.145   0.908 -0.7024  1.3539 -1.8725
   85MOL   H38340871   7.814   3.068   0.931 -0.7119 -0.5590  0.5021
   85MOL   H38440872   7.626   3.021   0.714  0.3379  1.2116  0.1864
   85MOL   H38540873   7.769   3.099   0.648 -0.6293  1.2882  0.4404
   85MOL   O38640874   0.064   2.907   0.753  0.0944 -0.2366 -0.2143
   85MOL   C38740875   0.137   2.784   0.779  0.0977  0.0264 -0.3255
   85MOL   C38840876   0.271   2.800   0.719  0.0915 -0.5705  0.3375
   85MOL   C38940877   0.377   2.885   0.796 -0.0383  0.3036  0.1386
   85MOL   C39040878   0.520   2.873   0.745  1.0166 -0.5951 -0.0821
   85MOL   O39140879   0.609   2.962   0.808 -0.2112 -0.0554 -0.9543
   85MOL   C39240880   0.733   2.951   0.768 -0.5263  0.4125 -0.0787
   85MOL   O39340881   0.773   2.882   0.675 -0.7720 -0.3249  0.2467
   85MOL   C39440882   0.837   3.034   0.841 -0.3720  0.8718  0.1866
   85MOL   C39540883   0.865   2.989   0.980 -0.2232  0.1367 -0.2775
   85MOL   C39640884   1.013   2.968   0.999  0.4129 -0.2464  0.7050
   85MOL   O39740885   1.074   3.034   1.085  0.2148  0.0447 -0.1621
   85MOL   H39840886   0.144   2.758   0.884  2.1168  1.2851 -0.1254
   85MOL   H39940887   0.097   2.694   0.732  2.7522 -1.2690 -0.2051
   85MOL   H40040888   0.272   2.846   0.621  0.0351 -1.0147  0.1242
   85MOL   H40140889   0.302   2.696   0.702 -1.0203 -0.8662  0.0961
   85MOL   H40240890   0.396   2.843   0.895 -0.9845 -0.4484  0.0133
   85MOL   H40340891   0.335   2.985   0.800 -0.1734  0.2304  0.5758
   85MOL   H40440892   0.548   2.770   0.767 -2.4504 -1.3987  0.8793
   85MOL   H40540893   0.527   2.885   0.636 -2.2569  1.3595 -0.1230
   85MOL   H40640894   0.795   3.134   0.848 -1.4211  0.4491 -0.0102
   85MOL   H40740895   0.929   3.048   0.785 -0.3403  0.0191  0.0218
   85MOL   H40840896   0.833   3.069   1.046  2.4023  0.3138  0.8186
   85MOL   H40940897   0.815   2.894   1.001 -1.0065  0.8310  1.0395
   85MOL   O41040898   1.061   2.879   0.907  0.1267  0.5574 -0.1800
   85MOL   C41140899   1.197   2.845   0.916  0.4770 -0.7652 -0.2184
   85MOL   C41240900   1.265   2.912   0.798 -0.7146 -0.1226 -0.3624
   85MOL   C41340901   1.197   2.899   0.659  0.0845 -0.1519 -0.3232
   85MOL   C41440902   1.266   2.986   0.556  0.2522 -0.8450 -0.5080
   85MOL   O41540903   1.230   2.980   0.422 -0.1423  0.5274  0.0208
   85MOL   C41640904   1.276   2.878   0.345 -0.5490  0.5916 -0.1261
   85MOL   O41740905   1.339   2.777   0.387  0.5337 -0.4012  0.2105
   85MOL   C41840906   1.259   2.903   0.189  0.6815 -0.3183 -0.1295
   85MOL   C41940907   1.280   2.776   0.110 -0.1106 -0.0253 -0.2834
   85MOL   C42040908   1.428   2.745   0.081 -0.2523  0.2045 -0.0228
   85MOL   O42140909   1.516   2.824   0.107  0.0890 -0.5709 -0.0157
   85MOL   H42240910   1.233   2.869   1.016 -0.3281  1.5891 -0.4746
   85MOL   H42340911   1.221   2.739   0.904  1.4989 -1.0572  3.7437
   85MOL   H42440912   1.372   2.892   0.793 -0.8325 -1.0187  0.5234
   85MOL   H42540913   1.263   3.020   0.815 -3.7585 -0.1911 -0.0804
   85MOL   H42640914   1.089   2.914   0.656  0.4448  2.9519  0.3758
   85MOL   H42740915   1.204   2.803   0.608  0.3238 -1.1819  1.5974
   85MOL   H42840916   1.262   3.088   0.593  3.0369 -0.6196 -0.7421
   85MOL   H42940917   1.370   2.955   0.571  0.6077  0.9601  0.9516
   85MOL   H43040918   1.329   2.983   0.163  0.2883  0.0601 -0.0255
   85MOL   H43140919   1.158   2.941   0.172  0.4464 -0.8833  0.0065
   85MOL   H43240920   1.234   2.698   0.170 -1.3186 -0.4762 -1.7408
   85MOL   H43340921   1.234   2.782   0.011  1.1924 -0.1487 -0.9108
   85MOL   O43440922   1.458   2.620   0.030  0.3881 -0.4959 -0.6398
   85MOL   C43540923   1.592   2.566   0.040  0.6738 -0.3016 -0.1206
   85MOL   C43640924   1.610   2.485   0.161  0.0176  0.2455  0.4135
   85MOL   C43740925   1.756   2.447   0.178  0.3398 -0.3471  0.6278
   85MOL   C43840926   1.769   2.331   0.283 -0.8468 -0.3982 -0.7340
   85MOL   O43940927   1.905   2.284   0.286  0.1028 -0.7196  0.3115
   85MOL   C44040928   1.937   2.163   0.224 -0.2020  0.1781 -0.3256
   85MOL   O44140929   1.857   2.095   0.149  0.4270  0.4501  0.2611
   85MOL   C44240930   2.083   2.124   0.246 -0.0288 -0.6160 -0.9583
   85MOL   C44340931   2.175   2.222   0.180 -0.1782  0.0004 -0.1807
   85MOL   C44440932   2.318   2.213   0.241  1.2313 -0.5182 -0.3336
   85MOL   O44540933   2.403   2.299   0.213  0.5086  0.2146 -0.0541
   85MOL   H44640934   1.619   2.509   7.826 -1.4550 -0.2217 -0.8516
   85MOL   H44740935   1.666   2.646   0.038 -1.2117  1.5436  1.6071
   85MOL   H44840936   1.561   2.388   0.154  0.4828 -0.0922  1.6984
   85MOL   H44940937   1.585   2.539   0.253  1.5207 -0.8708  1.4926
   85MOL   H45040938   1.810   2.527   0.229  0.3434 -1.2171  2.0319
   85MOL   H45140939   1.803   2.432   0.081 -0.5118 -0.6557  0.2559
   85MOL   H45240940   1.735   2.369   0.379 -0.0112 -3.2690  0.7614
   85MOL   H45340941   1.701   2.250   0.259 -0.8389 -0.7352  0.3664
   85MOL   H45440942   2.089   2.020   0.213 -3.1224 -1.1221 -0.0871
   85MOL   H45540943   2.095   2.131   0.354  2.9911 -1.1117 -1.2007
   85MOL   H45640944   2.182   2.219   0.071 -1.1286  1.1222 -0.2841
   85MOL   H45740945   2.127   2.317   0.203 -1.6188 -1.0911  1.3898
   85MOL   O45840946   2.350   2.098   0.304  0.2562  0.3166  0.5884
   85MOL   C45940947   2.484   2.072   0.339 -0.2689  0.8258  0.2751
   85MOL   C46040948   2.479   1.944   0.419 -0.0120  0.5676 -0.3285
   85MOL   C46140949   2.436   1.827   0.328 -0.7479  0.0022 -0.2473
   85MOL   C46240950   2.453   1.700   0.402 -0.0527  0.8922  0.9018
   85MOL   O46340951   2.581   1.645   0.388 -0.0854 -0.1247  0.6472
   85MOL   C46440952   2.591   1.513   0.365  0.4163  0.3390  0.9096
   85MOL   O46540953   2.491   1.436   0.373 -0.2929 -0.9140 -0.0665
   85MOL   C46640954   2.731   1.458   0.358 -0.2093  0.6531 -0.0603
   85MOL   C46740955   2.790   1.428   0.219 -0.0198  0.4204 -1.0287
   85MOL   C46840956   2.711   1.467   0.091 -0.9227  0.7427  0.4493
   85MOL   O46940957   2.734   1.575   0.041  0.1219 -0.4519  0.2070
   85MOL   H47040958   2.553   2.066   0.255 -0.5185  1.3217  0.0271
   85MOL   H47140959   2.524   2.154   0.399  2.0123  1.2316 -1.7191
   85MOL   H47240960   2.415   1.949   0.507  1.9959  0.7144  1.1381
   85MOL   H47340961   2.581   1.928   0.452 -0.1242  2.7286  1.1859
   85MOL   H47440962   2.500   1.828   0.240 -1.3780 -0.4841 -0.7187
   85MOL   H47540963   2.332   1.847   0.300 -1.2569 -2.2134 -0.0051
   85MOL   H47640964   2.440   1.713   0.509 -2.3716  0.5763  0.6764
   85MOL   H47740965   2.368   1.638   0.373  0.8805  0.4256 -0.9323
   85MOL   H47840966   2.741   1.371   0.422  1.6751 -0.0188 -1.2185
   85MOL   H47940967   2.789   1.532   0.414  1.6753 -1.5140  0.9345
   85MOL   H48040968   2.885   1.480   0.216 -0.5913  1.7376  1.9112
   85MOL   H48140969   2.792   1.319   0.217  1.1204  0.4411 -1.1223
   85MOL   H48240970   2.642   1.390   0.053 -1.9794  0.7067  2.3677
   86MOL     O140971   4.603   7.496   2.860  0.0343  0.4017  0.5381
   86MOL     C240972   4.668   7.392   2.778  0.7915  0.7984  0.0531
   86MOL     C340973   4.750   7.296   2.862  0.0730  0.1995  0.0244
   86MOL     C440974   4.841   7.212   2.777 -0.5724  0.4074  0.1903
   86MOL     C540975   4.908   7.103   2.862  0.4438  0.2644 -0.3558
   86MOL     O640976   5.011   7.031   2.800 -0.1783  0.1173  0.1818
   86MOL     C740977   5.089   6.951   2.878  0.2280  0.1043 -0.2602
   86MOL     O840978   5.079   6.918   2.997  0.3236  0.5935  0.2264
   86MOL     C940979   5.202   6.892   2.797 -0.0488 -0.1981 -0.3516
   86MOL    C1040980   5.211   6.734   2.810 -1.2268  0.4269 -0.4859
   86MOL    C1140981   5.115   6.659   2.711  0.1479 -0.1812  0.7050
   86MOL    O1240982   5.130   6.656   2.584 -0.2225 -0.0340  0.5118
   86MOL    H1340983   4.586   7.336   2.734  0.9801 -1.3796  2.3248
   86MOL    H1440984   4.725   7.444   2.701  0.7730  0.2106 -0.3536
   86MOL    H1540985   4.692   7.239   2.935  1.2158 -0.4684  0.4184
   86MOL    H1640986   4.822   7.349   2.924 -0.0385 -0.3835  0.6706
   86MOL    H1740987   4.922   7.264   2.725  2.3654 -1.6567  2.5320
   86MOL    H1840988   4.788   7.165   2.694 -1.5861  0.3603  0.8595
   86MOL    H1940989   4.953   7.148   2.950  0.8541 -0.1218 -0.3694
   86MOL    H2040990   4.828   7.036   2.895 -0.0641  0.8439 -0.4037
   86MOL    H2140991   5.289   6.937   2.844  0.8788 -1.1913 -1.1107
   86MOL    H2240992   5.191   6.914   2.691  4.9027  0.0526 -0.8911
   86MOL    H2340993   5.313   6.697   2.812 -1.4140 -0.0398  0.9725
   86MOL    H2440994   5.183   6.711   2.912  2.1236 -0.4388  0.2700
   86MOL    H2540995   4.535   7.541   2.812 -0.1698  0.5555  0.9635
   86MOL    O2640996   5.004   6.614   2.771  0.1603  0.1256 -0.1483
   86MOL    C2740997   4.901   6.558   2.693 -0.5505 -0.3751  0.4386
   86MOL    C2840998   4.806   6.659   2.629  0.3747  0.3549 -0.0787
   86MOL    C2940999   4.734   6.740   2.732 -0.1376  0.3357 -0.5423
   86MOL    C3041000   4.646   6.853   2.680 -0.2580  0.4305  0.1986
   86MOL    O3141001   4.597   6.909   2.800 -0.6361  0.8146 -0.0102
   86MOL    C3241002   4.500   7.002   2.788 -0.4362  0.2344  0.3559
   86MOL    O3341003   4.462   7.052   2.683 -0.5531 -0.2280  0.4875
   86MOL    C3441004   4.447   7.047   2.922 -0.3252 -0.0361 -0.0651
   86MOL    C3541005   4.343   6.951   2.984 -0.5893  0.1745 -0.0643
   86MOL    C3641006   4.198   6.995   2.955 -0.6957  0.5066 -0.1828
   86MOL    O3741007   4.139   7.063   3.037  0.2733 -0.1732  0.6096
   86MOL    H3841008   4.945   6.487   2.623  0.0484 -0.3394  0.7741
   86MOL    H3941009   4.845   6.498   2.764  0.4374 -1.2099  0.5150
   86MOL    H4041010   4.745   6.598   2.563 -0.0195 -0.2505  0.8309
   86MOL    H4141011   4.853   6.736   2.569 -0.0671 -0.3700 -1.3837
   86MOL    H4241012   4.794   6.779   2.813 -0.5250 -0.6162  0.2189
   86MOL    H4341013   4.665   6.679   2.790 -0.0513  2.5757  2.0047
   86MOL    H4441014   4.708   6.926   2.628  0.3157 -0.2165 -0.0262
   86MOL    H4541015   4.569   6.816   2.612 -0.8587  0.7939  0.6725
   86MOL    H4641016   4.415   7.151   2.925  0.5948  0.3005 -1.4751
   86MOL    H4741017   4.536   7.055   2.985 -0.7687 -0.1441  0.5663
   86MOL    H4841018   4.356   6.848   2.953  0.9491 -0.7783  3.4344
   86MOL    H4941019   4.373   6.954   3.089  0.3527  3.0059 -0.3562
   86MOL    O5041020   4.145   6.933   2.851 -0.2238 -0.5186 -0.1492
   86MOL    C5141021   4.007   6.952   2.822 -0.5323  0.2121  0.0097
   86MOL    C5241022   3.981   6.891   2.686  0.4402  0.4115 -0.4264
   86MOL    C5341023   3.982   6.740   2.670  0.1984 -0.8234 -0.1513
   86MOL    C5441024   3.960   6.687   2.528  0.6702  0.0265 -0.1399
   86MOL    O5541025   3.824   6.732   2.495  0.2163  0.0056  0.2223
   86MOL    C5641026   3.719   6.642   2.508 -0.9866 -0.0860  0.0789
   86MOL    O5741027   3.735   6.535   2.572  0.2942 -0.2045 -0.0765
   86MOL    C5841028   3.587   6.684   2.439 -0.1730 -0.0637 -0.1707
   86MOL    C5941029   3.531   6.817   2.485 -0.1815 -0.3955  1.1021
   86MOL    C6041030   3.400   6.810   2.566  0.0625 -0.4208 -0.8331
   86MOL    O6141031   3.397   6.876   2.674  0.0482 -0.2058  0.3763
   86MOL    H6241032   3.930   6.911   2.887 -0.6992 -1.2645 -1.0817
   86MOL    H6341033   3.989   7.059   2.814  0.7883  0.6706  2.5569
   86MOL    H6441034   4.046   6.937   2.612  0.8568  0.2626 -0.1508
   86MOL    H6541035   3.877   6.910   2.657  0.0975 -1.3027 -0.3575
   86MOL    H6641036   3.912   6.690   2.738  0.2016 -1.4518 -0.6027
   86MOL    H6741037   4.077   6.698   2.703 -0.5475 -1.5605  1.1335
   86MOL    H6841038   4.029   6.733   2.457  0.6567  0.0071 -0.1658
   86MOL    H6941039   3.954   6.579   2.512 -0.3821  0.4035 -2.5197
   86MOL    H7041040   3.515   6.604   2.455  0.1615 -0.2997  0.1691
   86MOL    H7141041   3.609   6.701   2.334  0.9186  0.5197  0.1419
   86MOL    H7241042   3.606   6.878   2.534 -0.7292  2.2701 -1.2356
   86MOL    H7341043   3.497   6.873   2.398 -0.8198  1.1880  2.3492
   86MOL    O7441044   3.290   6.738   2.516 -0.1308  0.0775  0.2749
   86MOL    C7541045   3.177   6.715   2.602 -0.5197 -0.4229 -0.6089
   86MOL    C7641046   3.107   6.593   2.557  0.0873 -0.0548 -0.2816
   86MOL    C7741047   3.013   6.533   2.661  0.9389  0.5167  0.6034
   86MOL    C7841048   2.873   6.604   2.655  0.6482  0.3599  0.1420
   86MOL    O7941049   2.795   6.568   2.540 -0.5724 -0.2954  0.2322
   86MOL    C8041050   2.733   6.450   2.519  0.2360 -0.1949  0.1742
   86MOL    O8141051   2.748   6.351   2.592 -0.0462  0.1309 -0.0665
   86MOL    C8241052   2.661   6.450   2.389  0.1555  0.2342 -0.3889
   86MOL    C8341053   2.747   6.442   2.275 -0.3782 -0.3138 -0.1634
   86MOL    C8441054   2.793   6.578   2.217  0.2979  0.3710  0.6410
   86MOL    O8541055   2.740   6.684   2.232 -0.3586 -0.2676 -0.0074
   86MOL    H8641056   3.211   6.704   2.705  0.3145 -2.3655 -1.0832
   86MOL    H8741057   3.116   6.806   2.597  1.0006  0.5038 -2.9296
   86MOL    H8841058   3.181   6.517   2.531 -0.9570 -0.8234 -1.0435
   86MOL    H8941059   3.058   6.604   2.460  2.4822  2.5682 -1.2907
   86MOL    H9041060   3.058   6.542   2.760 -1.2604 -0.1754  1.6956
   86MOL    H9141061   2.994   6.427   2.640 -1.1077  1.2134 -1.2842
   86MOL    H9241062   2.811   6.583   2.742 -0.9522  1.2417 -0.7574
   86MOL    H9341063   2.897   6.710   2.646  2.3805  0.0739  1.1461
   86MOL    H9441064   2.609   6.546   2.397 -0.7338 -0.1785 -1.2326
   86MOL    H9541065   2.585   6.372   2.396 -0.8637  1.3385  1.1714
   86MOL    H9641066   2.839   6.387   2.291 -0.1950 -0.1554 -0.6689
   86MOL    H9741067   2.710   6.384   2.191 -1.0081  2.8440 -2.1399
   86MOL    O9841068   2.900   6.565   2.129 -0.0899  0.1387  0.1525
   86MOL    C9941069   2.952   6.682   2.064 -0.5255  0.0850 -0.1314
   86MOL   C10041070   3.049   6.758   2.158  0.2484 -0.0517  0.7300
   86MOL   C10141071   3.181   6.689   2.178  0.3666  0.0381 -0.1800
   86MOL   C10241072   3.297   6.785   2.192  0.4189  0.2901  0.0423
   86MOL   O10341073   3.334   6.852   2.072  0.3251 -0.0441 -0.1132
   86MOL   C10441074   3.336   6.983   2.062 -0.2254  0.4530 -0.2192
   86MOL   O10541075   3.289   7.068   2.138 -0.0741 -0.3490 -0.3304
   86MOL   C10641076   3.396   7.030   1.928 -0.3115 -0.0286  0.1519
   86MOL   C10741077   3.390   7.182   1.898 -0.4869 -0.1448 -0.2888
   86MOL   C10841078   3.346   7.203   1.754 -0.1493 -0.0284 -0.3149
   86MOL   O10941079   3.362   7.124   1.663 -0.0667 -0.6385  0.0084
   86MOL   H11041080   3.004   6.632   1.983 -0.7470  1.0381 -0.8624
   86MOL   H11141081   2.871   6.745   2.028  1.5847  1.0361 -3.3385
   86MOL   H11241082   2.991   6.763   2.250 -0.1144  1.4116  0.4374
   86MOL   H11341083   3.070   6.854   2.110  0.5327 -0.7899 -0.6514
   86MOL   H11441084   3.194   6.616   2.099  0.1357  1.0522 -1.1687
   86MOL   H11541085   3.174   6.624   2.265 -1.5358  0.8261  0.2817
   86MOL   H11641086   3.257   6.849   2.271  1.5517 -0.4304  1.2183
   86MOL   H11741087   3.386   6.729   2.222  0.4071  1.0015  1.4701
   86MOL   H11841088   3.341   6.979   1.849 -2.4090  1.8850  0.3108
   86MOL   H11941089   3.500   6.998   1.922 -0.3445 -0.0202 -0.5495
   86MOL   H12041090   3.320   7.229   1.968  0.9032 -0.9310  1.6708
   86MOL   H12141091   3.490   7.224   1.899 -0.7280  0.4313 -0.4456
   86MOL   O12241092   3.303   7.326   1.733  0.4059  0.4186  0.2675
   86MOL   C12341093   3.245   7.361   1.609  0.0841  0.1112 -0.4526
   86MOL   C12441094   3.189   7.505   1.607  0.1762  0.2566 -0.6610
   86MOL   C12541095   3.075   7.528   1.706 -0.2390 -0.2744 -0.0703
   86MOL   C12641096   2.994   7.653   1.673  0.0894 -0.9188 -0.2869
   86MOL   O12741097   2.926   7.630   1.544 -0.5888 -0.2183  0.3010
   86MOL   C12841098   2.804   7.676   1.513 -0.0643 -0.1890 -0.9504
   86MOL   O12941099   2.737   7.753   1.579 -0.4329  0.1192 -0.3087
   86MOL   C13041100   2.766   7.649   1.371 -0.8968 -1.0661 -0.7952
   86MOL   C13141101   2.682   7.762   1.315 -0.2743  0.4957 -0.1032
   86MOL   C13241102   2.705   7.783   1.168  0.5558  0.4808  0.3640
   86MOL   O13341103   2.812   7.760   1.114 -0.0985 -0.0304 -0.1762
   86MOL   H13441104   3.298   7.341   1.516  0.9117 -1.8779  0.4248
   86MOL   H13541105   3.159   7.298   1.586  0.9297 -0.2751 -2.7618
   86MOL   H13641106   3.170   7.537   1.504 -1.8177 -0.9365 -0.6875
   86MOL   H13741107   3.270   7.571   1.637  1.1149 -1.8306  1.4723
   86MOL   H13841108   3.116   7.513   1.805 -0.2614 -1.2160 -0.1951
   86MOL   H13941109   3.005   7.445   1.695  0.7864 -0.8505 -2.7595
   86MOL   H14041110   2.912   7.672   1.742 -0.0068  0.3973 -0.7383
   86MOL   H14141111   3.039   7.752   1.662 -0.3331 -0.5270  1.3946
   86MOL   H14241112   2.719   7.552   1.357 -3.5046 -0.0094  0.3076
   86MOL   H14341113   2.860   7.648   1.317 -0.4249  0.0049 -0.0276
   86MOL   H14441114   2.578   7.730   1.324 -0.3145  0.4698 -0.6505
   86MOL   H14541115   2.696   7.858   1.365 -1.0456  1.9958 -2.6652
   86MOL   O14641116   2.594   7.834   1.109 -0.1820 -0.1956 -0.3170
   86MOL   C14741117   2.597   7.861   0.974  0.4232  0.0928 -0.2073
   86MOL   C14841118   2.470   0.072   0.931 -0.6116 -0.2472  0.2850
   86MOL   C14941119   2.330   0.025   0.959 -0.2870 -0.1487  0.2441
   86MOL   C15041120   2.277   7.780   0.879 -0.7846  0.0582 -0.6696
   86MOL   O15141121   2.358   7.667   0.907 -0.0735  0.0069  0.3728
   86MOL   C15241122   2.337   7.585   1.017 -1.3078 -1.0237  0.4188
   86MOL   O15341123   2.269   7.623   1.116 -0.2051  0.3420 -0.6845
   86MOL   C15441124   2.410   7.447   1.003 -0.0840 -0.3932 -0.1978
   86MOL   C15541125   2.553   7.456   1.051  0.1041  0.3963  0.5557
   86MOL   C15641126   2.555   7.404   1.189 -0.4055  0.4578  0.6326
   86MOL   O15741127   2.590   7.288   1.205 -0.1951  0.0549 -0.1377
   86MOL   H15841128   2.688   0.045   0.957  0.5771 -0.4784 -1.4023
   86MOL   H15941129   2.596   7.773   0.911 -1.0862  1.0266 -1.5293
   86MOL   H16041130   2.480   0.103   0.827 -0.7143  0.5988  0.5276
   86MOL   H16141131   2.485   0.167   0.982  3.1525  0.5678 -2.1676
   86MOL   H16241132   2.259   0.106   0.946 -0.5542 -0.3521  0.4353
   86MOL   H16341133   2.320   7.869   1.063 -1.2486 -1.9044 -0.3386
   86MOL   H16441134   2.172   7.764   0.902 -0.9306 -2.1782 -2.7787
   86MOL   H16541135   2.294   7.802   0.774 -0.2020 -0.1270 -0.6171
   86MOL   H16641136   2.414   7.431   0.895 -0.3592 -0.3578 -0.2141
   86MOL   H16741137   2.359   7.359   1.041  2.4110 -2.3069 -1.1966
   86MOL   H16841138   2.601   7.383   0.985 -1.4981 -0.2607  0.0854
   86MOL   H16941139   2.586   7.559   1.037  1.9020 -0.1476  0.6337
   86MOL   O17041140   2.496   7.491   1.282 -0.2078 -0.2950  0.8055
   86MOL   C17141141   2.455   7.430   1.404  0.1404 -0.1615 -0.7331
   86MOL   C17241142   2.381   7.536   1.483  0.6866 -0.1181 -0.8524
   86MOL   C17341143   2.313   7.476   1.612  0.5746  0.3063  0.4043
   86MOL   C17441144   2.238   7.581   1.691  0.3171 -0.3784 -0.3269
   86MOL   O17541145   2.323   7.692   1.711  0.6219 -0.1365  0.3876
   86MOL   C17641146   2.341   7.737   1.833  0.0184  0.2203  0.4990
   86MOL   O17741147   2.306   7.683   1.936  0.1613 -1.1444 -0.3777
   86MOL   C17841148   2.439   7.860   1.830 -0.5755  0.2002 -0.2613
   86MOL   C17941149   2.565   7.824   1.899  0.2062  1.0303  0.7140
   86MOL   C18041150   2.601   0.028   2.019  0.1060  0.7916  0.2683
   86MOL   O18141151   2.597   7.865   2.134  0.2490  0.0494 -0.1651
   86MOL   H18241152   2.387   7.351   1.373  0.6851 -0.5162 -1.0406
   86MOL   H18341153   2.534   7.388   1.466  0.9301 -1.8836 -2.8270
   86MOL   H18441154   2.303   7.585   1.425  0.2865  0.8174  0.4672
   86MOL   H18541155   2.450   7.619   1.499 -2.0042  1.6886  1.8011
   86MOL   H18641156   2.398   7.435   1.667 -2.6594 -4.3408  2.1782
   86MOL   H18741157   2.261   7.385   1.584  1.3356  0.2745 -0.9291
   86MOL   H18841158   2.142   7.614   1.652  1.1973 -0.0848 -2.2637
   86MOL   H18941159   2.232   7.521   1.782  0.0508 -1.9793 -1.3822
   86MOL   H19041160   2.393   0.063   1.892  1.9853  1.6383 -0.0936
   86MOL   H19141161   2.455   0.023   1.729 -1.2012 -0.2926 -0.5480
   86MOL   H19241162   2.573   7.721   1.933 -0.1197  0.7911  0.0718
   86MOL   H19341163   2.647   7.837   1.829 -1.4075 -0.3293 -1.4538
   86MOL   O19441164   2.656   0.140   1.985  0.4951 -0.0201  1.1271
   86MOL   C19541165   2.684   0.241   2.082  0.2407 -0.3794  0.2531
   86MOL   C19641166   2.561   0.294   2.134  0.1422 -0.0660  0.0417
   86MOL   C19741167   2.472   0.371   2.031 -0.2793 -0.1755  0.0854
   86MOL   C19841168   2.531   0.512   1.987 -0.7010  0.9170 -0.0118
   86MOL   O19941169   2.455   0.599   1.916 -0.0057  0.3193  0.5138
   86MOL   C20041170   2.350   0.660   1.972 -0.0671  0.6399 -0.0046
   86MOL   O20141171   2.329   0.664   2.094  0.2232 -0.3528  0.3063
   86MOL   C20241172   2.248   0.717   1.869  0.2036  0.1191  0.3223
   86MOL   C20341173   2.309   0.818   1.771  0.0931 -0.6282  0.2847
   86MOL   C20441174   2.240   0.828   1.630 -0.1051 -0.2948  0.0615
   86MOL   O20541175   2.202   0.934   1.587  0.1936  0.4274  0.0354
   86MOL   H20641176   2.727   0.193   2.170 -0.3964 -2.9399 -0.7658
   86MOL   H20741177   2.751   0.314   2.037 -0.3822 -0.1124 -0.2553
   86MOL   H20841178   2.581   0.358   2.220 -0.3666 -1.8623  1.5476
   86MOL   H20941179   2.504   0.216   2.185 -0.5946  0.1426 -0.4528
   86MOL   H21041180   2.382   0.396   2.088  0.7693  2.9028  0.5080
   86MOL   H21141181   2.445   0.304   1.950  1.9296 -1.6310  0.4964
   86MOL   H21241182   2.574   0.567   2.070  0.0777 -1.8782  1.5173
   86MOL   H21341183   2.615   0.476   1.927 -0.3384  4.2002 -1.5671
   86MOL   H21441184   2.176   0.768   1.932 -0.0485  0.3960 -0.1864
   86MOL   H21541185   2.181   0.644   1.823 -1.8140  1.6792  0.7158
   86MOL   H21641186   2.307   0.914   1.823  2.0615  0.6462 -1.8833
   86MOL   H21741187   2.416   0.796   1.768  0.3528  0.6583 -0.8794
   86MOL   O21841188   2.227   0.698   1.576  0.0409 -0.3362 -0.4662
   86MOL   C21941189   2.158   0.686   1.459 -0.2628  0.3689  0.6606
   86MOL   C22041190   2.230   0.684   1.325 -0.3104 -0.1112 -0.1551
   86MOL   C22141191   2.358   0.596   1.322 -0.4366 -0.4136 -0.1828
   86MOL   C22241192   2.407   0.579   1.178  0.9548  0.0654 -1.1053
   86MOL   O22341193   2.514   0.493   1.181 -0.3237  0.1002 -0.4597
   86MOL   C22441194   2.553   0.422   1.076 -0.0478  0.5477  0.6419
   86MOL   O22541195   2.491   0.425   0.966 -0.0462 -0.5377 -0.6957
   86MOL   C22641196   2.694   0.352   1.104 -0.0434 -0.3421 -0.1704
   86MOL   C22741197   2.797   0.420   1.027  0.0458  0.2451  0.3882
   86MOL   C22841198   2.914   0.452   1.115  0.9649 -0.1210 -0.7298
   86MOL   O22941199   2.968   0.560   1.109  0.1114  0.0486 -0.0777
   86MOL   H23041200   2.103   0.592   1.466  1.2207 -0.5931 -0.3209
   86MOL   H23141201   2.088   0.768   1.441 -2.7392 -2.1596 -1.8487
   86MOL   H23241202   2.256   0.789   1.306  1.3525 -0.3023  0.9405
   86MOL   H23341203   2.163   0.652   1.245 -0.0766 -0.5329 -0.1836
   86MOL   H23441204   2.329   0.499   1.361 -0.8868  0.7189  2.4078
   86MOL   H23541205   2.428   0.645   1.390 -1.2303 -0.2900  0.5474
   86MOL   H23641206   2.324   0.545   1.116 -1.2353  2.3552  0.4958
   86MOL   H23741207   2.433   0.673   1.129 -1.1818  1.1603 -0.2227
   86MOL   H23841208   2.692   0.248   1.072  0.0571 -1.2107  2.5271
   86MOL   H23941209   2.711   0.341   1.211 -0.6056  1.6115  0.1333
   86MOL   H24041210   2.825   0.346   0.951  0.7109  1.5795 -0.6875
   86MOL   H24141211   2.753   0.504   0.974  3.4889  1.3477 -0.9089
   86MOL   O24241212   2.942   0.355   1.204  0.2351 -0.0928 -0.2052
   86MOL   C24341213   3.054   0.357   1.287  0.1583  0.3396  0.6806
   86MOL   C24441214   3.030   0.424   1.419 -0.2675 -0.2944 -0.8074
   86MOL   C24541215   2.974   0.322   1.516  0.3275 -0.3412 -0.4056
   86MOL   C24641216   2.950   0.365   1.660 -0.8407  0.1340  0.0596
   86MOL   O24741217   3.064   0.421   1.718 -0.7024  0.7707 -0.0674
   86MOL   C24841218   3.061   0.543   1.771  0.2117  0.4406 -0.3141
   86MOL   O24941219   2.975   0.629   1.746 -0.3300 -0.5418 -0.0337
   86MOL   C25041220   3.183   0.575   1.863 -0.1372 -0.1646  0.6555
   86MOL   C25141221   3.318   0.528   1.799 -0.3529 -0.3216 -0.6705
   86MOL   C25241222   3.423   0.639   1.791  0.6749  0.0147 -0.5382
   86MOL   O25341223   3.435   0.727   1.878  0.4208  0.7861  0.4321
   86MOL   H25441224   3.090   0.255   1.303 -0.3011 -0.1117 -1.0360
   86MOL   H25541225   3.134   0.420   1.247  1.4786 -1.5398  0.3128
   86MOL   H25641226   2.970   0.513   1.399 -1.5200 -1.1796 -1.0805
   86MOL   H25741227   3.120   0.467   1.462  0.0231 -1.7319  0.0677
   86MOL   H25841228   3.059   0.254   1.523  0.4330 -0.2003 -0.3266
   86MOL   H25941229   2.883   0.273   1.480 -1.6431  3.2368 -0.5083
   86MOL   H26041230   2.858   0.424   1.658  0.1896  1.7642 -3.5192
   86MOL   H26141231   2.923   0.281   1.724 -0.8649 -0.6727 -1.0067
   86MOL   H26241232   3.160   0.533   1.961 -1.0367  0.1531  0.5913
   86MOL   H26341233   3.177   0.684   1.874  0.1030 -0.0988  0.1432
   86MOL   H26441234   3.350   0.444   1.860  2.3834  0.5315 -0.8416
   86MOL   H26541235   3.312   0.483   1.700 -1.5951  1.3238 -1.3625
   86MOL   O26641236   3.496   0.628   1.683 -0.1481  0.0067 -0.8907
   86MOL   C26741237   3.595   0.723   1.661 -0.5111 -1.1189  0.2535
   86MOL   C26841238   3.724   0.651   1.620  0.2017 -0.6081  0.1196
   86MOL   C26941239   3.727   0.604   1.472 -0.1921 -0.6554  0.4745
   86MOL   C27041240   3.841   0.510   1.438  0.3970 -0.8766 -0.8879
   86MOL   O27141241   3.841   0.402   1.526 -0.3810  0.0431  0.1022
   86MOL   C27241242   3.749   0.310   1.508  0.5973  0.2169  0.4985
   86MOL   O27341243   3.682   0.293   1.406  0.4890  0.1970  0.4330
   86MOL   C27441244   3.722   0.227   1.630 -0.5532 -0.4268  1.7691
   86MOL   C27541245   3.625   0.293   1.731  0.1295  0.5691  1.0668
   86MOL   C27641246   3.692   0.352   1.852  0.1185  0.3434 -0.2801
   86MOL   O27741247   3.809   0.366   1.867 -0.1448 -0.7319  0.3021
   86MOL   H27841248   3.557   0.791   1.584  1.7551 -0.5542 -0.4023
   86MOL   H27941249   3.625   0.776   1.751  2.8286 -1.2532 -0.6971
   86MOL   H28041250   3.745   0.574   1.695 -0.1601 -1.3606 -0.5443
   86MOL   H28141251   3.802   0.726   1.631 -0.0846 -0.6705  3.0583
   86MOL   H28241252   3.722   0.677   1.391  1.3944 -0.1854  0.7763
   86MOL   H28341253   3.632   0.554   1.452 -0.6445  1.9280 -4.7385
   86MOL   H28441254   3.835   0.466   1.338  1.7929 -2.4871 -0.2972
   86MOL   H28541255   3.935   0.565   1.429  0.1081 -0.5108 -1.7716
   86MOL   H28641256   3.817   0.195   1.672  0.2158 -1.5148 -0.7487
   86MOL   H28741257   3.672   0.134   1.604 -1.3874  0.6584 -0.6693
   86MOL   H28841258   3.575   0.377   1.682 -0.6153  0.2108  1.2021
   86MOL   H28941259   3.544   0.224   1.754  1.2776 -2.0202 -2.3838
   86MOL   O29041260   3.599   0.380   1.939 -0.4286 -0.1811 -0.1648
   86MOL   C29141261   3.645   0.448   2.070  0.7022 -0.2656  0.4513
   86MOL   C29241262   3.708   0.357   2.174  0.2577 -0.2544 -0.7147
   86MOL   C29341263   3.614   0.254   2.229  0.7886 -0.7128  0.3394
   86MOL   C29441264   3.588   0.127   2.145 -0.8720  0.3800 -0.0072
   86MOL   O29541265   3.712   0.059   2.113  0.0265  0.5601  0.2379
   86MOL   C29641266   3.748   0.022   1.992  0.0569  0.3036 -0.8758
   86MOL   O29741267   3.678   0.024   1.891  0.5269  0.2935  0.2217
   86MOL   C29841268   3.889   7.855   1.984  0.8310  0.0123  0.2237
   86MOL   C29941269   3.972   0.099   2.028  0.3842 -0.3137 -0.4242
   86MOL   C30041270   4.028   0.088   2.165 -0.2774 -0.0869  0.5081
   86MOL   O30141271   4.040   0.187   2.234 -1.4690  0.2765  0.1197
   86MOL   H30241272   3.704   0.536   2.044 -0.9929  0.1748 -1.9886
   86MOL   H30341273   3.553   0.493   2.107  0.1857 -1.0235  0.0923
   86MOL   H30441274   3.739   0.409   2.264  1.2544  0.6993 -1.5948
   86MOL   H30541275   3.801   0.312   2.137  1.2453  1.5856 -0.4979
   86MOL   H30641276   3.526   0.306   2.269  2.1659  1.1312  1.0283
   86MOL   H30741277   3.670   0.224   2.318  1.2550 -0.5122  0.1130
   86MOL   H30841278   3.518   0.060   2.195  2.4838 -2.9869  0.4022
   86MOL   H30941279   3.547   0.160   2.049  0.4240  1.2568 -0.2782
   86MOL   H31041280   3.904   7.812   1.885 -1.4674 -0.5113  0.0667
   86MOL   H31141281   3.899   7.774   2.056 -1.8565  1.3116  2.1517
   86MOL   H31241282   4.064   0.102   1.969 -0.2301 -2.8634 -1.5670
   86MOL   H31341283   3.917   0.193   2.019  0.7288 -0.1806 -1.1207
   86MOL   O31441284   4.060   7.842   2.202  0.8108 -0.2094  0.4019
   86MOL   C31541285   4.118   7.825   2.323  0.6230 -0.3499  0.1800
   86MOL   C31641286   4.063   7.704   2.396 -0.1575 -0.2594  0.3181
   86MOL   C31741287   3.931   7.715   2.469 -0.0781 -0.4637  0.3725
   86MOL   C31841288   3.941   7.810   2.598  0.1020  0.5111 -0.5899
   86MOL   O31941289   3.977   0.070   2.575  0.0836  0.9426  0.3889
   86MOL   C32041290   3.899   0.175   2.563  0.1977 -0.1792 -0.1606
   86MOL   O32141291   3.772   0.170   2.581  0.2250  0.2144  0.1156
   86MOL   C32241292   3.967   0.305   2.513  0.4727  0.8398 -0.4854
   86MOL   C32341293   3.992   0.405   2.628 -0.3444 -0.0092 -0.4090
   86MOL   C32441294   4.077   0.522   2.581  0.0744 -0.2420 -0.4088
   86MOL   O32541295   4.122   0.541   2.471  0.0118  0.2413 -0.4573
   86MOL   H32641296   4.224   7.805   2.302  0.8333  0.3183  0.5960
   86MOL   H32741297   4.126   0.035   2.390  0.1522 -0.8487  0.8794
   86MOL   H32841298   4.138   7.674   2.469 -1.2888 -0.8205  1.2681
   86MOL   H32941299   4.068   7.612   2.337  2.0582  0.1597 -0.1762
   86MOL   H33041300   3.892   7.614   2.480 -1.0140 -0.0690  0.7554
   86MOL   H33141301   3.855   7.756   2.403  0.2481  1.2757  1.0498
   86MOL   H33241302   3.845   7.812   2.648  0.4790  0.5317  0.1498
   86MOL   H33341303   4.005   7.763   2.673  0.4630 -2.0818 -2.4635
   86MOL   H33441304   3.906   0.350   2.434 -2.3309 -1.7423  0.1353
   86MOL   H33541305   4.058   0.278   2.459  0.8645 -0.2704  0.7179
   86MOL   H33641306   3.899   0.455   2.653  0.8477  2.1714 -0.1967
   86MOL   H33741307   4.030   0.357   2.718 -0.3938  2.1125  0.7627
   86MOL   O33841308   4.094   0.601   2.684  0.2066 -0.4711 -0.0813
   86MOL   C33941309   4.180   0.715   2.666 -0.4789 -0.3221  0.3358
   86MOL   C34041310   4.234   0.743   2.810  0.2290 -0.6647  0.1577
   86MOL   C34141311   4.337   0.654   2.878  0.4908  0.0576  0.3799
   86MOL   C34241312   4.464   0.632   2.793  0.1118 -0.0658 -0.3047
   86MOL   O34341313   4.520   0.764   2.781 -0.3953  0.1719  0.7404
   86MOL   C34441314   4.540   0.821   2.657  0.4379  1.0711  0.1991
   86MOL   O34541315   4.491   0.783   2.552  0.2460  0.0841 -0.0172
   86MOL   C34641316   4.625   0.939   2.671 -0.0107  0.0762 -0.2319
   86MOL   C34741317   4.558   1.039   2.770 -0.3399 -0.5027 -0.1456
   86MOL   C34841318   4.610   1.185   2.750 -0.2658 -0.5841  0.3983
   86MOL   O34941319   4.728   1.205   2.714  0.7469  0.5587 -0.0057
   86MOL   H35041320   4.264   0.680   2.607  0.1360 -1.3914  1.7917
   86MOL   H35141321   4.137   0.801   2.615  1.5628  0.7702  0.4365
   86MOL   H35241322   4.149   0.753   2.877  0.1176 -0.9523  0.0560
   86MOL   H35341323   4.263   0.848   2.806  0.7874 -0.8659 -1.5207
   86MOL   H35441324   4.295   0.558   2.910 -0.1966  1.7571  5.0903
   86MOL   H35541325   4.368   0.695   2.974  1.0419 -0.8126  0.5725
   86MOL   H35641326   4.527   0.566   2.853  1.6173  0.3257 -1.4352
   86MOL   H35741327   4.452   0.579   2.698 -2.3059 -1.6422  0.8198
   86MOL   H35841328   4.638   0.992   2.576 -1.0426 -2.5385 -1.9157
   86MOL   H35941329   4.722   0.898   2.700  0.4871 -0.1879 -2.1336
   86MOL   H36041330   4.449   1.041   2.765 -0.3011 -1.6802 -2.0886
   86MOL   H36141331   4.594   1.015   2.870  0.6308  3.0496  0.4096
   86MOL   O36241332   4.521   1.281   2.798  0.4764  0.0884 -0.4942
   86MOL   C36341333   4.550   1.412   2.785 -0.4281 -0.8313  0.1987
   86MOL   C36441334   4.532   1.476   2.927 -0.3820 -0.1437  0.2549
   86MOL   C36541335   4.383   1.474   2.973  0.3416  0.1454  0.4997
   86MOL   C36641336   4.361   1.555   3.097  0.3942 -0.2018  0.3007
   86MOL   O36741337   4.228   1.547   3.146 -0.3544 -0.2021  0.0704
   86MOL   C36841338   4.139   1.643   3.124  0.1469  0.4763  0.5689
   86MOL   O36941339   4.153   1.747   3.054 -0.3787  0.0002  0.3802
   86MOL   C37041340   4.003   1.620   3.184  0.4942 -0.6235 -0.3857
   86MOL   C37141341   3.893   1.581   3.077 -0.4222 -0.2621  0.3453
   86MOL   C37241342   3.848   1.438   3.085 -0.0241 -0.3376 -0.0204
   86MOL   O37341343   3.728   1.420   3.100 -0.3921  0.1740  0.0986
   86MOL   H37441344   4.656   1.429   2.767 -0.2819 -0.8824  0.9998
   86MOL   H37541345   4.493   1.464   2.708 -0.1849  0.0545  0.6046
   86MOL   H37641346   4.542   1.583   2.911 -1.8312 -0.0504 -0.1676
   86MOL   H37741347   4.603   1.433   2.997  0.6432 -0.5563 -1.0270
   86MOL   H37841348   4.344   1.377   3.003 -2.4788  1.6057  1.7486
   86MOL   H37941349   4.313   1.506   2.896  0.2143  0.5990  0.7999
   86MOL   H38041350   4.431   1.524   3.175 -0.0374 -0.3330  0.6394
   86MOL   H38141351   4.385   1.655   3.060 -1.0581 -0.3546 -1.0798
   86MOL   H38241352   3.983   1.721   3.223  0.4829 -1.1979  1.1359
   86MOL   H38341353   3.999   1.562   3.277  2.5693 -0.3026 -0.0701
   86MOL   H38441354   3.807   1.649   3.076 -1.3339 -1.3929  0.9456
   86MOL   H38541355   3.930   1.593   2.975 -0.8036 -1.9881 -0.0157
   86MOL   O38641356   3.942   1.348   3.066 -0.8386 -0.1350  0.4433
   86MOL   C38741357   3.902   1.211   3.056  0.6973 -0.7394  0.4103
   86MOL   C38841358   4.012   1.125   2.993 -0.4741 -0.2239 -0.3752
   86MOL   C38941359   4.146   1.150   3.072 -0.0331 -0.4952 -0.2833
   86MOL   C39041360   4.269   1.084   2.998 -0.6430  0.5980  0.8335
   86MOL   O39141361   4.378   1.122   3.081 -0.7018  0.1460  0.1796
   86MOL   C39241362   4.471   1.030   3.134  0.2770  0.5276  0.1830
   86MOL   O39341363   4.475   0.911   3.107 -0.5463 -0.0821  0.6059
   86MOL   C39441364   4.568   1.092   3.236  0.3497  0.2203  0.2437
   86MOL   C39541365   4.616   0.979   3.333 -0.1150 -0.4790  0.5750
   86MOL   C39641366   4.528   0.985   3.460 -0.6339 -0.7416 -0.2178
   86MOL   O39741367   4.522   1.081   3.538  0.5174 -0.1280  0.2950
   86MOL   H39841368   3.872   1.165   3.150 -0.1172 -0.5773  0.2337
   86MOL   H39941369   3.816   1.193   2.992  0.7951  0.2913 -0.0193
   86MOL   H40041370   4.026   1.160   2.890 -1.0754 -2.0012 -1.0864
   86MOL   H40141371   3.988   1.018   2.988  1.1720 -0.7606  2.1832
   86MOL   H40241372   4.130   1.118   3.175  0.2896 -0.7204 -0.3004
   86MOL   H40341373   4.177   1.252   3.091 -0.4929 -0.7433  1.8353
   86MOL   H40441374   4.256   0.976   2.996  0.3281  0.4827 -2.7059
   86MOL   H40541375   4.292   1.120   2.898 -0.4917  0.1896  0.7205
   86MOL   H40641376   4.513   1.172   3.285 -0.0686 -0.5053  0.9845
   86MOL   H40741377   4.651   1.145   3.191 -0.3498  1.5888  0.5478
   86MOL   H40841378   4.596   0.880   3.291  0.2957  0.1100 -1.0672
   86MOL   H40941379   4.715   1.005   3.369  0.5562 -0.7130 -1.0658
   86MOL   O41041380   4.467   0.866   3.481 -0.1768  0.4853  0.2335
   86MOL   C41141381   4.394   0.836   3.603 -0.3631  0.6638 -0.1426
   86MOL   C41241382   4.316   0.703   3.568 -0.0688 -0.0701 -0.1190
   86MOL   C41341383   4.203   0.722   3.464 -0.1632 -0.0269  0.4829
   86MOL   C41441384   4.237   0.694   3.319  0.0828  0.2274  0.9672
   86MOL   O41541385   4.124   0.690   3.240 -0.1465  0.5639  0.1318
   86MOL   C41641386   4.110   0.584   3.160 -0.3564 -0.2973 -0.7068
   86MOL   O41741387   4.196   0.503   3.128  0.4491 -0.3447  0.1821
   86MOL   C41841388   3.982   0.586   3.081 -0.0325  0.4053 -0.0501
   86MOL   C41941389   3.903   0.722   3.100 -0.3406 -0.6587  0.4048
   86MOL   C42041390   3.812   0.757   2.977 -0.4965  0.3969  0.7146
   86MOL   O42141391   3.826   0.698   2.869 -0.0922  0.7465 -0.1984
   86MOL   H42241392   4.473   0.823   3.677  0.3200  2.7047 -0.4750
   86MOL   H42341393   4.325   0.918   3.622 -0.0085  1.0184 -0.3774
   86MOL   H42441394   4.275   0.668   3.662  1.3699 -3.2800 -0.6095
   86MOL   H42541395   4.391   0.629   3.539  0.1746 -0.4404  1.4205
   86MOL   H42641396   4.149   0.813   3.490  0.5026  0.1333  1.3157
   86MOL   H42741397   4.133   0.641   3.486  0.0666 -0.3969 -0.1152
   86MOL   H42841398   4.295   0.783   3.293 -1.3954  1.0636  0.4630
   86MOL   H42941399   4.306   0.611   3.309 -0.6200 -0.3584  1.0086
   86MOL   H43041400   3.924   0.493   3.085  0.3559  0.0978 -1.4281
   86MOL   H43141401   4.017   0.594   2.978  1.5445 -0.2135  0.4394
   86MOL   H43241402   3.864   0.720   3.202  1.6744  2.1379  1.2929
   86MOL   H43341403   3.967   0.810   3.093 -1.2242 -0.1173 -1.0434
   86MOL   O43441404   3.723   0.866   3.004  0.1589 -0.1724  0.4092
   86MOL   C43541405   3.654   0.933   2.904 -0.3895  0.3606 -0.5294
   86MOL   C43641406   3.510   0.894   2.906 -0.2798  0.5135 -0.2619
   86MOL   C43741407   3.447   0.940   2.770 -0.9087  0.7303  0.2017
   86MOL   C43841408   3.298   0.919   2.769 -0.0399  0.0705 -0.1178
   86MOL   O43941409   3.262   0.786   2.731 -0.2558  0.8135 -0.0261
   86MOL   C44041410   3.132   0.748   2.720 -0.5042  0.4342 -0.6147
   86MOL   O44141411   3.033   0.822   2.739 -0.0885  0.0617 -0.1499
   86MOL   C44241412   3.120   0.595   2.698 -0.4497 -0.1846  0.2332
   86MOL   C44341413   2.980   0.536   2.712  0.4701  0.0835 -0.3253
   86MOL   C44441414   2.977   0.406   2.791 -0.2845  0.1806 -0.7283
   86MOL   O44541415   2.879   0.379   2.861 -0.2349 -0.8327 -0.1305
   86MOL   H44641416   3.643   1.041   2.920 -1.8036  0.1325  0.1230
   86MOL   H44741417   3.700   0.913   2.808  1.2439  0.9653  0.0987
   86MOL   H44841418   3.453   0.918   2.995 -0.0956 -0.2021  0.0558
   86MOL   H44941419   3.501   0.786   2.916  1.6198  0.2498 -1.1491
   86MOL   H45041420   3.505   0.881   2.699 -0.7744 -1.0738  1.7536
   86MOL   H45141421   3.477   1.044   2.761  2.4506 -0.2153 -0.1796
   86MOL   H45241422   3.252   0.949   2.863  3.1700 -0.1328  1.5851
   86MOL   H45341423   3.272   0.990   2.690  0.2272  1.2541  0.8479
   86MOL   H45441424   3.179   0.532   2.765 -1.3529 -2.5503 -1.1362
   86MOL   H45541425   3.153   0.571   2.597 -2.4228  0.6719 -0.6553
   86MOL   H45641426   2.905   0.606   2.748  1.8174  1.8846 -0.9609
   86MOL   H45741427   2.954   0.513   2.608  1.4046 -0.2285 -0.4990
   86MOL   O45841428   3.087   0.333   2.792  0.1640 -0.2900 -0.2327
   86MOL   C45941429   3.093   0.204   2.857  0.1756 -0.1262  0.1952
   86MOL   C46041430   3.081   0.096   2.747 -0.2567 -0.1692 -0.5613
   86MOL   C46141431   3.130   7.832   2.793  0.2596 -0.5084  0.1573
   86MOL   C46241432   3.119   7.732   2.682 -0.2196  0.3751  0.6613
   86MOL   O46341433   3.226   7.763   2.593 -0.5144  0.0006  0.7800
   86MOL   C46441434   3.303   7.662   2.536  0.0937 -0.3603 -0.8296
   86MOL   O46541435   3.290   7.537   2.559 -0.0592 -0.0599 -0.2474
   86MOL   C46641436   3.417   7.720   2.451  0.0640  0.2392 -0.4433
   86MOL   C46741437   3.514   7.797   2.536  0.4478 -0.3476 -0.5643
   86MOL   C46841438   3.475   0.068   2.545  0.4902 -0.0725  0.1182
   86MOL   O46941439   3.451   0.133   2.443  0.2480 -0.3580 -0.1563
   86MOL   H47041440   3.193   0.190   2.899 -0.5184 -0.9767  1.5794
   86MOL   H47141441   3.012   0.183   2.926 -1.0047  3.0814 -0.0968
   86MOL   H47241442   3.144   0.131   2.665 -0.3244 -1.6498 -1.2636
   86MOL   H47341443   2.975   0.095   2.720 -0.3965  0.2943 -0.0416
   86MOL   H47441444   3.076   7.790   2.878  1.8352 -0.2450  1.3082
   86MOL   H47541445   3.237   7.843   2.809  0.4139  1.4467 -1.9724
   86MOL   H47641446   3.115   7.631   2.723 -1.1888  1.4443  3.3675
   86MOL   H47741447   3.028   7.741   2.621 -0.9493  1.5475  1.8781
   86MOL   H47841448   3.380   7.781   2.368 -1.7554  0.3574  0.4356
   86MOL   H47941449   3.469   7.642   2.395 -1.2476 -0.1850 -1.0853
   86MOL   H48041450   3.502   7.754   2.636 -2.0069 -0.4931 -0.8834
   86MOL   H48141451   3.619   7.785   2.510  0.6616 -0.2340  0.2480
   86MOL   H48241452   3.466   0.110   2.645  2.1809  0.9728 -0.1543
   87MOL     O141453   2.103   5.669   7.795 -0.4687  0.4833  0.0038
   87MOL     C241454   2.149   5.555   7.864  0.0862 -0.3986  0.1959
   87MOL     C341455   2.079   5.543   0.128  0.1915 -0.2064 -0.1336
   87MOL     C441456   1.931   5.577   0.120  0.9863  0.2685  0.7156
   87MOL     C541457   1.869   5.535   0.258 -0.5720 -0.8253  0.0769
   87MOL     O641458   1.731   5.514   0.246  0.1004  0.1022  0.0623
   87MOL     C741459   1.673   5.397   0.289  0.2018  0.9857 -0.1332
   87MOL     O841460   1.732   5.306   0.351 -0.2545  0.0273  0.2795
   87MOL     C941461   1.530   5.375   0.251  0.9502 -0.0712 -0.5336
   87MOL    C1041462   1.445   5.325   0.371  0.1071  0.1311  0.4397
   87MOL    C1141463   1.322   5.241   0.332 -0.2869 -0.2862 -0.2184
   87MOL    O1241464   1.208   5.282   0.348 -0.1917 -0.0623 -0.2946
   87MOL    H1341465   2.136   5.457   7.818 -0.6212 -0.7160  1.0734
   87MOL    H1441466   2.254   5.564   0.017  0.2213 -1.1476 -0.0495
   87MOL    H1541467   2.127   5.609   0.200 -2.5060 -0.4415  1.9746
   87MOL    H1641468   2.088   5.439   0.157  0.2614 -0.3033 -0.5028
   87MOL    H1741469   1.899   5.513   0.038 -1.5549 -1.2786  2.8399
   87MOL    H1841470   1.911   5.682   0.099  1.3695  0.1899 -0.0568
   87MOL    H1941471   1.918   5.438   0.272  0.3856 -0.4813 -0.8262
   87MOL    H2041472   1.908   5.601   0.335  0.3900  2.2724 -2.9289
   87MOL    H2141473   1.530   5.305   0.167 -1.4649 -0.1644 -0.4976
   87MOL    H2241474   1.478   5.467   0.226  1.2102  0.5342  1.1009
   87MOL    H2341475   1.510   5.266   0.435 -1.6818 -2.1224  0.2312
   87MOL    H2441476   1.413   5.407   0.436  1.1533  1.1102 -0.2508
   87MOL    H2541477   2.016   5.645   7.768 -0.2046 -1.7364  1.0085
   87MOL    O2641478   1.362   5.126   0.267 -0.1656  0.0030 -1.3571
   87MOL    C2741479   1.272   5.024   0.239 -0.3566  0.4094  0.2163
   87MOL    C2841480   1.345   4.920   0.154  0.1964 -0.6801 -0.1959
   87MOL    C2941481   1.340   4.956   0.004 -0.3018 -0.2779 -0.5006
   87MOL    C3041482   1.407   4.844   7.796  0.6153 -0.6749 -0.1535
   87MOL    O3141483   1.423   4.875   7.659  1.0326 -0.0153 -0.7376
   87MOL    C3241484   1.543   4.923   7.613 -0.4746  0.8041  0.3586
   87MOL    O3341485   1.637   4.939   7.692 -0.3822 -0.1008  0.0556
   87MOL    C3441486   1.543   4.942   7.458  0.5266  0.2846 -0.5634
   87MOL    C3541487   1.685   4.918   7.396 -0.5378  0.4683  0.4981
   87MOL    C3641488   1.685   4.933   7.246 -0.3530  1.0215  1.0895
   87MOL    O3741489   1.579   4.922   7.182  0.0990 -0.3275 -0.0115
   87MOL    H3841490   1.231   4.981   0.330  1.6582 -1.1408  0.4145
   87MOL    H3941491   1.182   5.059   0.188 -0.6287 -2.1100 -1.1098
   87MOL    H4041492   1.307   4.820   0.171  1.5688 -1.2332 -0.3017
   87MOL    H4141493   1.450   4.926   0.183  0.6099 -0.6142 -1.6698
   87MOL    H4241494   1.400   5.047   0.004 -1.5858  0.5874 -0.2983
   87MOL    H4341495   1.242   4.982   7.837 -1.1403 -1.6234  0.5641
   87MOL    H4441496   1.496   4.811   7.850 -0.2779 -1.4832  0.8674
   87MOL    H4541497   1.339   4.758   7.792 -1.1709  0.7350 -0.5595
   87MOL    H4641498   1.502   5.042   7.450 -1.1074 -0.1657  1.7678
   87MOL    H4741499   1.467   4.882   7.408  2.5426 -1.5485 -1.4960
   87MOL    H4841500   1.767   4.977   7.437  1.9929 -0.3410 -3.0987
   87MOL    H4941501   1.708   4.813   7.418 -0.1172 -0.1269 -2.5152
   87MOL    O5041502   1.801   4.962   7.195  0.5395 -0.0272 -0.0926
   87MOL    C5141503   1.830   4.951   7.053  0.0155  0.1755 -0.1873
   87MOL    C5241504   1.938   5.059   7.019 -1.1338 -0.0312  0.4735
   87MOL    C5341505   1.881   5.201   7.024 -0.5117 -0.4214  0.3503
   87MOL    C5441506   1.798   5.258   7.139  0.3039  0.2530 -0.6724
   87MOL    O5541507   1.902   5.240   7.237 -0.0694 -0.3780 -0.0497
   87MOL    C5641508   1.864   5.240   7.365  0.3629  0.3979 -0.3864
   87MOL    O5741509   1.750   5.265   7.400  0.0256  0.3813 -0.7446
   87MOL    C5841510   1.979   5.202   7.459  0.2020  0.1657  0.4610
   87MOL    C5941511   1.942   5.244   7.604 -0.2096 -0.4847 -0.3437
   87MOL    C6041512   1.948   5.124   7.700  0.0261 -0.2302  0.0101
   87MOL    O6141513   1.961   5.007   7.660  0.3566 -0.1460  0.0939
   87MOL    H6241514   1.870   4.851   7.036  0.5914  0.3528  0.0818
   87MOL    H6341515   1.749   4.977   6.985  0.5224  0.9861 -0.4942
   87MOL    H6441516   1.974   5.060   6.916  0.3450 -1.3763  0.9571
   87MOL    H6541517   2.013   5.050   7.097  0.0187 -3.4336 -0.9530
   87MOL    H6641518   1.811   5.212   6.941 -0.3511  0.1982  0.2964
   87MOL    H6741519   1.964   5.268   7.002 -1.4152  0.0471 -1.7152
   87MOL    H6841520   1.758   5.359   7.138  0.7657  0.4680  0.7477
   87MOL    H6941521   1.712   5.196   7.163  0.1884 -0.2988 -2.4498
   87MOL    H7041522   2.064   5.258   7.421 -2.0168  3.5556  0.2894
   87MOL    H7141523   2.009   5.097   7.450  0.3495  0.1594  0.9921
   87MOL    H7241524   2.009   5.323   7.637 -0.7689  0.9043 -2.4344
   87MOL    H7341525   1.839   5.280   7.606 -0.0011  0.0125  2.1380
   87MOL    O7441526   1.943   5.157   7.831  0.0341 -0.0897 -0.0165
   87MOL    C7541527   1.938   5.049   0.042 -0.6914  0.0352 -0.7595
   87MOL    C7641528   1.905   5.104   0.183 -0.0912 -0.4623  0.0001
   87MOL    C7741529   1.973   5.007   0.285  0.1307 -0.2164  0.4135
   87MOL    C7841530   1.964   5.070   0.424 -0.3982  0.1714  0.8281
   87MOL    O7941531   2.054   5.173   0.421  0.0065  0.2204 -0.0076
   87MOL    C8041532   2.036   5.280   0.509 -0.0753  0.4832  0.3927
   87MOL    O8141533   1.949   5.294   0.596  0.1226  0.3006 -0.3441
   87MOL    C8241534   2.147   5.377   0.501 -0.6206  0.2008 -0.3412
   87MOL    C8341535   2.129   5.510   0.578 -0.5266  0.6187 -0.3012
   87MOL    C8441536   2.199   5.628   0.507 -0.0686  0.8954 -0.2411
   87MOL    O8541537   2.138   5.728   0.476  0.6347  0.0529  0.0329
   87MOL    H8641538   1.852   4.988   0.014  0.1366 -1.9671  0.8735
   87MOL    H8741539   2.035   4.999   0.038 -1.1380 -0.7357 -2.1858
   87MOL    H8841540   1.796   5.103   0.192 -0.2899  0.7177 -1.9772
   87MOL    H8941541   1.927   5.209   0.200 -1.8320 -0.1405  0.3913
   87MOL    H9041542   2.079   5.000   0.261  0.7483  1.5556  2.4726
   87MOL    H9141543   1.931   4.907   0.270 -3.9840  1.4624  0.1089
   87MOL    H9241544   1.862   5.096   0.453 -0.2692  1.1900  0.4180
   87MOL    H9341545   1.992   5.010   0.510 -0.7837  0.8054  1.4056
   87MOL    H9441546   2.152   5.390   0.393 -0.3890 -1.4303 -0.5453
   87MOL    H9541547   2.231   5.318   0.539 -0.5277 -1.1928 -2.6070
   87MOL    H9641548   2.025   5.522   0.610 -0.2706  3.1823 -0.3765
   87MOL    H9741549   2.178   5.501   0.675 -0.5920 -0.6321 -0.3661
   87MOL    O9841550   2.331   5.605   0.491  0.2760 -1.0644 -0.2487
   87MOL    C9941551   2.411   5.709   0.438 -0.1837 -0.0180  0.5937
   87MOL   C10041552   2.421   5.702   0.284 -0.1343  0.2673  0.4106
   87MOL   C10141553   2.513   5.811   0.224  0.0911  0.2209 -0.0366
   87MOL   C10241554   2.663   5.773   0.238 -0.0648 -0.2513 -0.5117
   87MOL   O10341555   2.756   5.886   0.227 -0.3207  0.0674 -0.3783
   87MOL   C10441556   2.876   5.863   0.163 -0.9626 -0.2292 -0.1133
   87MOL   O10541557   2.922   5.756   0.116  1.0037  0.0424 -0.5830
   87MOL   C10641558   2.968   5.989   0.161 -0.0607  0.8313 -0.4173
   87MOL   C10741559   3.006   6.038   0.303  0.6737  0.2147 -0.1969
   87MOL   C10841560   2.920   6.141   0.368  0.3188  0.7717  0.5366
   87MOL   O10941561   2.818   6.186   0.313  0.3586 -0.1016 -0.0861
   87MOL   H11041562   2.375   5.809   0.462 -1.2915  0.0223 -1.1421
   87MOL   H11141563   2.510   5.698   0.483 -0.4724 -0.6937  1.0602
   87MOL   H11241564   2.319   5.701   0.246 -0.5641 -1.0512  1.5654
   87MOL   H11341565   2.469   5.609   0.256 -1.8807  0.0217 -1.8447
   87MOL   H11441566   2.496   5.906   0.275  1.2153 -0.6850  2.0825
   87MOL   H11541567   2.484   5.829   0.120  0.7811 -1.1761 -0.4774
   87MOL   H11641568   2.664   5.752   0.345 -0.2107 -1.3034 -0.7079
   87MOL   H11741569   2.696   5.682   0.187 -0.3319 -0.1753 -0.8158
   87MOL   H11841570   2.908   6.068   0.115 -0.3883  0.4303 -0.6883
   87MOL   H11941571   3.053   5.971   0.095 -0.1231 -1.1438  0.0108
   87MOL   H12041572   3.009   5.949   0.366 -0.4276  0.9201  0.8727
   87MOL   H12141573   3.107   6.077   0.312  0.3568  0.6793  1.5189
   87MOL   O12241574   2.970   6.184   0.482  0.7400  0.0141 -0.0972
   87MOL   C12341575   2.941   6.307   0.538  0.7422  0.0459  0.2522
   87MOL   C12441576   2.942   6.306   0.694 -0.3174 -0.0023  0.5713
   87MOL   C12541577   2.960   6.443   0.753  0.7878 -0.2281  0.6607
   87MOL   C12641578   2.843   6.537   0.721  0.3396  1.0393 -0.7124
   87MOL   O12741579   2.714   6.485   0.761 -0.1046  0.0656 -0.3959
   87MOL   C12841580   2.672   6.515   0.888  0.1878 -0.7403  1.0821
   87MOL   O12941581   2.736   6.539   0.991  0.0871 -0.2340  0.9762
   87MOL   C13041582   2.524   6.502   0.890  0.4184  0.4021  0.4655
   87MOL   C13141583   2.476   6.348   0.899  0.0923  0.6480  0.1833
   87MOL   C13241584   2.387   6.305   1.020 -1.0343 -0.7523 -0.3724
   87MOL   O13341585   2.381   6.188   1.053  0.4144  0.0085  0.8857
   87MOL   H13441586   3.007   6.378   0.487  1.5547 -1.3222 -0.6172
   87MOL   H13541587   2.840   6.339   0.512  1.3638  0.0989 -2.2713
   87MOL   H13641588   3.020   6.234   0.719  0.3526  0.4799 -0.1103
   87MOL   H13741589   2.855   6.267   0.746  1.1394 -3.1965  0.7495
   87MOL   H13841590   3.049   6.485   0.706  0.3858 -1.6374 -1.4618
   87MOL   H13941591   2.967   6.435   0.861 -2.4127 -0.9070  0.8597
   87MOL   H14041592   2.865   6.628   0.776  1.0175 -0.4251  1.5288
   87MOL   H14141593   2.842   6.567   0.617  1.6660 -2.3039 -1.7652
   87MOL   H14241594   2.492   6.556   0.801 -1.0978 -1.5869 -0.2454
   87MOL   H14341595   2.476   6.557   0.970  2.6158  3.1939 -0.0742
   87MOL   H14441596   2.404   6.334   0.819  2.2929 -3.4201 -1.2357
   87MOL   H14541597   2.558   6.279   0.878  1.1677  2.2624 -1.0593
   87MOL   O14641598   2.322   6.403   1.076  0.0916 -0.6548  0.2618
   87MOL   C14741599   2.222   6.377   1.175 -0.6038  0.4011  0.7418
   87MOL   C14841600   2.168   6.513   1.212  0.4665  0.2973  0.6750
   87MOL   C14941601   2.085   6.516   1.338  0.4374  0.1989  0.6859
   87MOL   C15041602   2.031   6.659   1.353  0.7476 -1.0108  0.2077
   87MOL   O15141603   1.956   6.676   1.470  0.4631 -0.3335  0.0360
   87MOL   C15241604   1.912   6.801   1.499 -0.2744  0.3798  0.8881
   87MOL   O15341605   1.932   6.901   1.428 -0.0337  0.0450  0.4901
   87MOL   C15441606   1.842   6.811   1.635  0.1127  0.4101  0.6616
   87MOL   C15541607   1.699   6.739   1.640 -0.2163  0.7444  0.4123
   87MOL   C15641608   1.580   6.837   1.630 -0.3572  0.2450 -0.7992
   87MOL   O15741609   1.590   6.963   1.626 -0.1556 -0.4009 -0.2749
   87MOL   H15841610   2.143   6.308   1.143  1.3936 -1.5625 -0.1076
   87MOL   H15941611   2.275   6.337   1.262 -0.3509 -1.2365 -0.1316
   87MOL   H16041612   2.099   6.540   1.133  0.2831 -0.1658  0.6755
   87MOL   H16141613   2.240   6.594   1.216 -1.4371  1.9707  1.9229
   87MOL   H16241614   2.142   6.492   1.427  2.6027 -1.7333 -1.1601
   87MOL   H16341615   1.995   6.455   1.329  1.2026 -0.6214 -1.8632
   87MOL   H16441616   2.117   6.724   1.367  0.3352 -0.4614  0.2249
   87MOL   H16541617   1.978   6.681   1.260  3.0205  2.5418 -0.3391
   87MOL   H16641618   1.819   6.913   1.664 -2.0355  0.0455  0.2820
   87MOL   H16741619   1.913   6.777   1.711  0.3483 -1.3759 -0.3183
   87MOL   H16841620   1.701   6.661   1.564  4.3499 -1.0020  2.1703
   87MOL   H16941621   1.686   6.685   1.733 -1.1594  0.3982  0.0874
   87MOL   O17041622   1.462   6.761   1.616 -0.2290  0.1198  0.6744
   87MOL   C17141623   1.339   6.830   1.610  0.5675 -0.4363 -1.1918
   87MOL   C17241624   1.257   6.759   1.498  0.1212 -0.4850  0.2079
   87MOL   C17341625   1.125   6.838   1.460  0.6573  0.2061  0.7689
   87MOL   C17441626   1.035   6.760   1.367  0.5259  0.1591 -0.1624
   87MOL   O17541627   0.912   6.828   1.334  0.0074  0.1104  0.3247
   87MOL   C17641628   0.801   6.799   1.393  0.1696  0.0208  0.2905
   87MOL   O17741629   0.790   6.726   1.494  1.0829 -0.1521  0.7276
   87MOL   C17841630   0.676   6.854   1.322  0.1413  0.0281  0.0887
   87MOL   C17941631   0.628   6.989   1.364 -0.5793  0.3661  0.7109
   87MOL   C18041632   0.480   6.978   1.401 -0.1640  0.0784  0.0997
   87MOL   O18141633   0.446   6.909   1.497 -0.6323  0.2460 -0.2178
   87MOL   H18241634   1.288   6.831   1.706  1.4424 -1.6535 -0.6981
   87MOL   H18341635   1.351   6.935   1.582 -2.8844  0.4623  0.4456
   87MOL   H18441636   1.231   6.659   1.530 -0.4882 -0.1057  0.9137
   87MOL   H18541637   1.322   6.743   1.411 -0.2007  0.6666 -0.2561
   87MOL   H18641638   1.163   6.932   1.421  1.9469 -0.8761 -0.6618
   87MOL   H18741639   1.065   6.850   1.550 -0.3322  0.0450  0.1326
   87MOL   H18841640   1.092   6.732   1.279  0.6001  2.0671 -0.7266
   87MOL   H18941641   1.003   6.665   1.410 -0.0319  0.4055 -0.0277
   87MOL   H19041642   0.613   6.767   1.338  0.1288  0.0563  0.1958
   87MOL   H19141643   0.701   6.851   1.216  1.8680 -1.1681  0.4926
   87MOL   H19241644   0.674   7.004   1.462 -0.4725 -0.9290  0.8741
   87MOL   H19341645   0.654   7.072   1.299 -0.1494  1.1138  1.8158
   87MOL   O19441646   0.407   7.064   1.338 -0.0496  0.1999  0.7407
   87MOL   C19541647   0.270   7.091   1.368  0.0472 -0.1523 -0.1839
   87MOL   C19641648   0.259   7.233   1.416  0.1181 -0.4478 -0.3895
   87MOL   C19741649   0.117   7.291   1.443  0.1936  0.8328 -0.3520
   87MOL   C19841650   0.119   7.423   1.522  0.7541 -0.6884  0.0186
   87MOL   O19941651   0.211   7.517   1.476  0.1080 -0.4591  0.5065
   87MOL   C20041652   0.184   7.601   1.383 -0.0019  0.1983  0.1371
   87MOL   O20141653   0.085   7.607   1.308 -0.0798 -0.2745 -0.1196
   87MOL   C20241654   0.298   7.706   1.372  0.6462  0.1739  0.4973
   87MOL   C20341655   0.315   7.763   1.226  0.7850  0.1513 -0.2468
   87MOL   C20441656   0.351   7.652   1.131 -0.0917  0.3397  0.0509
   87MOL   O20541657   0.273   7.622   1.039 -0.3911 -0.3404 -0.3467
   87MOL   H20641658   0.214   7.067   1.278  0.3135 -0.4438 -0.2730
   87MOL   H20741659   0.230   7.022   1.443 -2.3938  0.0073 -1.2829
   87MOL   H20841660   0.306   7.298   1.342 -1.7900  1.8401  0.3268
   87MOL   H20941661   0.308   7.233   1.514 -0.8888  2.7978  0.1757
   87MOL   H21041662   0.053   7.218   1.492  0.3470 -0.9156 -2.6543
   87MOL   H21141663   0.077   7.295   1.342 -1.0251  0.0333  0.0967
   87MOL   H21241664   0.016   7.456   1.535  0.8458 -0.2759 -0.2836
   87MOL   H21341665   0.142   7.394   1.625 -0.7229  0.6434  0.7401
   87MOL   H21441666   0.390   7.652   1.395 -0.7936 -1.8186  1.8595
   87MOL   H21541667   0.276   7.776   1.453 -1.8803 -0.4448  0.4142
   87MOL   H21641668   0.228   7.810   1.180  0.0919  1.7315  2.6364
   87MOL   H21741669   0.386   7.846   1.225  1.1217 -0.0865 -3.3967
   87MOL   O21841670   0.469   7.601   1.159 -0.0013  0.1767 -0.8076
   87MOL   C21941671   0.531   7.522   1.070 -0.0064  0.5539  0.1225
   87MOL   C22041672   0.490   7.372   1.090  0.1986 -0.0772 -0.0760
   87MOL   C22141673   0.564   7.268   1.004  0.2558  0.6251  0.6439
   87MOL   C22241674   0.509   7.123   1.011 -0.1979 -0.6348  0.5213
   87MOL   O22341675   0.566   7.051   0.908 -0.1623  0.1859  0.2681
   87MOL   C22441676   0.686   6.999   0.924 -0.7085  1.1759  0.0307
   87MOL   O22541677   0.754   7.017   1.025 -0.0332  0.1450 -0.7534
   87MOL   C22641678   0.728   6.908   0.803  0.2166 -0.9221  0.0464
   87MOL   C22741679   0.799   6.778   0.852  0.2289 -0.3020  0.0372
   87MOL   C22841680   0.897   6.727   0.756 -0.5974  0.1260 -0.7454
   87MOL   O22941681   1.012   6.765   0.768  0.7928 -0.1745 -0.4774
   87MOL   H23041682   0.516   7.570   0.974  1.3540 -5.0435 -3.0893
   87MOL   H23141683   0.640   7.526   1.079  0.2301 -1.1195 -1.8578
   87MOL   H23241684   0.384   7.367   1.067  0.2798 -1.4316 -0.2254
   87MOL   H23341685   0.489   7.336   1.193  0.2515  2.9034  1.0120
   87MOL   H23441686   0.671   7.260   1.020  0.3859  1.0324 -0.0003
   87MOL   H23541687   0.558   7.304   0.901 -0.6035 -0.3821  0.3282
   87MOL   H23641688   0.492   7.078   1.109 -0.2891  1.2284  1.3931
   87MOL   H23741689   0.404   7.132   0.983  0.0473 -1.9799 -0.8736
   87MOL   H23841690   0.791   6.966   0.736 -1.1871 -0.3809 -0.8226
   87MOL   H23941691   0.632   6.884   0.757  0.2101  3.3574 -2.4289
   87MOL   H24041692   0.853   6.794   0.945 -0.7902  1.0667  0.4029
   87MOL   H24141693   0.723   6.704   0.878  0.2546 -0.0334  0.8978
   87MOL   O24241694   0.838   6.658   0.656 -0.0027  0.0541  0.5961
   87MOL   C24341695   0.917   6.635   0.541  0.0288 -0.5356 -0.5726
   87MOL   C24441696   0.866   6.525   0.454 -0.1563  0.5115  0.3861
   87MOL   C24541697   0.752   6.566   0.375 -0.1718 -0.2637  0.2580
   87MOL   C24641698   0.688   6.471   0.270  0.0757  0.3774 -0.3288
   87MOL   O24741699   0.634   6.357   0.337  0.2958  0.0239 -0.0110
   87MOL   C24841700   0.509   6.369   0.402  0.6868 -0.3504 -0.3515
   87MOL   O24941701   0.435   6.464   0.386 -0.3527  0.4153  0.4969
   87MOL   C25041702   0.476   6.247   0.485 -0.0306  0.4097 -0.1088
   87MOL   C25141703   0.451   6.130   0.393 -0.3094  0.1875 -0.3389
   87MOL   C25241704   0.375   6.028   0.475  0.1284  0.2028  0.2472
   87MOL   O25341705   0.292   6.066   0.556 -0.0368 -0.1834  0.0093
   87MOL   H25441706   0.923   6.731   0.490 -0.9078 -0.0770  0.1646
   87MOL   H25541707   1.014   6.611   0.584 -0.6902  2.3040  2.8219
   87MOL   H25641708   0.832   6.442   0.516 -0.2586  1.9521  2.3233
   87MOL   H25741709   0.950   6.494   0.391 -0.2435  1.5620 -0.2518
   87MOL   H25841710   0.793   6.650   0.319  0.3990  0.5735  1.8798
   87MOL   H25941711   0.678   6.601   0.447  1.1067 -0.1729  1.5494
   87MOL   H26041712   0.609   6.522   0.214 -0.6121 -0.5576 -0.2129
   87MOL   H26141713   0.768   6.445   0.201  0.7866  0.2218  0.5446
   87MOL   H26241714   0.394   6.285   0.546 -0.4731 -1.2973  0.3866
   87MOL   H26341715   0.563   6.227   0.548 -0.2291 -0.2175 -0.0341
   87MOL   H26441716   0.388   6.152   0.307 -1.5536 -0.9751  0.2563
   87MOL   H26541717   0.544   6.087   0.355  1.6034  0.1721  4.0500
   87MOL   O26641718   0.406   5.903   0.449  0.0888 -0.2230 -0.3628
   87MOL   C26741719   0.329   5.806   0.519  0.7343  0.4890 -0.2142
   87MOL   C26841720   0.191   5.785   0.452  0.1821  0.3249  0.0856
   87MOL   C26941721   0.124   5.648   0.493 -0.3144  0.2062  0.3083
   87MOL   C27041722   7.857   5.644   0.441  0.4197  0.7913  0.2879
   87MOL   O27141723   7.787   5.536   0.508 -0.0425  0.4593  0.2214
   87MOL   C27241724   7.758   5.416   0.451 -0.1857 -0.0180  0.4100
   87MOL   O27341725   7.780   5.380   0.332 -0.3968 -0.4977 -0.0362
   87MOL   C27441726   7.696   5.320   0.549  0.4355  0.4835 -0.1877
   87MOL   C27541727   7.686   5.164   0.502 -0.2405 -0.2717 -0.5587
   87MOL   C27641728   7.753   5.063   0.596  0.6358  0.6504 -0.1264
   87MOL   O27741729   7.845   5.098   0.666 -0.1673  0.1204 -0.1239
   87MOL   H27841730   0.378   5.711   0.500 -0.3741  0.1890 -1.7587
   87MOL   H27941731   0.304   5.824   0.623 -1.0896 -1.1850 -0.3198
   87MOL   H28041732   0.209   5.778   0.345 -1.8171  3.1179 -0.4899
   87MOL   H28141733   0.122   5.869   0.458 -1.9328 -1.2914 -0.7239
   87MOL   H28241734   0.123   5.658   0.602 -0.0162 -1.9623  0.5366
   87MOL   H28341735   0.182   5.557   0.476 -1.2115  0.0893 -2.3888
   87MOL   H28441736   7.801   5.736   0.462  0.7215  1.0624 -0.1047
   87MOL   H28541737   7.839   5.643   0.333 -0.2510  0.4894  0.4005
   87MOL   H28641738   7.590   5.342   0.557  0.4122  0.2450  0.1793
   87MOL   H28741739   7.738   5.318   0.650 -1.8052  2.9456  0.8614
   87MOL   H28841740   7.590   5.124   0.469 -0.9541  1.5245 -0.7628
   87MOL   H28941741   7.749   5.148   0.414 -1.2036 -1.1623 -1.0947
   87MOL   O29041742   7.688   4.943   0.572  0.6530  0.3231  0.1099
   87MOL   C29141743   7.746   4.824   0.632 -0.4082 -0.2757 -0.3692
   87MOL   C29241744   7.845   4.753   0.540  1.1577  0.0148 -0.7674
   87MOL   C29341745   7.774   4.685   0.421 -0.0911 -0.0155 -0.0831
   87MOL   C29441746   0.005   4.644   0.313 -0.2305  0.7229 -0.3176
   87MOL   O29541747   0.094   4.536   0.360  0.4439 -0.0995  0.1079
   87MOL   C29641748   0.060   4.407   0.360  0.5992 -0.0632  0.9722
   87MOL   O29741749   7.825   4.362   0.322 -0.1298  0.3385 -0.3110
   87MOL   C29841750   0.166   4.306   0.403 -0.9897  0.1792  0.6696
   87MOL   C29941751   0.136   4.254   0.545 -0.0959 -0.0449 -0.1235
   87MOL   C30041752   0.223   4.322   0.648  0.4141  0.3953 -0.1694
   87MOL   O30141753   0.211   4.444   0.663 -0.2727 -0.3400 -0.3120
   87MOL   H30241754   7.788   4.848   0.729  0.1032  1.7272 -1.0557
   87MOL   H30341755   7.667   4.754   0.661 -1.4513  0.3065 -1.7229
   87MOL   H30441756   0.022   4.671   0.590  0.1848 -0.0943  0.0826
   87MOL   H30541757   0.058   4.808   0.504  1.8517  0.7845  1.9749
   87MOL   H30641758   7.696   4.749   0.379 -1.4492 -0.2933  1.9446
   87MOL   H30741759   7.729   4.596   0.466 -0.6066  1.4143  2.2737
   87MOL   H30841760   7.828   4.610   0.223  0.4200 -0.5449 -0.2300
   87MOL   H30941761   0.075   4.725   0.296 -0.0217  0.5858 -0.1136
   87MOL   H31041762   0.264   4.353   0.391 -1.3630  0.2138 -2.5944
   87MOL   H31141763   0.174   4.215   0.343  1.5993  1.0118 -0.3124
   87MOL   H31241764   0.029   4.267   0.563 -0.2096  1.0123 -1.4651
   87MOL   H31341765   0.149   4.146   0.547  0.9554  0.0556 -0.9846
   87MOL   O31441766   0.297   4.237   0.719 -0.5385  0.0355  0.2460
   87MOL   C31541767   0.401   4.287   0.800  0.4585  0.3339  0.3889
   87MOL   C31641768   0.420   4.174   0.908 -0.3094  0.0951 -0.3200
   87MOL   C31741769   0.528   4.212   1.016  0.0492  0.6205  0.8676
   87MOL   C31841770   0.476   4.282   1.135 -0.5950  0.0595  0.1323
   87MOL   O31941771   0.483   4.422   1.126  0.3134 -0.3586  0.7423
   87MOL   C32041772   0.370   4.488   1.116 -0.4883 -0.4908  0.1141
   87MOL   O32141773   0.257   4.446   1.128  0.7322 -0.6809  0.1399
   87MOL   C32241774   0.403   4.635   1.099  0.7420 -0.1935 -0.1135
   87MOL   C32341775   0.504   4.671   1.209 -0.2268 -0.0790 -0.5411
   87MOL   C32441776   0.528   4.821   1.211 -0.5091 -1.0427  0.1792
   87MOL   O32541777   0.437   4.900   1.189 -0.4624  0.7397 -0.1271
   87MOL   H32641778   0.494   4.308   0.747  0.7756 -1.1078  0.3343
   87MOL   H32741779   0.385   4.380   0.854 -0.9163  0.2067  0.2047
   87MOL   H32841780   0.438   4.075   0.868  1.9407  1.2105 -2.1906
   87MOL   H32941781   0.327   4.168   0.965 -0.7840 -0.1124 -1.0992
   87MOL   H33041782   0.625   4.253   0.986  0.6000 -1.1964  0.0845
   87MOL   H33141783   0.553   4.116   1.062  0.4563  0.3123  0.0031
   87MOL   H33241784   0.387   4.230   1.170 -1.4352 -0.0321 -2.0528
   87MOL   H33341785   0.542   4.259   1.218  1.4236  0.5591 -1.2907
   87MOL   H33441786   0.301   4.671   1.113 -0.5674 -3.7871  0.1666
   87MOL   H33541787   0.449   4.648   1.001  1.0073 -0.3757 -0.0113
   87MOL   H33641788   0.466   4.627   1.302  3.0253 -1.5613  0.1586
   87MOL   H33741789   0.601   4.625   1.193 -0.8254 -1.0753 -1.3687
   87MOL   O33841790   0.641   4.863   1.239 -0.4532 -0.5161  0.2168
   87MOL   C33941791   0.668   5.000   1.247 -0.1989 -0.1337 -0.1584
   87MOL   C34041792   0.721   5.055   1.110 -0.1774 -0.4741  0.4598
   87MOL   C34141793   0.840   4.982   1.058 -0.0605  0.7235  0.1097
   87MOL   C34241794   0.893   5.037   0.922 -0.2111 -0.0108 -0.0457
   87MOL   O34341795   0.786   5.025   0.824 -0.7796  0.4260  0.2097
   87MOL   C34441796   0.782   4.925   0.747  0.3418 -0.4035  0.0549
   87MOL   O34541797   0.861   4.831   0.738  0.2129  0.5783  0.2879
   87MOL   C34641798   0.662   4.941   0.651  0.3731 -0.2478  0.4968
   87MOL   C34741799   0.522   4.927   0.707 -0.0769  0.6777 -0.0048
   87MOL   C34841800   0.466   4.787   0.673 -0.4921 -0.6637 -0.1544
   87MOL   O34941801   0.432   4.710   0.762 -0.0878 -0.9510 -0.2264
   87MOL   H35041802   0.580   5.061   1.267  2.3447  2.9896  1.9504
   87MOL   H35141803   0.742   5.018   1.324  0.9324 -1.2082 -0.9802
   87MOL   H35241804   0.741   5.162   1.121 -0.5549 -0.2551 -0.9746
   87MOL   H35341805   0.643   5.046   1.035 -0.0019  0.2534  0.1847
   87MOL   H35441806   0.820   4.877   1.041  0.0840  1.1868 -3.3810
   87MOL   H35541807   0.916   4.995   1.135  1.8061 -0.2392 -1.5323
   87MOL   H35641808   0.895   5.146   0.920 -0.9609 -0.0131 -2.4230
   87MOL   H35741809   0.985   4.992   0.885  0.5688  1.7440 -0.2972
   87MOL   H35841810   0.684   4.869   0.571  2.3806 -3.0995  3.5018
   87MOL   H35941811   0.681   5.044   0.620  0.1648 -0.2790  0.2629
   87MOL   H36041812   0.530   4.938   0.815  0.8954 -0.3864  0.0425
   87MOL   H36141813   0.459   5.007   0.668  0.7008  0.3939 -1.8888
   87MOL   O36241814   0.452   4.763   0.547  1.1044 -0.4215 -0.0324
   87MOL   C36341815   0.405   4.637   0.493 -0.2844 -0.3737  0.5052
   87MOL   C36441816   0.497   4.519   0.522  0.6901  0.1886 -0.0842
   87MOL   C36541817   0.629   4.538   0.450  0.2325 -0.2249  0.2042
   87MOL   C36641818   0.622   4.576   0.297 -0.2211 -0.1800  0.5814
   87MOL   O36741819   0.568   4.474   0.211 -0.7316 -0.3100  0.0332
   87MOL   C36841820   0.649   4.377   0.170 -0.3448  0.0550  0.9477
   87MOL   O36941821   0.773   4.371   0.183  0.5376 -0.4570  0.5258
   87MOL   C37041822   0.570   4.264   0.100 -0.3001  0.6428  0.1160
   87MOL   C37141823   0.498   4.321   7.856  0.0045 -0.3612  0.4188
   87MOL   C37241824   0.351   4.350   7.868  0.0353 -0.2167  0.2424
   87MOL   O37341825   0.281   4.267   0.055  0.3743 -0.2726  0.4751
   87MOL   H37441826   0.308   4.596   0.523 -0.5130 -0.7067 -0.6751
   87MOL   H37541827   0.389   4.651   0.387 -2.9921 -1.4781  0.7261
   87MOL   H37641828   0.452   4.422   0.501 -0.5893  0.2280  2.2348
   87MOL   H37741829   0.516   4.502   0.628 -1.8981 -0.5598  0.2897
   87MOL   H37841830   0.685   4.447   0.469 -0.0804 -0.3006  0.7580
   87MOL   H37941831   0.690   4.616   0.497  1.1553 -1.0451  0.3814
   87MOL   H38041832   0.563   4.666   0.281 -1.9385 -1.3696  0.0874
   87MOL   H38141833   0.718   4.601   0.251  0.3166  0.6386  2.1165
   87MOL   H38241834   0.503   4.210   0.168 -2.1144 -0.0213 -2.1084
   87MOL   H38341835   0.637   4.187   0.062  0.6240  0.3201  2.3168
   87MOL   H38441836   0.539   4.408   7.805  1.8136 -0.5794  1.4415
   87MOL   H38541837   0.492   4.239   7.783  0.6943 -1.9421  2.1006
   87MOL   O38641838   0.312   4.457   7.799  0.1830  0.1706  0.6150
   87MOL   C38741839   0.178   4.493   7.785  0.2075  0.5534  0.4186
   87MOL   C38841840   0.156   4.645   7.797 -0.5005  0.2315 -0.7239
   87MOL   C38941841   0.020   4.703   7.763 -0.8674 -0.3568  0.2353
   87MOL   C39041842   0.033   4.847   7.705 -0.0608  0.3167 -0.0335
   87MOL   O39141843   0.082   4.851   7.573 -0.3102 -0.3416  0.3643
   87MOL   C39241844   0.203   4.920   7.546  0.4897  0.7026  0.1357
   87MOL   O39341845   0.264   4.989   7.625 -0.1084 -0.0155  0.0684
   87MOL   C39441846   0.247   4.900   7.406 -0.0091 -0.4303 -0.2704
   87MOL   C39541847   0.369   4.984   7.353  0.0336 -0.2143  0.6910
   87MOL   C39641848   0.484   4.893   7.337 -0.4269  1.4342 -0.9113
   87MOL   O39741849   0.515   4.851   7.230 -1.0278 -0.4090  0.4529
   87MOL   H39841850   0.153   4.451   7.688  2.6181 -1.3084  0.5588
   87MOL   H39941851   0.115   4.449   7.863 -0.3648 -0.7552 -0.7715
   87MOL   H40041852   0.232   4.692   7.735 -0.3361  1.6679  0.5260
   87MOL   H40141853   0.183   4.676   0.024 -0.2665 -1.2438 -0.3260
   87MOL   H40241854   7.839   4.710   7.857 -0.0203 -1.5046  0.8292
   87MOL   H40341855   7.842   4.650   7.684  2.4454 -0.6999 -1.8172
   87MOL   H40441856   7.809   4.894   7.696  0.6296  1.4520 -1.9713
   87MOL   H40541857   0.089   4.910   7.774  0.2396 -0.9497  0.8989
   87MOL   H40641858   0.161   4.926   7.344  0.1476  0.6368 -0.0479
   87MOL   H40741859   0.258   4.792   7.399 -3.2522 -0.8254 -0.2194
   87MOL   H40841860   0.349   5.013   7.250  1.3152  1.3088  0.8472
   87MOL   H40941861   0.382   5.087   7.386 -1.5217  0.0843  0.4185
   87MOL   O41041862   0.529   4.860   7.452 -0.0196 -0.5171 -0.3552
   87MOL   C41141863   0.644   4.777   7.465 -0.4470 -0.2201 -0.1510
   87MOL   C41241864   0.663   4.745   7.613  0.2055 -0.3307  0.6734
   87MOL   C41341865   0.540   4.692   7.680 -0.6004 -0.4069  0.3885
   87MOL   C41441866   0.561   4.686   7.829  0.2286 -0.0741  0.0509
   87MOL   O41541867   0.584   4.819   0.007  0.1904 -0.2456  0.6174
   87MOL   C41641868   0.480   4.884   0.051 -0.6680 -0.0537  0.6437
   87MOL   O41741869   0.365   4.849   0.062 -0.5059  0.3838  0.3559
   87MOL   C41841870   0.522   5.016   0.114  0.1793  0.6454 -0.2055
   87MOL   C41941871   0.605   4.994   0.246 -0.6364 -0.7557  0.0828
   87MOL   C42041872   0.721   5.089   0.279  0.1276 -0.3047  0.2069
   87MOL   O42141873   0.713   5.143   0.394 -0.0048  0.1314  0.2971
   87MOL   H42241874   0.636   4.688   7.403  0.2223 -3.1987  3.8041
   87MOL   H42341875   0.727   4.836   7.426 -0.8015  0.4019  0.0276
   87MOL   H42441876   0.687   4.847   7.642  1.7252 -0.8512  1.2350
   87MOL   H42541877   0.750   4.682   7.630 -1.3735 -2.9869 -0.5933
   87MOL   H42641878   0.520   4.593   7.636 -0.4403 -0.3402  0.1649
   87MOL   H42741879   0.458   4.760   7.659 -1.0391 -0.5339  1.6405
   87MOL   H42841880   0.475   4.638   0.002 -1.4044  1.7691 -0.9724
   87MOL   H42941881   0.643   4.623   7.863 -1.3971 -3.2958 -1.6829
   87MOL   H43041882   0.443   5.092   0.118  1.1544  1.7293 -1.1633
   87MOL   H43141883   0.589   5.060   0.040 -0.5005 -0.7488 -1.6715
   87MOL   H43241884   0.535   4.986   0.329  0.5143 -0.5020  1.0797
   87MOL   H43341885   0.653   4.896   0.245 -0.5628 -0.7503 -2.7674
   87MOL   O43441886   0.818   5.105   0.190 -0.0665  0.2609  0.3429
   87MOL   C43541887   0.920   5.196   0.228  1.1967  0.4300  0.3039
   87MOL   C43641888   0.990   5.253   0.104 -0.7031  0.4632  0.6961
   87MOL   C43741889   0.897   5.332   0.016 -0.3550  0.1278 -0.5477
   87MOL   C43841890   0.974   5.389   7.779  0.1170 -0.0086  0.1992
   87MOL   O43941891   0.889   5.473   7.709 -0.1509  0.0922 -0.7261
   87MOL   C44041892   0.924   5.507   7.588  0.1028  0.3442 -0.0668
   87MOL   O44141893   1.025   5.471   7.531 -0.3060 -0.1573  0.7575
   87MOL   C44241894   0.818   5.592   7.518  0.2437 -0.4071 -0.4623
   87MOL   C44341895   0.779   5.715   7.602  0.3258 -0.7351  0.0884
   87MOL   C44441896   0.756   5.838   7.509  0.6781  0.4146  0.2686
   87MOL   O44541897   0.790   5.951   7.547  0.1092 -0.4262  0.5213
   87MOL   H44641898   0.883   5.278   0.288 -1.0569  1.2051 -2.0387
   87MOL   H44741899   0.996   5.147   0.289  1.1241 -0.3202 -0.1865
   87MOL   H44841900   1.035   5.174   0.044 -0.8454  0.7164  0.2576
   87MOL   H44941901   1.083   5.304   0.129 -0.0210  0.6608 -2.1320
   87MOL   H45041902   0.842   5.407   0.072 -1.4305 -0.4714 -0.8017
   87MOL   H45141903   0.826   5.257   7.856  0.8764 -0.7935 -1.1466
   87MOL   H45241904   1.057   5.447   7.820  0.9767 -1.4212  0.5254
   87MOL   H45341905   1.009   5.305   7.718 -0.7396 -1.6189  1.8899
   87MOL   H45441906   0.728   5.531   7.511  1.1657 -2.2768  2.6320
   87MOL   H45541907   0.844   5.623   7.417  0.0896  2.2727  0.2911
   87MOL   H45641908   0.682   5.699   7.649 -0.9834 -1.7184 -2.8032
   87MOL   H45741909   0.853   5.745   7.676  1.2261 -0.3929 -0.9410
   87MOL   O45841910   0.697   5.803   7.391 -0.5413 -0.1447 -0.3359
   87MOL   C45941911   0.673   5.910   7.306 -0.4753  0.1248  0.2029
   87MOL   C46041912   0.587   5.863   7.193  0.2657 -0.0682 -0.1755
   87MOL   C46141913   0.449   5.831   7.246 -0.2715  0.6814 -0.6859
   87MOL   C46241914   0.351   5.948   7.264  0.4107 -0.3079 -0.2727
   87MOL   O46341915   0.305   6.007   7.142 -0.1467 -0.2881  0.8356
   87MOL   C46441916   0.210   6.105   7.144  0.6521  0.0237 -0.4850
   87MOL   O46541917   0.167   6.161   7.242 -0.3644 -0.4562 -0.0347
   87MOL   C46641918   0.188   6.161   7.002 -0.0693  0.6977 -0.0633
   87MOL   C46741919   0.150   6.062   6.892  0.3276  0.3924 -0.1777
   87MOL   C46841920   0.002   6.061   6.859  0.2740  0.3632  0.9241
   87MOL   O46941921   7.796   6.027   6.943 -0.4700 -0.0593  0.3543
   87MOL   H47041922   0.614   5.988   7.352 -1.4313 -0.9184  0.7805
   87MOL   H47141923   0.767   5.950   7.270  0.6486 -1.1901  1.6123
   87MOL   H47241924   0.630   5.776   7.144 -2.0495 -1.8476  0.8729
   87MOL   H47341925   0.566   5.932   7.112  1.7437 -1.6508 -1.9420
   87MOL   H47441926   0.459   5.773   7.338  0.6015 -0.9015 -1.7482
   87MOL   H47541927   0.406   5.766   7.170 -0.6932  1.3639 -1.0242
   87MOL   H47641928   0.266   5.908   7.321  0.8083 -0.4939  0.1920
   87MOL   H47741929   0.394   6.016   7.337 -2.0005 -0.3555  1.2737
   87MOL   H47841930   0.272   6.221   6.968 -0.2941  1.1021  0.0822
   87MOL   H47941931   0.117   6.244   7.004  0.1188  0.8438  1.6880
   87MOL   H48041932   0.209   6.074   6.801  1.9565 -3.7230  0.2186
   87MOL   H48141933   0.170   5.964   6.935  0.6455 -0.3175 -1.9264
   87MOL   H48241934   7.852   6.079   6.755 -2.1338 -1.0904  1.2124
   88MOL     O141935   2.971   4.620   3.468  0.2886  0.3218 -0.1359
   88MOL     C241936   3.054   4.647   3.580 -0.4860 -0.0510 -0.0317
   88MOL     C341937   2.970   4.611   3.700  0.1838  0.1222 -0.6662
   88MOL     C441938   3.063   4.631   3.823  0.7593  0.2133  0.0400
   88MOL     C541939   2.986   4.608   3.956 -0.6329  0.2299  0.0652
   88MOL     O641940   2.892   4.712   3.957 -0.4025  0.0280  0.1845
   88MOL     C741941   2.826   4.736   4.067  0.5325  0.5860  0.0684
   88MOL     O841942   2.827   4.664   4.168 -0.0556  0.4198  0.2528
   88MOL     C941943   2.736   4.860   4.072  0.5896 -0.1541 -0.2832
   88MOL    C1041944   2.629   4.862   3.960  0.4534  0.3488  0.9686
   88MOL    C1141945   2.684   4.927   3.832  0.8944 -0.5327  0.1943
   88MOL    O1241946   2.765   5.021   3.842 -0.4405 -0.3272 -0.3388
   88MOL    H1341947   3.148   4.594   3.577 -0.1473  0.4298  1.6695
   88MOL    H1441948   3.083   4.752   3.586 -0.9792  0.2228 -1.9829
   88MOL    H1541949   2.936   4.509   3.690  0.2706 -0.1094  1.1688
   88MOL    H1641950   2.888   4.683   3.703 -0.9289 -1.2014  0.7175
   88MOL    H1741951   3.121   4.722   3.810  0.2496  0.5105 -0.1887
   88MOL    H1841952   3.142   4.557   3.816  0.8852  0.3536 -0.0380
   88MOL    H1941953   2.942   4.509   3.966  0.5807 -0.4428 -1.1993
   88MOL    H2041954   3.063   4.618   4.033  2.3106 -0.9536 -2.6238
   88MOL    H2141955   2.806   4.943   4.074 -1.8059  1.9300 -0.3855
   88MOL    H2241956   2.669   4.865   4.158  0.4758  0.8399 -0.4232
   88MOL    H2341957   2.584   4.765   3.939 -1.4360  1.4538 -0.2698
   88MOL    H2441958   2.543   4.921   3.990 -0.0572  1.1367 -1.8431
   88MOL    H2541959   2.965   4.526   3.461 -0.5118  0.1859  1.9497
   88MOL    O2641960   2.639   4.874   3.724 -0.6037  0.1798  1.0765
   88MOL    C2741961   2.688   4.909   3.592  0.1015  0.0260  1.0221
   88MOL    C2841962   2.608   5.022   3.527 -0.3393  0.7161 -0.8618
   88MOL    C2941963   2.459   4.986   3.507  0.0530 -0.0615 -0.2593
   88MOL    C3041964   2.377   5.078   3.424  0.4311 -0.2055  0.2840
   88MOL    O3141965   2.357   5.204   3.487  0.0911  0.1968  0.4269
   88MOL    C3241966   2.250   5.274   3.468 -0.4926  0.0185 -0.0843
   88MOL    O3341967   2.148   5.235   3.410  0.0192  0.3357 -0.4334
   88MOL    C3441968   2.267   5.423   3.512  0.7079 -0.6079  0.9108
   88MOL    C3541969   2.257   5.527   3.395 -0.3577  0.1079  0.3693
   88MOL    C3641970   2.130   5.607   3.398  0.3459  0.4111 -0.0658
   88MOL    O3741971   2.017   5.555   3.415  0.2931 -0.0504  0.4405
   88MOL    H3841972   2.793   4.938   3.594 -0.1336  0.8614  4.3029
   88MOL    H3941973   2.690   4.820   3.528  0.5006  0.7434  0.0238
   88MOL    H4041974   2.649   5.057   3.432 -0.3742  2.2082 -0.3390
   88MOL    H4141975   2.620   5.103   3.598  1.0025 -0.9641  0.8541
   88MOL    H4241976   2.407   4.966   3.600 -0.5777 -0.3117 -0.6589
   88MOL    H4341977   2.454   4.891   3.453  1.1009  0.0822 -0.6252
   88MOL    H4441978   2.419   5.092   3.324  0.3915  0.4196  0.3561
   88MOL    H4541979   2.279   5.031   3.409  0.8061 -0.4422 -1.5100
   88MOL    H4641980   2.362   5.426   3.565  0.5687  1.0945  1.1069
   88MOL    H4741981   2.188   5.441   3.585 -0.0716  1.9431 -0.4636
   88MOL    H4841982   2.343   5.593   3.407 -0.8742  0.7623  0.4650
   88MOL    H4941983   2.279   5.475   3.302  0.4796  0.0304  0.6046
   88MOL    O5041984   2.152   5.736   3.376 -0.2371  0.1191  0.1235
   88MOL    C5141985   2.037   5.819   3.362  1.5476 -0.0351  0.2001
   88MOL    C5241986   2.076   5.967   3.361  0.5150  0.4817 -0.0190
   88MOL    C5341987   2.114   6.017   3.504 -0.4069  0.4617  0.1634
   88MOL    C5441988   2.132   6.168   3.498 -0.7274 -0.1109  0.6823
   88MOL    O5541989   2.225   6.208   3.400 -0.1846 -0.2608  0.2948
   88MOL    C5641990   2.354   6.202   3.412 -0.1782  0.2219 -0.8447
   88MOL    O5741991   2.416   6.161   3.508 -0.3438  0.1760 -0.6963
   88MOL    C5841992   2.429   6.246   3.289 -0.2650  0.1488  0.8697
   88MOL    C5941993   2.433   6.129   3.193 -0.5376  0.2978  0.6304
   88MOL    C6041994   2.390   6.157   3.052  0.2105 -0.6443 -0.0222
   88MOL    O6141995   2.369   6.274   3.011 -0.0055  0.0092 -0.2425
   88MOL    H6241996   1.980   5.795   3.273 -0.1982  1.9412  0.7394
   88MOL    H6341997   1.967   5.799   3.443  2.2055 -0.9096  0.5526
   88MOL    H6441998   1.986   6.018   3.325 -0.0522 -0.4392  0.0584
   88MOL    H6541999   2.158   5.988   3.292  3.0762 -0.9505  2.4870
   88MOL    H6642000   2.199   5.959   3.539  0.1891  1.1846 -0.0559
   88MOL    H6742001   2.022   6.002   3.561 -0.3392  0.9352  0.4039
   88MOL    H6842002   2.035   6.216   3.480 -0.6095 -0.0683  0.1526
   88MOL    H6942003   2.163   6.182   3.601 -1.9863  0.2798  1.0179
   88MOL    H7042004   2.526   6.291   3.311  0.1388  0.4551 -1.4298
   88MOL    H7142005   2.367   6.325   3.247  2.0933  1.5514 -0.0716
   88MOL    H7242006   2.533   6.085   3.191 -0.7504 -0.1575 -0.2862
   88MOL    H7342007   2.369   6.046   3.222 -1.0139  0.0913 -0.9573
   88MOL    O7442008   2.391   6.048   2.975  0.3667  0.1705  0.0871
   88MOL    C7542009   2.364   6.057   2.834  1.0217 -0.4651 -0.3470
   88MOL    C7642010   2.484   6.059   2.742  0.3951  0.0438 -0.1289
   88MOL    C7742011   2.444   6.052   2.598 -0.3886  0.6784 -0.2017
   88MOL    C7842012   2.556   6.068   2.504 -0.5965  0.0999  0.0981
   88MOL    O7942013   2.506   6.033   2.375  0.5463 -0.2607  0.0575
   88MOL    C8042014   2.575   6.064   2.267 -0.2432  1.4371  0.3819
   88MOL    O8142015   2.674   6.137   2.269  0.4653 -0.3505  0.8776
   88MOL    C8242016   2.510   6.008   2.147  0.3021 -0.5545 -0.6948
   88MOL    C8342017   2.380   6.080   2.122 -0.3463  0.7755 -0.3370
   88MOL    C8442018   2.386   6.203   2.027 -0.6403  0.5375  0.0046
   88MOL    O8542019   2.294   6.221   1.945  0.0078 -0.4527 -0.0291
   88MOL    H8642020   2.291   5.986   2.795  1.5205 -0.2386 -1.7266
   88MOL    H8742021   2.314   6.153   2.819  1.1491 -0.4088 -0.4095
   88MOL    H8842022   2.531   5.964   2.766 -0.2856  0.1353  1.6221
   88MOL    H8942023   2.546   6.149   2.750 -0.4423  0.4329  2.4153
   88MOL    H9042024   2.375   6.131   2.568 -0.5925  0.1428 -1.1420
   88MOL    H9142025   2.393   5.958   2.575 -3.1501  1.3807  2.6237
   88MOL    H9242026   2.599   6.168   2.509  0.6054 -0.3962 -0.2575
   88MOL    H9342027   2.639   6.003   2.533  1.3919  2.4194 -0.2405
   88MOL    H9442028   2.498   5.900   2.158  3.1733 -0.8054  0.5211
   88MOL    H9542029   2.577   6.009   2.061  1.0953  0.9509 -0.0806
   88MOL    H9642030   2.323   6.004   2.068  0.1225 -0.0824  0.3564
   88MOL    H9742031   2.315   6.092   2.209  0.0344  1.9185 -0.2065
   88MOL    O9842032   2.494   6.280   2.051 -0.4785 -0.0718 -0.3065
   88MOL    C9942033   2.529   6.391   1.966 -0.2435 -0.4215  0.1088
   88MOL   C10042034   2.612   6.332   1.844  0.2101 -0.1813  0.1948
   88MOL   C10142035   2.745   6.270   1.890  0.2731 -0.1721 -0.3918
   88MOL   C10242036   2.846   6.221   1.789  0.8637  0.0041  0.1810
   88MOL   O10342037   2.952   6.160   1.862 -0.1210  0.4734 -0.6936
   88MOL   C10442038   3.049   6.091   1.805 -0.3755  0.0556 -0.4331
   88MOL   O10542039   3.073   6.081   1.684  0.3284  0.4805 -0.5047
   88MOL   C10642040   3.132   6.010   1.905  0.7748 -0.5200  0.7554
   88MOL   C10742041   3.054   5.904   1.992  0.0898 -0.0482 -0.2195
   88MOL   C10842042   3.048   5.782   1.902  0.1155  0.0857 -0.8113
   88MOL   O10942043   3.110   5.681   1.934  0.0498 -0.1093  0.4588
   88MOL   H11042044   2.439   6.448   1.940 -0.5418 -1.0461 -0.2483
   88MOL   H11142045   2.582   6.460   2.032  0.3239 -2.6469  2.0343
   88MOL   H11242046   2.624   6.412   1.771  0.6820  0.0858  0.5609
   88MOL   H11342047   2.555   6.259   1.787  0.6212 -0.9592  0.7683
   88MOL   H11442048   2.707   6.190   1.953  0.5037  1.8886  2.4947
   88MOL   H11542049   2.802   6.322   1.967  0.5329  0.5010 -1.0335
   88MOL   H11642050   2.796   6.156   1.717 -0.6076  0.6002  0.6299
   88MOL   H11742051   2.880   6.311   1.737 -1.3746  0.4674 -0.5719
   88MOL   H11842052   3.180   6.090   1.962  0.6539 -0.6710  1.0690
   88MOL   H11942053   3.212   5.958   1.852 -0.7113 -0.4620 -1.6446
   88MOL   H12042054   3.102   5.877   2.086 -2.7196  1.0328  1.5870
   88MOL   H12142055   2.954   5.930   2.027  0.6690  0.7773  0.8542
   88MOL   O12242056   2.956   5.797   1.800 -0.1763 -0.2438  0.0181
   88MOL   C12342057   2.917   5.687   1.720  0.3172  0.8142  0.2651
   88MOL   C12442058   2.848   5.731   1.593 -0.0622  0.2495  0.3403
   88MOL   C12542059   2.927   5.828   1.494  0.1299  0.0861 -0.8833
   88MOL   C12642060   3.062   5.776   1.445 -0.1576 -0.1807  0.9573
   88MOL   O12742061   3.107   5.862   1.338 -0.7340  0.1104 -0.4840
   88MOL   C12842062   3.207   5.814   1.257  0.3554  0.0583 -0.3638
   88MOL   O12942063   3.273   5.716   1.286  0.1091  0.3824  1.0557
   88MOL   C13042064   3.242   5.910   1.141  0.7760  0.1423  0.6013
   88MOL   C13142065   3.134   5.949   1.038 -0.1730 -0.9398 -0.3278
   88MOL   C13242066   3.028   6.034   1.100 -0.4728 -0.2059  0.0971
   88MOL   O13342067   2.914   5.991   1.113 -0.6713  0.1100 -0.6342
   88MOL   H13442068   3.008   5.630   1.701  1.5977  2.1452  2.2364
   88MOL   H13542069   2.862   5.604   1.765  0.3106  0.5917 -0.1512
   88MOL   H13642070   2.755   5.784   1.617 -0.5853 -1.0317  1.1533
   88MOL   H13742071   2.820   5.637   1.547 -3.0441  0.7460  1.0369
   88MOL   H13842072   2.939   5.922   1.548  1.8920 -0.1981 -0.7559
   88MOL   H13942073   2.871   5.856   1.405  1.3037  0.4355 -1.5129
   88MOL   H14042074   3.122   5.784   1.536  0.0429  1.5673  0.6896
   88MOL   H14142075   3.058   5.670   1.418  1.2201 -0.2282  0.9006
   88MOL   H14242076   3.328   5.865   1.090 -0.2967 -0.2670 -0.8700
   88MOL   H14342077   3.289   5.996   1.190  1.8062  1.4390 -2.5529
   88MOL   H14442078   3.176   6.019   0.966 -0.1074  0.1777  0.7855
   88MOL   H14542079   3.093   5.868   0.977  1.6849 -2.9880  1.0382
   88MOL   O14642080   3.063   6.162   1.110  0.4472 -0.3180  0.2283
   88MOL   C14742081   2.957   6.260   1.136 -0.2325 -0.0407  0.0686
   88MOL   C14842082   3.031   6.378   1.202  0.1712  0.3911 -0.3930
   88MOL   C14942083   3.094   6.343   1.340  0.1677 -0.0404 -0.4387
   88MOL   C15042084   3.245   6.304   1.324 -0.0632  0.2789  0.0623
   88MOL   O15142085   3.310   6.278   1.449 -0.7038 -0.7249 -0.6086
   88MOL   C15242086   3.338   6.156   1.485 -0.0237 -0.3295  0.4241
   88MOL   O15342087   3.311   6.055   1.421  0.1238  0.0519 -0.0976
   88MOL   C15442088   3.404   6.137   1.626 -0.9675  0.3616 -0.2856
   88MOL   C15542089   3.386   6.247   1.715 -0.1772  0.0203 -0.2415
   88MOL   C15642090   3.447   6.215   1.849 -0.7469  0.0686 -0.7709
   88MOL   O15742091   3.388   6.195   1.954 -0.1274  0.1310 -0.1338
   88MOL   H15842092   2.911   6.297   1.044  3.1776  0.4028 -1.5331
   88MOL   H15942093   2.882   6.220   1.204  0.6676 -0.5870  0.7431
   88MOL   H16042094   2.977   6.471   1.217  0.2850  0.4442 -0.3114
   88MOL   H16142095   3.106   6.397   1.126  0.8573 -0.1601  0.1355
   88MOL   H16242096   3.043   6.258   1.384 -0.4241  1.0789  1.0746
   88MOL   H16342097   3.080   6.433   1.400  2.5630  1.5297 -2.1060
   88MOL   H16442098   3.245   6.229   1.244  1.2330  1.4691 -1.0829
   88MOL   H16542099   3.286   6.394   1.278 -0.8765  0.7194  0.1919
   88MOL   H16642100   3.510   6.114   1.612 -0.9448 -0.8059  1.6062
   88MOL   H16742101   3.367   6.049   1.678 -2.5369  0.5920 -0.9770
   88MOL   H16842102   3.441   6.334   1.678 -0.8739  0.0332 -1.2596
   88MOL   H16942103   3.280   6.270   1.719  0.3226  2.2654  0.9776
   88MOL   O17042104   3.580   6.227   1.846  0.5477  0.3182 -0.1725
   88MOL   C17142105   3.657   6.224   1.963  0.0801 -0.0131 -0.8888
   88MOL   C17242106   3.775   6.321   1.952  0.7251 -0.3427  0.4407
   88MOL   C17342107   3.896   6.257   1.894 -0.3963 -0.0100  0.1961
   88MOL   C17442108   4.028   6.336   1.901 -0.0931  0.5041  0.1906
   88MOL   O17542109   4.060   6.384   2.024 -0.9111 -0.5930 -0.3866
   88MOL   C17642110   4.112   6.292   2.113  0.3131  0.7058 -0.3134
   88MOL   O17742111   4.155   6.181   2.088  0.1862 -0.1150 -0.1574
   88MOL   C17842112   4.111   6.337   2.251 -0.9689 -0.3679 -0.4582
   88MOL   C17942113   4.220   6.287   2.339  0.2314  0.2289 -0.1103
   88MOL   C18042114   4.158   6.250   2.479 -0.4515  0.2419 -0.0264
   88MOL   O18142115   4.067   6.317   2.532  0.3495 -0.1631  0.0780
   88MOL   H18242116   3.592   6.265   2.040  1.8633  3.8669 -1.3132
   88MOL   H18342117   3.685   6.121   1.988 -0.5868 -0.3574 -1.5253
   88MOL   H18442118   3.795   6.358   2.052  1.8493  0.4053 -0.0555
   88MOL   H18542119   3.745   6.408   1.894 -2.5016 -0.7205  1.4074
   88MOL   H18642120   3.875   6.220   1.794  1.7027 -1.2766  0.2156
   88MOL   H18742121   3.904   6.163   1.948  0.6562 -1.8910 -3.1185
   88MOL   H18842122   4.105   6.271   1.860  0.0317  1.4053 -1.0210
   88MOL   H18942123   4.021   6.424   1.837  1.8982  0.8356  0.3994
   88MOL   H19042124   4.009   6.322   2.288 -0.3575 -0.1298  1.4182
   88MOL   H19142125   4.130   6.444   2.241 -3.4975  0.3910  2.0545
   88MOL   H19242126   4.271   6.197   2.307  2.9947  1.2891  1.1649
   88MOL   H19342127   4.310   6.347   2.350  0.1166  0.4302 -0.2471
   88MOL   O19442128   4.238   6.166   2.538 -0.2018 -0.4841 -0.2051
   88MOL   C19542129   4.185   6.084   2.647 -0.6148  0.5964  0.1458
   88MOL   C19642130   4.291   5.991   2.693 -0.2570 -0.1964  0.9197
   88MOL   C19742131   4.260   5.912   2.820  0.4910 -0.2629 -0.1238
   88MOL   C19842132   4.381   5.845   2.884 -0.1576  0.3129  0.1016
   88MOL   O19942133   4.422   5.732   2.806  0.1446  0.3710 -0.1505
   88MOL   C20042134   4.410   5.610   2.860 -0.2016  0.4517 -0.1923
   88MOL   O20142135   4.379   5.582   2.973 -0.2986  0.0475 -0.1844
   88MOL   C20242136   4.444   5.506   2.757  0.1132 -0.2988 -0.3028
   88MOL   C20342137   4.567   5.420   2.793  0.0576  0.0952 -0.5337
   88MOL   C20442138   4.698   5.498   2.784 -0.2854 -0.5839  0.2863
   88MOL   O20542139   4.776   5.512   2.876 -0.1488  0.0523  0.2625
   88MOL   H20642140   4.146   6.133   2.736 -0.9101  1.0594 -0.2337
   88MOL   H20742141   4.111   6.017   2.602 -0.1551  2.7342 -4.0398
   88MOL   H20842142   4.383   6.048   2.713 -0.6680  0.9797 -0.4133
   88MOL   H20942143   4.326   5.920   2.618  0.1459  0.8038  0.1417
   88MOL   H21042144   4.186   5.835   2.801  0.6970 -0.5218  0.1315
   88MOL   H21142145   4.233   5.987   2.894 -1.9160  0.2866 -1.4708
   88MOL   H21242146   4.470   5.908   2.887 -1.4104  2.0891  1.0345
   88MOL   H21342147   4.353   5.821   2.986 -0.7536 -0.8277 -0.3247
   88MOL   H21442148   4.465   5.563   2.666 -1.2251  2.2879  0.9556
   88MOL   H21542149   4.361   5.439   2.736 -1.8652  1.3176  2.1248
   88MOL   H21642150   4.554   5.372   2.890  0.0325 -0.9414 -1.0367
   88MOL   H21742151   4.585   5.343   2.718  1.0983  0.1374 -0.3365
   88MOL   O21842152   4.717   5.541   2.653 -0.8999 -0.5742 -0.7150
   88MOL   C21942153   4.798   5.655   2.623  0.2273  0.4148 -0.1763
   88MOL   C22042154   4.736   5.743   2.506 -0.1104 -1.0274  0.4265
   88MOL   C22142155   4.622   5.837   2.562  0.3979 -0.3393  0.0170
   88MOL   C22242156   4.576   5.941   2.451  0.0537  0.2347 -0.1868
   88MOL   O22342157   4.694   6.020   2.421 -0.8310 -0.2899  0.9207
   88MOL   C22442158   4.676   6.107   2.316  0.2529  0.4762  0.2376
   88MOL   O22542159   4.565   6.136   2.266 -0.1450  0.8758  0.7611
   88MOL   C22642160   4.806   6.167   2.265  0.3724  0.0490 -0.3116
   88MOL   C22742161   4.889   6.247   2.371 -0.0232  0.5488 -0.2879
   88MOL   C22842162   4.958   6.379   2.321  0.6771 -0.7124  0.2688
   88MOL   O22942163   4.906   6.490   2.356 -0.3796 -0.1743 -0.1089
   88MOL   H23042164   4.820   5.723   2.706 -2.0672 -0.1652  0.9474
   88MOL   H23142165   4.896   5.616   2.598 -1.2414 -1.5400 -3.0925
   88MOL   H23242166   4.698   5.677   2.428 -0.5282 -0.2604 -0.0210
   88MOL   H23342167   4.814   5.813   2.473 -0.6632 -0.9027 -0.6256
   88MOL   H23442168   4.662   5.884   2.652 -2.2299 -2.0109  2.1267
   88MOL   H23542169   4.538   5.780   2.600 -2.2806  2.6436 -1.2187
   88MOL   H23642170   4.542   5.887   2.363  0.0958  1.2712 -0.8485
   88MOL   H23742171   4.498   6.008   2.486 -0.9531 -1.8359  1.6775
   88MOL   H23842172   4.778   6.244   2.192 -0.5510  0.7170  0.7291
   88MOL   H23942173   4.875   6.101   2.212  3.0904 -0.3077  3.4838
   88MOL   H24042174   4.824   6.266   2.456  0.1541 -0.2382  0.0356
   88MOL   H24142175   4.967   6.177   2.402 -0.9201 -0.9452 -1.3226
   88MOL   O24242176   5.060   6.351   2.228 -0.1387 -0.4325 -0.4475
   88MOL   C24342177   5.105   6.475   2.173 -0.7316  0.4870  0.2078
   88MOL   C24442178   5.218   6.455   2.073 -0.4765 -0.2694 -0.1647
   88MOL   C24542179   5.282   6.577   2.010 -0.1276  0.0394  0.8179
   88MOL   C24642180   5.371   6.540   1.880 -0.5449  0.3598 -0.0767
   88MOL   O24742181   5.465   6.432   1.913 -0.7770  0.6498  0.5262
   88MOL   C24842182   5.570   6.467   1.985  0.2600 -0.6793 -0.5983
   88MOL   O24942183   5.608   6.572   2.036  0.5203 -0.0880 -0.4771
   88MOL   C25042184   5.633   6.341   2.031  0.3282  0.2331  0.4483
   88MOL   C25142185   5.697   6.256   1.920 -0.2747 -0.0504 -0.5396
   88MOL   C25242186   5.637   6.113   1.918  0.2803  0.5963  0.2352
   88MOL   O25342187   5.526   6.093   1.967  0.5105  1.1833 -0.0512
   88MOL   H25442188   5.016   6.514   2.124 -2.0193 -1.0283  1.3166
   88MOL   H25542189   5.132   6.556   2.241 -0.4050  1.6259 -1.2597
   88MOL   H25642190   5.178   6.388   1.997 -0.7773 -1.0064  0.6352
   88MOL   H25742191   5.300   6.413   2.132 -0.2654  1.0682  0.5267
   88MOL   H25842192   5.350   6.617   2.085  1.0885 -0.3816 -0.0359
   88MOL   H25942193   5.210   6.655   1.987  0.1078  0.3847  1.2415
   88MOL   H26042194   5.298   6.498   1.810 -4.0572  2.5548  2.1257
   88MOL   H26142195   5.421   6.623   1.829  2.3126 -1.5010 -0.4678
   88MOL   H26242196   5.570   6.286   2.101  0.1212  0.6940  0.6297
   88MOL   H26342197   5.708   6.387   2.096 -0.7425  2.0338  0.4515
   88MOL   H26442198   5.699   6.309   1.825  2.7591  2.6455  0.9301
   88MOL   H26542199   5.802   6.234   1.940 -0.5586 -0.8018  0.1509
   88MOL   O26642200   5.721   6.025   1.861  0.0950  0.0197 -0.2273
   88MOL   C26742201   5.687   5.894   1.848 -0.5837 -0.7754 -0.6246
   88MOL   C26842202   5.780   5.837   1.743  1.1346  0.4072  0.1013
   88MOL   C26942203   5.778   5.900   1.594  0.0480 -0.3953  0.7823
   88MOL   C27042204   5.651   5.867   1.513 -0.0810 -0.1062 -0.2627
   88MOL   O27142205   5.533   5.917   1.582 -0.1828 -0.2924  0.3136
   88MOL   C27242206   5.498   6.049   1.572  0.0108  0.8436  0.4632
   88MOL   O27342207   5.565   6.137   1.520  0.8457 -0.0664  0.6889
   88MOL   C27442208   5.375   6.072   1.658 -0.1292  0.5926  0.0392
   88MOL   C27542209   5.340   6.218   1.688  0.0086  0.4428  0.5197
   88MOL   C27642210   5.216   6.264   1.614  0.3872  0.1070 -0.3580
   88MOL   O27742211   5.183   6.383   1.620  0.2274 -0.0766 -0.2157
   88MOL   H27842212   5.690   5.834   1.939 -0.1451  0.2405  0.0350
   88MOL   H27942213   5.583   5.893   1.814 -0.7704  0.6475 -0.1165
   88MOL   H28042214   5.761   5.730   1.741 -2.1601  0.9383 -3.8302
   88MOL   H28142215   5.883   5.849   1.778  1.0777 -0.2214  0.4821
   88MOL   H28242216   5.856   5.862   1.528 -0.0374  1.0199 -0.1266
   88MOL   H28342217   5.786   6.008   1.605 -0.1519 -0.2260 -0.6784
   88MOL   H28442218   5.651   5.909   1.413 -2.2386  0.0919 -0.1990
   88MOL   H28542219   5.648   5.762   1.485 -1.1137  0.3691 -2.0085
   88MOL   H28642220   5.397   6.024   1.753 -0.8866  0.3987  0.1198
   88MOL   H28742221   5.291   6.009   1.631 -0.7877  0.5796  2.0684
   88MOL   H28842222   5.318   6.221   1.795  0.7535  3.5215  0.6321
   88MOL   H28942223   5.422   6.289   1.675 -0.7541  0.9144 -1.8056
   88MOL   O29042224   5.145   6.174   1.561  0.4205  0.0378  0.1072
   88MOL   C29142225   5.016   6.194   1.516  0.8411  0.2462 -0.2107
   88MOL   C29242226   4.930   6.070   1.525 -0.3013 -0.6615  0.1966
   88MOL   C29342227   4.789   6.098   1.472  0.0391 -0.5718 -0.0653
   88MOL   C29442228   4.696   5.974   1.472  0.1019  0.0491 -0.1458
   88MOL   O29542229   4.647   5.945   1.597  0.4330  0.0397  0.5730
   88MOL   C29642230   4.525   5.972   1.636  0.0645 -0.7093  0.1824
   88MOL   O29742231   4.444   6.028   1.571 -0.4537 -0.3175  0.5080
   88MOL   C29842232   4.500   5.926   1.779  0.1682 -0.0296 -0.1581
   88MOL   C29942233   4.376   5.995   1.844  0.0421  0.8375  0.0593
   88MOL   C30042234   4.243   5.931   1.807  0.1065  0.2947  0.0893
   88MOL   O30142235   4.202   5.824   1.848  0.0137  0.4787 -0.5274
   88MOL   H30242236   4.968   6.269   1.579 -0.7963 -1.5719  0.7365
   88MOL   H30342237   5.006   6.221   1.411  0.0848  1.0618  0.0680
   88MOL   H30442238   4.911   6.030   1.625  1.8854 -1.3805  0.3709
   88MOL   H30542239   4.975   6.008   1.447  1.6279  0.4276  0.4083
   88MOL   H30642240   4.808   6.119   1.367  0.6372  0.7764  0.2967
   88MOL   H30742241   4.759   6.197   1.507  1.5918  0.1334 -0.6472
   88MOL   H30842242   4.609   5.987   1.407 -0.3283  2.3034  0.8205
   88MOL   H30942243   4.742   5.885   1.430  0.8840  0.3972 -0.0368
   88MOL   H31042244   4.587   5.949   1.839  0.3505  3.3072 -1.6145
   88MOL   H31142245   4.487   5.818   1.775  2.1832 -0.4595  3.3264
   88MOL   H31242246   4.385   5.997   1.952  1.4971 -0.6642 -0.0006
   88MOL   H31342247   4.367   6.100   1.815  0.0161  0.4469 -1.3922
   88MOL   O31442248   4.176   6.007   1.725  0.5480 -0.5293  0.0668
   88MOL   C31542249   4.043   5.974   1.691 -0.2114 -0.2141 -0.1465
   88MOL   C31642250   3.989   6.030   1.557 -0.6900 -0.1582  0.4641
   88MOL   C31742251   4.071   5.973   1.434  0.6479 -0.0126  0.1922
   88MOL   C31842252   4.013   6.008   1.298  0.2240  0.5897  0.0855
   88MOL   O31942253   4.069   5.934   1.192 -0.1069  0.3248  0.6410
   88MOL   C32042254   4.012   5.937   1.067  0.1738 -0.0987 -0.0583
   88MOL   O32142255   3.904   5.990   1.033 -0.0960 -0.0635 -0.1033
   88MOL   C32242256   4.105   5.868   0.965  0.1949 -0.1577  0.2494
   88MOL   C32342257   4.228   5.960   0.940  0.4492  0.2065  0.7638
   88MOL   C32442258   4.265   5.965   0.797  0.2266  0.2246 -0.1188
   88MOL   O32542259   4.267   6.072   0.740 -0.2885 -0.4025  0.4602
   88MOL   H32642260   4.053   5.868   1.670 -1.2597 -0.1714 -0.9151
   88MOL   H32742261   3.972   5.999   1.770  2.7695  3.0122  1.6620
   88MOL   H32842262   3.994   6.138   1.565 -0.5126 -0.0431 -1.0238
   88MOL   H32942263   3.883   6.004   1.551 -0.8646  0.1687  1.9175
   88MOL   H33042264   4.081   5.865   1.440 -0.3473 -0.1367 -0.2517
   88MOL   H33142265   4.167   6.024   1.444 -0.1152  1.6416 -0.7114
   88MOL   H33242266   3.905   5.991   1.293  0.2223 -0.1289  2.0818
   88MOL   H33342267   4.006   6.115   1.280  0.0897  0.5638 -0.0220
   88MOL   H33442268   4.043   5.871   0.875 -1.0116  1.6168  1.1197
   88MOL   H33542269   4.131   5.764   0.985  0.9547 -0.1162 -0.4762
   88MOL   H33642270   4.209   6.052   0.994 -1.3116  0.5169 -0.3379
   88MOL   H33742271   4.306   5.908   0.996 -1.2794 -1.6942  1.4675
   88MOL   O33842272   4.287   5.837   0.742 -0.0176  0.0392  0.1551
   88MOL   C33942273   4.315   5.839   0.598  0.0741  0.6596 -0.7448
   88MOL   C34042274   4.452   5.772   0.564 -0.0856 -0.5576  0.0404
   88MOL   C34142275   4.565   5.832   0.645 -0.2195 -0.8213 -0.6686
   88MOL   C34242276   4.696   5.760   0.608 -0.3675  0.5072  0.3552
   88MOL   O34342277   4.724   5.664   0.708  0.6298 -0.1502 -0.0372
   88MOL   C34442278   4.826   5.575   0.693 -0.8260  0.0871  0.1858
   88MOL   O34542279   4.913   5.582   0.602 -0.3578 -0.6538  0.7130
   88MOL   C34642280   4.823   5.463   0.791 -0.9308  0.0917 -0.1427
   88MOL   C34742281   4.881   5.483   0.930  0.3639  0.0821  0.3765
   88MOL   C34842282   4.953   5.618   0.955 -1.0259 -0.6856 -0.7570
   88MOL   O34942283   5.076   5.625   0.955 -0.2961 -0.4472 -0.5857
   88MOL   H35042284   4.233   5.785   0.551 -1.5256  0.5008  2.0888
   88MOL   H35142285   4.308   5.940   0.558 -0.5738  0.6148 -0.7580
   88MOL   H35242286   4.460   5.780   0.455  1.8144 -2.1449  0.0304
   88MOL   H35342287   4.436   5.668   0.591 -2.6996  0.2578  1.7753
   88MOL   H35442288   4.542   5.837   0.752  1.8996  2.4586 -0.2994
   88MOL   H35542289   4.557   5.938   0.619 -2.0138 -1.2765 -2.0468
   88MOL   H35642290   4.688   5.726   0.505  2.2865  2.6461 -0.6411
   88MOL   H35742291   4.777   5.834   0.610 -0.5146  0.6427  2.6366
   88MOL   H35842292   4.862   5.372   0.748 -1.0557 -0.3311  0.6282
   88MOL   H35942293   4.719   5.432   0.807 -0.3176 -2.2072 -0.5132
   88MOL   H36042294   4.799   5.498   1.000  1.5005  3.3750  1.1116
   88MOL   H36142295   4.947   5.399   0.954  0.6577  0.0922 -0.3875
   88MOL   O36242296   4.865   5.723   0.990  0.2301  0.1146 -0.0761
   88MOL   C36342297   4.922   5.842   1.025 -0.1384 -0.5327  0.1873
   88MOL   C36442298   4.812   5.950   1.035  0.4940  0.2890  0.7379
   88MOL   C36542299   4.874   6.080   1.068 -0.2947  0.0133  0.9116
   88MOL   C36642300   4.965   6.143   0.954  0.9081 -1.0331 -0.7189
   88MOL   O36742301   4.903   6.211   0.850  0.7804 -0.0009  0.1977
   88MOL   C36842302   4.887   6.152   0.726 -0.4925 -0.7571  0.2416
   88MOL   O36942303   4.927   6.045   0.688 -0.0460 -0.4227 -0.3431
   88MOL   C37042304   4.820   6.249   0.632  0.5910  0.4777  0.3162
   88MOL   C37142305   4.812   6.203   0.484  0.1803 -0.1280  0.5557
   88MOL   C37242306   4.673   6.191   0.433 -0.2502  0.2390  0.0219
   88MOL   O37342307   4.631   6.085   0.387 -0.0504 -0.1773  0.4332
   88MOL   H37442308   4.971   5.834   1.122  1.3675  2.0440 -0.2978
   88MOL   H37542309   4.996   5.871   0.950 -0.9425 -0.4904 -0.6008
   88MOL   H37642310   4.744   5.921   1.116  1.5489 -1.1502  1.1198
   88MOL   H37742311   4.753   5.957   0.944  0.7354  1.0199  0.6310
   88MOL   H37842312   4.942   6.071   1.152  0.0972  0.0871  0.6043
   88MOL   H37942313   4.796   6.152   1.093 -0.8239  0.9071 -2.9677
   88MOL   H38042314   5.023   6.220   1.005 -1.6374  1.3953 -1.3373
   88MOL   H38142315   5.029   6.065   0.913  1.4613 -1.9263  1.7864
   88MOL   H38242316   4.885   6.336   0.639  0.5793  0.3132  2.6212
   88MOL   H38342317   4.731   6.285   0.683  0.6447  1.6767 -0.4046
   88MOL   H38442318   4.868   6.268   0.416 -0.0561  0.6256  1.0750
   88MOL   H38542319   4.850   6.101   0.474  1.8710  0.6892 -1.7731
   88MOL   O38642320   4.601   6.300   0.465  1.0575 -0.7063 -0.5983
   88MOL   C38742321   4.465   6.319   0.424  0.3135 -0.2723 -0.6838
   88MOL   C38842322   4.357   6.323   0.537  0.5310  0.1679 -0.0625
   88MOL   C38942323   4.222   6.359   0.492  0.3238 -0.4265  0.0430
   88MOL   C39042324   4.141   6.235   0.463  0.2749 -0.1247  0.2775
   88MOL   O39142325   4.198   6.171   0.346  0.2620 -0.4478  0.2567
   88MOL   C39242326   4.183   6.044   0.340  0.6029  0.2448  0.1729
   88MOL   O39342327   4.125   5.978   0.429  0.1961  0.4496  0.3089
   88MOL   C39442328   4.231   5.980   0.216 -0.7657  0.4564  0.5728
   88MOL   C39542329   4.225   5.826   0.227  0.2438 -0.8818 -0.1105
   88MOL   C39642330   4.329   5.759   0.134  0.2143 -0.6873  0.4360
   88MOL   O39742331   4.298   5.687   0.039  0.6918 -0.4875  0.2232
   88MOL   H39842332   4.477   6.414   0.371  2.6792 -0.4321 -0.5079
   88MOL   H39942333   4.436   6.244   0.350 -1.1604  0.5218 -0.9370
   88MOL   H40042334   4.387   6.398   0.610 -0.8084  0.3956  0.2710
   88MOL   H40142335   4.361   6.228   0.590  1.6056 -0.8310 -1.8759
   88MOL   H40242336   4.229   6.432   0.412 -0.2265 -0.5208 -0.0900
   88MOL   H40342337   4.163   6.410   0.568 -0.0678 -1.0232  0.1483
   88MOL   H40442338   4.132   6.173   0.552  1.5111  1.1859  1.3208
   88MOL   H40542339   4.037   6.260   0.441  0.0287 -1.8009 -0.5403
   88MOL   H40642340   4.335   6.012   0.211 -1.4576  2.6765 -0.0417
   88MOL   H40742341   4.170   6.010   0.131  1.6055  1.2255 -0.9075
   88MOL   H40842342   4.242   5.785   0.326 -0.9087  0.5302  0.6939
   88MOL   H40942343   4.123   5.795   0.205 -0.1569 -0.3173  0.9352
   88MOL   O41042344   4.454   5.777   0.182 -0.0856  0.2261  0.7589
   88MOL   C41142345   4.564   5.721   0.116  0.2778  0.5924 -0.6975
   88MOL   C41242346   4.658   5.840   0.070  0.3866  0.5317 -0.4268
   88MOL   C41342347   4.591   5.948   7.859 -0.2373  0.6510 -0.2293
   88MOL   C41442348   4.683   6.069   7.831  0.0053 -0.6387  0.1449
   88MOL   O41542349   4.784   6.051   7.730 -0.0353  0.2002  0.6941
   88MOL   C41642350   4.782   6.129   7.618  0.0086  1.3408  0.6532
   88MOL   O41742351   4.688   6.199   7.584 -0.3811  0.2470  0.6113
   88MOL   C41842352   4.910   6.112   7.536 -0.2830 -0.6157 -0.2094
   88MOL   C41942353   4.937   5.974   7.477 -0.6490  0.1623 -0.6348
   88MOL   C42042354   5.028   5.890   7.568  0.0575  0.2499 -0.0138
   88MOL   O42142355   5.016   5.898   7.688 -0.7903  0.5001 -0.2629
   88MOL   H42242356   4.613   5.646   0.178  0.6060  0.1920 -1.4326
   88MOL   H42342357   4.533   5.655   0.034 -2.1013 -0.2324  0.8083
   88MOL   H42442358   4.747   5.806   0.018  1.2068  1.8194  0.1268
   88MOL   H42542359   4.698   5.882   0.163 -1.4270 -0.4928  0.8599
   88MOL   H42642360   4.506   5.990   0.038 -0.9428 -1.3280  0.2474
   88MOL   H42742361   4.540   5.909   7.771  2.1180  2.3466 -2.4018
   88MOL   H42842362   4.618   6.156   7.824 -2.0731 -2.2009 -0.3543
   88MOL   H42942363   4.728   6.099   0.051 -0.3464 -0.5105  0.2742
   88MOL   H43042364   4.996   6.140   7.596  0.1001 -0.2751 -0.9166
   88MOL   H43142365   4.900   6.183   7.454  2.4832  1.1615  0.9130
   88MOL   H43242366   4.845   5.924   7.447 -0.8244  0.3139 -0.3533
   88MOL   H43342367   4.992   5.984   7.383  2.0451 -0.3309  0.8309
   88MOL   O43442368   5.110   5.810   7.497 -0.2974  0.4623  0.1691
   88MOL   C43542369   5.205   5.736   7.563  0.4980 -0.1147 -0.0761
   88MOL   C43642370   5.285   5.659   7.459 -0.1070 -0.2354 -0.8086
   88MOL   C43742371   5.366   5.748   7.363 -0.5948  0.2410 -0.4264
   88MOL   C43842372   5.442   5.656   7.267 -0.3249 -0.2446  0.6585
   88MOL   O43942373   5.552   5.598   7.335  0.2588  0.1312  0.0994
   88MOL   C44042374   5.654   5.537   7.267 -0.2511  0.0129  0.1724
   88MOL   O44142375   5.653   5.499   7.146  0.1686 -0.6937  0.0541
   88MOL   C44242376   5.772   5.519   7.366 -0.5311  0.2769  0.1559
   88MOL   C44342377   5.864   5.404   7.306  0.3418 -0.3311 -1.1064
   88MOL   C44442378   5.996   5.393   7.395 -0.3140 -0.5770  0.7110
   88MOL   O44542379   6.009   5.290   7.459 -0.5678 -0.3968  0.0832
   88MOL   H44642380   5.268   5.798   7.626  0.8590  0.2585 -0.7965
   88MOL   H44742381   5.148   5.667   7.625  1.5867 -0.6954  0.2984
   88MOL   H44842382   5.217   5.590   7.408 -1.8504 -1.0368  2.4421
   88MOL   H44942383   5.359   5.593   7.503 -0.3078 -1.1736 -1.8644
   88MOL   H45042384   5.442   5.799   7.422 -0.9486 -0.5121  0.6973
   88MOL   H45142385   5.307   5.823   7.311  0.0121  0.8736 -0.2086
   88MOL   H45242386   5.371   5.586   7.223 -1.2424  2.5824 -2.5708
   88MOL   H45342387   5.485   5.727   7.197  2.2851 -2.1623  0.2612
   88MOL   H45442388   5.736   5.490   7.465  0.5146  0.8394  0.7064
   88MOL   H45542389   5.826   5.613   7.375 -0.1131 -0.0548  1.1387
   88MOL   H45642390   5.810   5.310   7.312 -3.3365  1.5489 -3.1907
   88MOL   H45742391   5.896   5.413   7.202  2.0572 -2.3786 -0.7930
   88MOL   O45842392   6.082   5.497   7.375  0.4324 -0.2059  0.0471
   88MOL   C45942393   6.199   5.499   7.454  0.4249  0.3106  0.1448
   88MOL   C46042394   6.290   5.391   7.404 -0.9277 -0.9053  0.3012
   88MOL   C46142395   6.351   5.423   7.272 -0.6351 -0.5972  0.3536
   88MOL   C46242396   6.459   5.321   7.226  0.2317 -0.9289  0.2180
   88MOL   O46342397   6.541   5.381   7.124 -0.1734  0.0905  0.0644
   88MOL   C46442398   6.670   5.381   7.134  0.0427 -0.5744 -0.9893
   88MOL   O46542399   6.733   5.306   7.213  0.0358 -0.0842 -0.0964
   88MOL   C46642400   6.740   5.456   7.016 -0.2804 -0.2998  0.2832
   88MOL   C46742401   6.683   5.415   6.877  0.1302  0.2441 -0.1998
   88MOL   C46842402   6.786   5.378   6.776 -0.3350 -0.3808  0.4150
   88MOL   O46942403   6.911   5.375   6.794 -0.2065 -0.5500 -0.0558
   88MOL   H47042404   6.244   5.597   7.439  1.2889 -0.2766 -1.1292
   88MOL   H47142405   6.173   5.492   7.560  1.5763  1.0809  0.4907
   88MOL   H47242406   6.252   5.290   7.419  0.6892 -1.3221  1.7217
   88MOL   H47342407   6.371   5.392   7.476 -0.5236 -0.1224 -0.1521
   88MOL   H47442408   6.409   5.514   7.284 -0.7631 -0.0165 -3.0031
   88MOL   H47542409   6.280   5.442   7.192  1.2744 -1.9406 -1.7262
   88MOL   H47642410   6.520   5.297   7.313  1.1351 -0.0947 -0.1719
   88MOL   H47742411   6.412   5.230   7.189 -0.2174 -0.1754 -1.0834
   88MOL   H47842412   6.848   5.438   7.009 -0.6302 -1.4245 -2.7938
   88MOL   H47942413   6.735   5.564   7.030 -1.0070 -0.3185  0.1404
   88MOL   H48042414   6.629   5.321   6.873  0.0871  0.2821 -0.5346
   88MOL   H48142415   6.624   5.502   6.846 -0.0323  0.4808  0.7696
   88MOL   H48242416   6.740   5.348   6.682 -1.5102  1.2388  0.4586
   89MOL     O142417   1.634   4.450   0.782 -0.4626  0.2689 -0.4284
   89MOL     C242418   1.543   4.505   0.694 -0.1724  0.2645 -0.1417
   89MOL     C342419   1.472   4.389   0.631  0.3563  0.3430 -0.3968
   89MOL     C442420   1.398   4.301   0.747  0.4601  0.3211  0.4738
   89MOL     C542421   1.302   4.192   0.705 -0.9602 -0.4657 -0.0315
   89MOL     O642422   1.368   4.097   0.623  0.5924 -0.1817  0.1671
   89MOL     C742423   1.323   4.093   0.493  0.1451  0.6551 -0.9530
   89MOL     O842424   1.231   4.166   0.451 -0.8695 -0.0840 -0.4335
   89MOL     C942425   1.404   4.007   0.409 -0.8891  0.2233 -0.5730
   89MOL    C1042426   1.323   3.957   0.287  0.0153 -0.5844  0.6193
   89MOL    C1142427   1.373   3.831   0.228  0.0750  0.3055 -0.0099
   89MOL    O1242428   1.484   3.776   0.245  0.3382  0.2490  0.1008
   89MOL    H1342429   1.463   4.563   0.741 -0.0039 -0.5357  1.1500
   89MOL    H1442430   1.595   4.574   0.628 -0.0673  0.8842  0.5924
   89MOL    H1542431   1.532   4.326   0.565  0.4227  0.4449 -0.4321
   89MOL    H1642432   1.402   4.443   0.568  0.2920  0.2003 -0.4477
   89MOL    H1742433   1.340   4.358   0.820 -0.5560  0.5899 -0.5361
   89MOL    H1842434   1.477   4.244   0.796  2.7536  0.1134 -3.2817
   89MOL    H1942435   1.252   4.134   0.782  0.2578 -0.2271  0.9550
   89MOL    H2042436   1.219   4.248   0.661  0.2482  0.5179 -1.1103
   89MOL    H2142437   1.431   3.919   0.467 -1.1786 -0.0455 -0.8435
   89MOL    H2242438   1.493   4.060   0.374  0.0978 -2.6472 -2.5545
   89MOL    H2342439   1.220   3.934   0.314 -0.2399 -0.2280 -0.0349
   89MOL    H2442440   1.315   4.031   0.207 -0.1866 -0.2232  0.9722
   89MOL    H2542441   1.710   4.506   0.787  0.5036 -1.0299 -0.2401
   89MOL    O2642442   1.289   3.783   0.133  0.0999  0.1401 -0.3426
   89MOL    C2742443   1.325   3.677   0.052  0.0270  0.2255 -1.3479
   89MOL    C2842444   1.231   3.649   7.815  0.3621  0.3274  0.0001
   89MOL    C2942445   1.183   3.769   7.731 -0.6413  0.7661  0.2667
   89MOL    C3042446   1.095   3.722   7.614 -0.4671  0.4135  0.2889
   89MOL    O3142447   1.023   3.824   7.557 -0.0849  0.0395  0.2714
   89MOL    C3242448   1.083   3.927   7.494 -0.2556  0.0639  0.2476
   89MOL    O3342449   1.201   3.929   7.467 -0.0903 -0.1522 -0.0161
   89MOL    C3442450   0.983   4.034   7.458  0.1456 -0.3970  0.6463
   89MOL    C3542451   1.020   4.108   7.326 -0.1536  0.0854  0.5932
   89MOL    C3642452   1.098   4.238   7.361 -0.0390  0.4530  0.5699
   89MOL    O3742453   1.215   4.243   7.321  0.1082  0.1234 -0.3589
   89MOL    H3842454   1.428   3.693   0.019  0.3105  0.6811 -0.2703
   89MOL    H3942455   1.318   3.592   0.120 -0.6141  0.8889 -0.5802
   89MOL    H4042456   1.135   3.612   7.851 -0.9493  0.3158 -3.3181
   89MOL    H4142457   1.265   3.573   7.745  0.5399 -0.4801  0.9596
   89MOL    H4242458   1.261   3.838   7.699 -1.8737  2.5413  1.0137
   89MOL    H4342459   1.106   3.822   7.786 -3.7309 -4.0438  0.9290
   89MOL    H4442460   1.165   3.687   7.539 -2.1024  0.7863 -1.4643
   89MOL    H4542461   1.031   3.639   7.644 -0.3512 -0.4431 -1.7554
   89MOL    H4642462   0.995   4.090   7.551 -2.6655  0.0932  0.7519
   89MOL    H4742463   0.885   3.987   7.460  0.2569 -0.6687 -0.2146
   89MOL    H4842464   1.081   4.049   7.258 -2.1878 -0.9828 -0.3555
   89MOL    H4942465   0.926   4.122   7.273  1.0738 -0.0039 -1.7195
   89MOL    O5042466   1.041   4.328   7.441 -0.6063 -0.2517  0.2309
   89MOL    C5142467   1.112   4.448   7.473 -0.4513  0.1921 -0.1629
   89MOL    C5242468   1.031   4.545   7.558  0.7128 -0.5466 -0.3133
   89MOL    C5342469   1.120   4.664   7.587  0.3459  0.2572  0.1891
   89MOL    C5442470   1.043   4.771   7.661 -0.0406  0.1087 -0.0108
   89MOL    O5542471   1.016   4.743   7.801 -0.0076  0.5486 -0.3684
   89MOL    C5642472   0.941   4.832   7.861 -0.1715  0.6008  0.6936
   89MOL    O5742473   0.896   4.941   7.823 -0.0124  0.4814 -0.4021
   89MOL    C5842474   0.889   4.769   0.111 -0.0906  0.0891  0.5886
   89MOL    C5942475   0.998   4.779   0.225 -0.1051 -0.1227  0.6763
   89MOL    C6042476   0.938   4.724   0.356  0.4785 -0.6036 -0.1530
   89MOL    O6142477   0.867   4.799   0.425  0.2504  0.2469  0.3757
   89MOL    H6242478   1.200   4.420   7.531 -0.1274  0.1305 -0.6812
   89MOL    H6342479   1.146   4.485   7.376 -0.3194  1.9112  0.5147
   89MOL    H6442480   0.990   4.501   7.649  0.0639 -1.2514 -0.9438
   89MOL    H6542481   0.945   4.570   7.496 -0.1769 -0.6453  0.8775
   89MOL    H6642482   1.156   4.717   7.499  2.0348 -0.2002  0.5784
   89MOL    H6742483   1.203   4.626   7.648 -0.0239 -1.4473 -0.3341
   89MOL    H6842484   1.104   4.861   7.648  1.1231 -0.5960  0.5090
   89MOL    H6942485   0.950   4.796   7.610 -1.1669 -2.7531  0.5177
   89MOL    H7042486   0.849   4.674   0.078 -0.3992  1.1351 -2.1858
   89MOL    H7142487   0.798   4.820   0.143 -0.7653 -0.1710 -0.8736
   89MOL    H7242488   1.085   4.722   0.195  0.2794  0.8332 -0.0407
   89MOL    H7342489   1.037   4.880   0.241  0.0697 -0.5894  3.3289
   89MOL    O7442490   0.975   4.600   0.379  0.3060 -0.3781  0.5645
   89MOL    C7542491   0.963   4.545   0.507  0.6533 -0.0584 -0.3486
   89MOL    C7642492   1.110   4.532   0.558 -0.1011 -0.1582  0.0055
   89MOL    C7742493   1.196   4.660   0.596 -0.4206  0.2820  0.7742
   89MOL    C7842494   1.168   4.716   0.740 -0.4850  0.1939 -0.3008
   89MOL    O7942495   1.207   4.626   0.847  0.1652  0.6171  0.0633
   89MOL    C8042496   1.183   4.669   0.972 -0.1118  0.1882 -0.4681
   89MOL    O8142497   1.114   4.764   1.012 -0.4152 -0.4595 -0.2067
   89MOL    C8242498   1.261   4.586   1.080  0.4158  0.1056  0.8606
   89MOL    C8342499   1.415   4.615   1.074  0.8503 -0.1989 -0.3596
   89MOL    C8442500   1.448   4.754   1.032 -0.3668 -0.7157 -0.3192
   89MOL    O8542501   1.482   4.778   0.916  0.2774  0.4633  0.1172
   89MOL    H8642502   0.913   4.614   0.575 -1.6975  0.8701 -2.9216
   89MOL    H8742503   0.899   4.457   0.508  0.5422  0.0203 -0.4488
   89MOL    H8842504   1.158   4.478   0.476 -1.4423  1.3745 -1.8240
   89MOL    H8942505   1.120   4.459   0.638  0.7244  0.6636  0.6608
   89MOL    H9042506   1.179   4.740   0.523 -2.1240 -0.6124  0.1642
   89MOL    H9142507   1.300   4.631   0.580 -0.4007  0.2242  1.0039
   89MOL    H9242508   1.217   4.813   0.752  1.2035 -0.3006 -3.0104
   89MOL    H9342509   1.062   4.739   0.752 -0.3361  0.1617  1.1519
   89MOL    H9442510   1.240   4.481   1.062 -0.3379  0.3393  0.3728
   89MOL    H9542511   1.213   4.614   1.174 -3.1681 -0.6049 -0.6848
   89MOL    H9642512   1.450   4.607   1.177  2.7903 -0.5799 -1.0411
   89MOL    H9742513   1.464   4.539   1.013  1.0398 -0.6384  0.3311
   89MOL    O9842514   1.440   4.847   1.136  0.2096  0.3820  0.0667
   89MOL    C9942515   1.484   4.974   1.113  0.3635 -0.1742 -0.2949
   89MOL   C10042516   1.358   5.052   1.069  0.3316 -0.1735 -0.1003
   89MOL   C10142517   1.402   5.197   1.063 -0.3101  0.8307 -0.1753
   89MOL   C10242518   1.301   5.289   1.013 -0.1547 -0.0523 -0.2708
   89MOL   O10342519   1.173   5.279   1.071 -0.0171 -0.2232 -0.3053
   89MOL   C10442520   1.141   5.356   1.171  0.1104 -0.5829 -0.3755
   89MOL   O10542521   1.219   5.415   1.250  0.4704  0.4821 -0.0422
   89MOL   C10642522   0.986   5.350   1.211  0.5214 -0.3966 -0.1294
   89MOL   C10742523   0.956   5.243   1.324 -0.5424  0.0855  0.3749
   89MOL   C10842524   0.959   5.305   1.463 -0.2918 -0.0585  0.6072
   89MOL   O10942525   1.056   5.296   1.539  0.1203 -0.1951  0.0185
   89MOL   H11042526   1.517   4.993   1.215  1.2335 -2.4475 -0.1208
   89MOL   H11142527   1.561   4.980   1.036  1.7217 -0.5367  1.0249
   89MOL   H11242528   1.274   5.038   1.138  2.1672 -2.1224  1.8091
   89MOL   H11342529   1.333   5.013   0.970 -0.0653 -0.5954  0.1652
   89MOL   H11442530   1.489   5.214   1.000  0.0954 -0.1806  0.0992
   89MOL   H11542531   1.415   5.223   1.168  1.0554 -1.8714  0.3675
   89MOL   H11642532   1.331   5.391   1.036  2.0111 -0.7618  0.1818
   89MOL   H11742533   1.297   5.287   0.904  1.1431  0.4654 -0.3326
   89MOL   H11842534   0.941   5.294   1.129 -0.8084  0.5743 -0.0718
   89MOL   H11942535   0.940   5.448   1.226  0.1022 -0.1617 -2.7273
   89MOL   H12042536   0.856   5.199   1.321 -0.8970  0.9594 -1.4299
   89MOL   H12142537   1.033   5.166   1.319 -1.9892 -1.2837 -2.3047
   89MOL   O12242538   0.850   5.383   1.486 -1.0918  0.0807  0.2842
   89MOL   C12342539   0.834   5.453   1.605 -0.4468 -0.4070 -0.3264
   89MOL   C12442540   0.687   5.501   1.609 -0.0169  0.5039 -0.1259
   89MOL   C12542541   0.659   5.593   1.722  0.2539  0.0475 -0.0873
   89MOL   C12642542   0.510   5.637   1.741 -0.7206  0.3680 -0.1181
   89MOL   O12742543   0.460   5.698   1.627  0.0797 -0.1736  0.1471
   89MOL   C12842544   0.491   5.824   1.594  0.1415  0.3128  0.1681
   89MOL   O12942545   0.550   5.911   1.656  0.1048  0.3827  0.1125
   89MOL   C13042546   0.460   5.849   1.450 -0.0167 -0.0681  0.0548
   89MOL   C13142547   0.309   5.892   1.424 -0.3239  0.3712  0.2932
   89MOL   C13242548   0.231   5.767   1.390 -0.3245 -0.0516  0.4959
   89MOL   O13342549   0.239   5.705   1.284  0.9031  0.4954 -0.2066
   89MOL   H13442550   0.860   5.387   1.687 -0.7673 -0.1894 -0.0482
   89MOL   H13542551   0.906   5.534   1.615  0.1567 -1.0329  0.3962
   89MOL   H13642552   0.623   5.413   1.621 -1.8191  1.8944  0.7905
   89MOL   H13742553   0.659   5.543   1.513  0.3462 -1.4818 -1.1321
   89MOL   H13842554   0.720   5.683   1.721 -2.5846  2.0718  1.8820
   89MOL   H13942555   0.682   5.539   1.814 -0.5758 -1.0188 -0.4995
   89MOL   H14042556   0.450   5.553   1.775  0.5470 -2.1329 -3.7414
   89MOL   H14142557   0.509   5.705   1.826 -2.5844  0.3963 -0.1540
   89MOL   H14242558   0.482   5.753   1.404  2.6448  1.8073 -2.8148
   89MOL   H14342559   0.531   5.922   1.410  2.6634 -3.3474 -1.4489
   89MOL   H14442560   0.251   5.949   1.497 -1.0820  0.7433 -0.5943
   89MOL   H14542561   0.312   5.956   1.336  2.4577 -0.1716 -0.0490
   89MOL   O14642562   0.146   5.745   1.488  0.2818  0.0386  0.1548
   89MOL   C14742563   0.052   5.638   1.462  0.5676 -0.1038 -0.0104
   89MOL   C14842564   7.873   5.585   1.589  0.0408  0.2281  0.5872
   89MOL   C14942565   0.101   5.490   1.657  0.6828  0.7545  0.2759
   89MOL   C15042566   0.055   5.420   1.781  0.7332 -0.4063 -0.4645
   89MOL   O15142567   0.031   5.511   1.889  0.6408  0.5847 -0.7206
   89MOL   C15242568   0.132   5.543   1.973 -0.1791  0.3222 -0.9713
   89MOL   O15342569   0.248   5.523   1.943  0.1893 -0.2906 -0.0214
   89MOL   C15442570   0.092   5.608   2.107 -0.1259 -0.7370  0.0773
   89MOL   C15542571   0.193   5.712   2.159 -0.7296  0.1008 -0.4039
   89MOL   C15642572   0.278   5.645   2.264  0.6452  0.4862 -0.0963
   89MOL   O15742573   0.235   5.616   2.378 -0.3799 -0.7388  0.5670
   89MOL   H15842574   7.837   5.676   1.414  0.8028  0.5782  0.0808
   89MOL   H15942575   0.101   5.559   1.406  2.0511  1.6083 -1.1908
   89MOL   H16042576   7.787   5.523   1.564 -0.3057  1.3437 -1.0001
   89MOL   H16142577   7.840   5.663   1.658  0.3535  1.0862 -0.2138
   89MOL   H16242578   0.191   5.547   1.683  2.7370 -1.6838 -1.3475
   89MOL   H16342579   0.130   5.420   1.579  0.2270  0.0035  0.7791
   89MOL   H16442580   7.838   5.361   1.769  0.4276 -0.2935  1.1533
   89MOL   H16542581   0.127   5.344   1.811  0.3318 -0.0479  1.4784
   89MOL   H16642582   0.069   5.536   2.186  0.4471  0.0959  1.0200
   89MOL   H16742583   7.872   5.658   2.092 -0.1543 -0.1767  2.0241
   89MOL   H16842584   0.264   5.744   2.083  0.4952  1.7074  1.3570
   89MOL   H16942585   0.144   5.797   2.207 -0.1808 -0.4908  1.2467
   89MOL   O17042586   0.396   5.615   2.220 -0.0435  0.0967 -0.1871
   89MOL   C17142587   0.493   5.541   2.290 -0.2956  0.0279 -0.8213
   89MOL   C17242588   0.520   5.405   2.232 -0.4503  0.3089  0.3109
   89MOL   C17342589   0.592   5.404   2.098 -0.4664  0.5706  0.1222
   89MOL   C17442590   0.623   5.264   2.044  0.4013  0.0886  0.3555
   89MOL   O17542591   0.499   5.198   2.011  0.0251 -0.0894 -0.1613
   89MOL   C17642592   0.493   5.059   2.018 -0.5435 -0.1838  0.7196
   89MOL   O17742593   0.591   4.989   2.040 -0.5551  0.0141 -0.2658
   89MOL   C17842594   0.344   4.995   2.026  0.6469 -0.1539 -0.2182
   89MOL   C17942595   0.252   5.074   1.935  0.0458 -0.2333  0.0985
   89MOL   C18042596   0.146   4.989   1.863  0.5928 -0.5087  0.0778
   89MOL   O18142597   0.141   4.979   1.742 -0.4025  0.0559 -0.0214
   89MOL   H18242598   0.579   5.607   2.292  0.1820 -0.5796 -1.2152
   89MOL   H18342599   0.456   5.527   2.392  0.8277  0.5972 -0.3328
   89MOL   H18442600   0.426   5.349   2.226  1.1886 -2.3789 -1.2366
   89MOL   H18542601   0.583   5.346   2.299 -1.8370  0.1201  1.4945
   89MOL   H18642602   0.677   5.469   2.115  0.1578 -0.2852  0.3077
   89MOL   H18742603   0.531   5.453   2.023  1.8627  0.2065 -2.0499
   89MOL   H18842604   0.693   5.270   1.961  0.6471  0.1525  0.5664
   89MOL   H18942605   0.675   5.208   2.122 -0.5577 -0.0652  0.8903
   89MOL   H19042606   0.305   5.005   2.128 -1.8709  0.8158 -1.2442
   89MOL   H19142607   0.340   4.888   2.002 -1.1734 -0.2971  0.6617
   89MOL   H19242608   0.199   5.162   1.970  1.5888  0.0905  1.7207
   89MOL   H19342609   0.316   5.120   1.860  0.9233 -0.3608  0.7595
   89MOL   O19442610   0.055   4.923   1.935 -0.2482 -0.2434 -0.5241
   89MOL   C19542611   7.820   4.859   1.876  0.5546  0.3710  0.2989
   89MOL   C19642612   7.726   4.807   1.980  0.0547 -0.0232 -0.2190
   89MOL   C19742613   7.606   4.746   1.911  0.1719 -0.4311 -0.2688
   89MOL   C19842614   7.518   4.844   1.832  0.6652 -0.3957 -0.5376
   89MOL   O19942615   7.464   4.934   1.926  0.3517  0.0484  0.0082
   89MOL   C20042616   7.347   4.986   1.900 -0.5257 -0.3759  0.8729
   89MOL   O20142617   7.263   4.944   1.818 -0.4491 -0.2256  0.5610
   89MOL   C20242618   7.314   5.112   1.976 -0.0371 -0.1403  0.2324
   89MOL   C20342619   7.189   5.074   2.058  0.0338 -1.1867  0.0912
   89MOL   C20442620   7.151   5.167   2.169 -0.3401 -0.8017  0.5826
   89MOL   O20542621   7.231   5.197   2.257  0.5786  0.5001 -0.3941
   89MOL   H20642622   7.769   4.927   1.808 -2.3272 -0.3888  1.6432
   89MOL   H20742623   7.860   4.782   1.809 -0.2017  0.6568 -0.4914
   89MOL   H20842624   7.685   4.872   2.057  1.2865  1.4302 -0.7599
   89MOL   H20942625   7.788   4.735   2.033  2.7751  0.7049 -2.2952
   89MOL   H21042626   7.532   4.707   1.981 -0.9177  1.8062 -0.1064
   89MOL   H21142627   7.636   4.663   1.847  1.4581  1.9295 -2.8057
   89MOL   H21242628   7.579   4.902   1.762 -0.9564  1.4571 -0.4689
   89MOL   H21342629   7.445   4.789   1.772  0.5756 -1.7194  0.7914
   89MOL   H21442630   7.294   5.195   1.908 -0.5757 -1.6276 -1.4768
   89MOL   H21542631   7.400   5.139   2.037 -0.5366 -0.1842  0.9555
   89MOL   H21642632   7.110   5.053   1.986 -0.0351 -2.1044  0.4327
   89MOL   H21742633   7.199   4.977   2.106  1.9555 -1.0419  0.0406
   89MOL   O21842634   7.021   5.210   2.156  0.3018 -0.2518  0.2898
   89MOL   C21942635   6.959   5.304   2.239  0.3915 -0.1149 -0.4906
   89MOL   C22042636   6.996   5.439   2.198 -0.7003  0.2229  0.0082
   89MOL   C22142637   6.901   5.553   2.240 -0.4822  0.5094 -0.5821
   89MOL   C22242638   6.755   5.553   2.185  0.6122 -0.3474 -0.0086
   89MOL   O22342639   6.746   5.566   2.042  0.3833  0.5789  0.0733
   89MOL   C22442640   6.743   5.465   1.962  0.3874  0.7602  0.4201
   89MOL   O22542641   6.736   5.346   1.986 -0.5949 -0.4149 -0.5842
   89MOL   C22642642   6.740   5.518   1.821 -0.2903 -0.2386  0.3287
   89MOL   C22742643   6.831   5.428   1.724  0.5288  0.0607  0.1734
   89MOL   C22842644   6.749   5.375   1.609 -0.0413 -0.4318  0.4626
   89MOL   O22942645   6.770   5.397   1.495 -0.5258  0.5093  0.3024
   89MOL   H23042646   6.851   5.294   2.232 -0.0774  2.2637  2.1126
   89MOL   H23142647   6.990   5.287   2.342  0.6000 -1.1573 -0.7258
   89MOL   H23242648   7.008   5.436   2.090 -0.5892 -0.5283  0.0377
   89MOL   H23342649   7.095   5.451   2.242  0.3888  0.8114 -2.5121
   89MOL   H23442650   6.946   5.648   2.210  0.5398 -0.1116 -1.0137
   89MOL   H23542651   6.912   5.548   2.349  1.0782  3.2298 -0.5635
   89MOL   H23642652   6.694   5.469   2.217 -0.4783  0.0946 -0.9062
   89MOL   H23742653   6.705   5.641   2.226  0.1536 -0.5415 -0.1557
   89MOL   H23842654   6.773   5.622   1.825 -1.3233  0.0223  3.0176
   89MOL   H23942655   6.638   5.527   1.782  0.3825 -0.1782 -1.4723
   89MOL   H24042656   6.919   5.484   1.692 -0.0358  0.0987 -1.3366
   89MOL   H24142657   6.869   5.343   1.781  3.2665 -0.1260 -1.8575
   89MOL   O24242658   6.645   5.306   1.662  0.4251 -0.2587 -0.1613
   89MOL   C24342659   6.542   5.272   1.585  0.1327  0.0781  0.0290
   89MOL   C24442660   6.441   5.376   1.563 -0.1589 -0.1751  0.0061
   89MOL   C24542661   6.299   5.337   1.528 -0.0840  0.2943  0.6001
   89MOL   C24642662   6.210   5.460   1.531 -0.3969  0.3297  0.1868
   89MOL   O24742663   6.080   5.414   1.532 -0.0661  0.0096  0.4733
   89MOL   C24842664   5.979   5.497   1.567  0.5528 -0.4318 -0.2417
   89MOL   O24942665   5.995   5.612   1.602 -0.1993  0.4605 -0.5030
   89MOL   C25042666   5.845   5.432   1.547 -0.3070  0.1314  0.4642
   89MOL   C25142667   5.774   5.486   1.411 -0.0263 -0.1763  0.2283
   89MOL   C25242668   5.830   5.416   1.291  0.2163 -0.4556  0.2655
   89MOL   O25342669   5.845   5.295   1.281 -0.3438 -0.9550  0.2377
   89MOL   H25442670   6.581   5.230   1.492  0.7428  1.9668 -0.5928
   89MOL   H25542671   6.489   5.194   1.640  0.2442 -0.2015 -0.2603
   89MOL   H25642672   6.481   5.445   1.488 -1.1658  0.6733  0.2440
   89MOL   H25742673   6.446   5.436   1.655 -0.3128  1.3757 -0.9842
   89MOL   H25842674   6.264   5.260   1.596 -2.7248  1.5939  0.7505
   89MOL   H25942675   6.304   5.301   1.425 -0.7044 -1.0577  1.0394
   89MOL   H26042676   6.230   5.521   1.618 -0.4841 -0.3793  0.7089
   89MOL   H26142677   6.219   5.527   1.446  0.8550  2.0198  1.6456
   89MOL   H26242678   5.786   5.462   1.633  1.2248  1.3122  1.1154
   89MOL   H26342679   5.863   5.324   1.544  1.6747  0.4694 -1.2612
   89MOL   H26442680   5.667   5.471   1.398 -0.0674  0.9919 -0.9490
   89MOL   H26542681   5.792   5.593   1.400  0.8231 -0.0454  2.6670
   89MOL   O26642682   5.856   5.506   1.196 -0.5664  0.5580 -0.4493
   89MOL   C26742683   5.888   5.467   1.058  0.6007  0.1565 -0.4926
   89MOL   C26842684   6.038   5.461   1.046 -0.1010 -0.3410 -0.1523
   89MOL   C26942685   6.107   5.594   1.039  0.4395  0.0008 -0.0639
   89MOL   C27042686   6.100   5.691   1.165  0.0306 -0.3071 -0.1690
   89MOL   O27142687   6.184   5.798   1.122  0.0156  0.6931 -0.2293
   89MOL   C27242688   6.125   5.919   1.104 -0.1024 -0.1222  0.0764
   89MOL   O27342689   6.006   5.952   1.132 -0.0865 -0.3625  0.2773
   89MOL   C27442690   6.215   6.015   1.031  0.0092 -0.0122  0.3342
   89MOL   C27542691   6.180   6.049   0.885  0.4689 -0.4187  0.4327
   89MOL   C27642692   6.256   5.960   0.794  0.1633 -0.3863 -0.2886
   89MOL   O27742693   6.237   5.840   0.796  0.5028 -0.3590  0.4995
   89MOL   H27842694   5.830   5.383   1.022 -0.5724  1.7754 -2.4841
   89MOL   H27942695   5.850   5.553   1.002 -1.1253  0.7334  1.5007
   89MOL   H28042696   6.060   5.414   0.951 -1.5319  0.1599 -0.7438
   89MOL   H28142697   6.090   5.420   1.133  1.6917  1.0272 -0.5545
   89MOL   H28242698   6.066   5.649   0.955 -1.9640  1.4900  2.0161
   89MOL   H28342699   6.213   5.572   1.023  0.6564  0.9760 -0.0127
   89MOL   H28442700   6.003   5.725   1.200  0.5093 -1.8487  2.8577
   89MOL   H28542701   6.148   5.643   1.251 -2.4063 -1.8317  0.3825
   89MOL   H28642702   6.315   5.972   1.034  0.4052  0.9923  2.1682
   89MOL   H28742703   6.238   6.103   1.091  0.3997 -1.5555  2.5070
   89MOL   H28842704   6.075   6.020   0.872  0.4571 -0.8587  1.4243
   89MOL   H28942705   6.185   6.156   0.867  1.0348 -0.6982 -1.0962
   89MOL   O29042706   6.334   6.025   0.718 -0.7187  0.5668  0.0430
   89MOL   C29142707   6.411   5.967   0.611  0.4797 -0.0587 -0.1520
   89MOL   C29242708   6.482   6.081   0.541 -0.5282  0.8076 -0.0270
   89MOL   C29342709   6.609   6.034   0.467  0.4809 -0.1227 -0.0030
   89MOL   C29442710   6.702   6.161   0.441  0.1357 -0.1723 -0.3742
   89MOL   O29542711   6.814   6.121   0.372 -0.1186 -0.2468  0.2112
   89MOL   C29642712   6.924   6.100   0.442 -0.0278  0.5500  0.5192
   89MOL   O29742713   6.935   6.107   0.566 -0.1579  0.1556  0.2037
   89MOL   C29842714   7.028   6.028   0.353 -0.2253  0.2352 -0.0109
   89MOL   C29942715   7.095   5.911   0.417 -0.2210  0.0885  0.0102
   89MOL   C30042716   7.041   5.780   0.367  0.3563 -0.1139  0.0629
   89MOL   O30142717   7.031   5.683   0.437 -0.0619 -0.0759 -0.2190
   89MOL   H30242718   6.491   5.900   0.641  0.4577  0.4043  0.9676
   89MOL   H30342719   6.349   5.904   0.547 -2.6199  0.6000  2.0766
   89MOL   H30442720   6.526   6.148   0.615 -0.1726  0.1333  0.3661
   89MOL   H30542721   6.414   6.141   0.480 -0.2325 -1.1181 -2.3122
   89MOL   H30642722   6.572   5.983   0.378  1.2930  0.8321 -0.8953
   89MOL   H30742723   6.650   5.966   0.542  0.3691  0.6829  0.7995
   89MOL   H30842724   6.642   6.224   0.376 -1.4240 -0.9444  0.3038
   89MOL   H30942725   6.721   6.211   0.536 -1.1649 -2.2742  1.0176
   89MOL   H31042726   7.102   6.101   0.318 -1.8436  1.4986 -0.8417
   89MOL   H31142727   6.968   6.005   0.265  1.0051 -0.9944 -0.5667
   89MOL   H31242728   7.203   5.919   0.403 -0.4695  1.3738 -1.2655
   89MOL   H31342729   7.078   5.916   0.524  1.6881 -0.2933  0.3421
   89MOL   O31442730   7.004   5.781   0.242 -0.1592  0.1285 -0.7149
   89MOL   C31542731   6.913   5.678   0.191 -0.8923  0.2065 -0.3954
   89MOL   C31642732   6.769   5.684   0.246  0.3315  0.1175 -0.0510
   89MOL   C31742733   6.688   5.570   0.190  0.1199 -0.1701 -0.1776
   89MOL   C31842734   6.550   5.543   0.255  0.6359 -0.5420 -0.6173
   89MOL   O31942735   6.465   5.649   0.230  0.6045 -0.1364 -0.2426
   89MOL   C32042736   6.344   5.652   0.288 -0.5171  0.3573 -0.5015
   89MOL   O32142737   6.290   5.561   0.354 -0.3202  0.5347  0.0844
   89MOL   C32242738   6.255   5.769   0.241  0.2310  0.2305 -0.6407
   89MOL   C32342739   6.144   5.803   0.343 -0.2621  0.1159 -0.0556
   89MOL   C32442740   6.102   5.950   0.343  0.0349  0.4350 -0.1481
   89MOL   O32542741   6.170   6.041   0.397 -0.3206  0.3725 -0.3905
   89MOL   H32642742   6.904   5.689   0.083 -0.1340 -1.7326 -0.6728
   89MOL   H32742743   6.970   5.586   0.208 -2.6039 -0.5207  1.6733
   89MOL   H32842744   6.721   5.774   0.208 -0.4746 -0.8031 -1.2637
   89MOL   H32942745   6.763   5.688   0.355  1.4052 -0.4770  0.0415
   89MOL   H33042746   6.739   5.475   0.205  0.6426  0.0936 -0.2861
   89MOL   H33142747   6.697   5.574   0.082  2.2119  1.8301  0.0325
   89MOL   H33242748   6.498   5.451   0.229  1.5485 -1.5818  1.1672
   89MOL   H33342749   6.558   5.540   0.363 -0.5575 -0.4637 -0.5192
   89MOL   H33442750   6.198   5.753   0.149 -2.7281  2.8193  0.6554
   89MOL   H33542751   6.325   5.852   0.227  0.2291  0.3609  0.1062
   89MOL   H33642752   6.056   5.742   0.321 -0.6603  0.7872 -0.3234
   89MOL   H33742753   6.170   5.764   0.442 -2.4632 -0.0768  0.4757
   89MOL   O33842754   5.994   5.970   0.268 -0.2522 -0.0772 -0.3287
   89MOL   C33942755   5.970   6.103   0.229 -0.1255 -0.7772 -0.8698
   89MOL   C34042756   5.974   6.111   0.080 -0.4545  0.3769  0.7193
   89MOL   C34142757   5.958   6.249   0.024 -0.1423 -0.1712 -0.8399
   89MOL   C34242758   5.918   6.239   7.753 -0.3862  0.4884 -0.2544
   89MOL   O34342759   5.860   6.363   7.710 -0.7631  0.1327  0.1156
   89MOL   C34442760   5.735   6.353   7.659  0.0946 -0.5296 -0.2208
   89MOL   O34542761   5.670   6.249   7.638  0.1532 -0.6624  0.1682
   89MOL   C34642762   5.687   6.488   7.609  0.2889 -0.0621  0.2123
   89MOL   C34742763   5.708   6.596   7.718 -0.3826  1.2917 -0.1436
   89MOL   C34842764   5.570   6.653   7.757 -0.3688  0.0652  0.6050
   89MOL   O34942765   5.495   6.586   7.824  0.2686 -0.4138  0.0538
   89MOL   H35042766   5.878   6.141   0.273 -0.0244  0.5191 -1.7522
   89MOL   H35142767   6.046   6.173   0.262 -2.6211  1.1620  0.9466
   89MOL   H35242768   5.895   6.047   0.042  0.1610 -0.1011  0.2341
   89MOL   H35342769   6.064   6.061   0.044  0.3900  1.3718  1.4036
   89MOL   H35442770   6.040   6.321   0.025 -0.9033  0.7468 -2.4003
   89MOL   H35542771   5.882   6.310   0.073  0.8489 -0.2644  0.8370
   89MOL   H35642772   6.010   6.225   7.697 -0.5934  0.3839 -0.5671
   89MOL   H35742773   5.855   6.151   7.743 -1.1501  0.8147  1.4677
   89MOL   H35842774   5.583   6.475   7.579  0.3601 -2.7169  1.0343
   89MOL   H35942775   5.737   6.515   7.515 -0.3848  1.8872  0.4015
   89MOL   H36042776   5.759   6.555   7.805 -0.5243  4.5913  1.5663
   89MOL   H36142777   5.771   6.671   7.671 -0.2553  0.1195 -1.8943
   89MOL   O36242778   5.545   6.764   7.702 -0.9623  0.2819  0.1625
   89MOL   C36342779   5.423   6.831   7.731  0.4752 -0.0301 -0.4729
   89MOL   C36442780   5.387   6.933   7.629  0.6084 -1.1397  0.2598
   89MOL   C36542781   5.315   7.056   7.694  0.4144  0.1804 -0.1521
   89MOL   C36642782   5.307   7.165   7.591 -0.6776  0.0599 -0.3885
   89MOL   O36742783   5.235   7.127   7.479  0.1996 -0.0224  0.2655
   89MOL   C36842784   5.274   7.169   7.355 -0.2531 -0.8133  0.4976
   89MOL   O36942785   5.370   7.240   7.329  0.0278 -0.2653  0.6061
   89MOL   C37042786   5.183   7.122   7.241 -0.0180 -0.3476 -0.8883
   89MOL   C37142787   5.167   6.969   7.247  0.1996 -0.4378  0.2555
   89MOL   C37242788   5.164   6.900   7.108 -0.4584 -0.1972  0.3239
   89MOL   O37342789   5.112   6.960   7.010 -0.0401 -0.5932  0.3793
   89MOL   H37442790   5.340   6.761   7.744  2.7900 -2.7063  0.3311
   89MOL   H37542791   5.445   6.873   7.830  1.8266 -0.6284 -0.5142
   89MOL   H37642792   5.315   6.885   7.562 -0.9521  0.3698  0.8068
   89MOL   H37742793   5.476   6.955   7.570  1.2271  0.8624  1.8695
   89MOL   H37842794   5.373   7.103   7.774 -0.2951  1.7032 -0.5353
   89MOL   H37942795   5.219   7.035   7.741  0.5974  1.4888  0.8499
   89MOL   H38042796   5.259   7.256   7.627 -1.7675 -1.3311  1.8363
   89MOL   H38142797   5.404   7.203   7.561 -0.6620  0.2697 -0.0701
   89MOL   H38242798   5.214   7.151   7.140  1.2956 -1.0103 -0.6906
   89MOL   H38342799   5.082   7.160   7.255 -0.0739 -0.8322  0.0306
   89MOL   H38442800   5.258   6.936   7.297  1.4215 -1.3338 -2.4816
   89MOL   H38542801   5.079   6.948   7.308  0.3481 -0.4877  0.4503
   89MOL   O38642802   5.219   6.776   7.111  0.0152  0.3933 -0.2754
   89MOL   C38742803   5.234   6.700   6.997 -0.2820 -0.6763  0.2475
   89MOL   C38842804   5.267   6.557   7.036 -0.9440  0.5562  0.4260
   89MOL   C38942805   5.388   6.544   7.133  0.1631 -0.2204  0.1243
   89MOL   C39042806   5.447   6.404   7.136 -0.5034  0.4687 -0.8451
   89MOL   O39142807   5.532   6.385   7.016 -0.3943 -0.2195  0.0029
   89MOL   C39242808   5.651   6.447   7.003  0.4233  0.6025 -0.2637
   89MOL   O39342809   5.691   6.538   7.074 -0.0432  0.7725  0.3165
   89MOL   C39442810   5.737   6.398   6.886  0.0375  0.5403 -0.6412
   89MOL   C39542811   5.810   6.518   6.825 -0.6979  0.0927  0.5408
   89MOL   C39642812   5.948   6.536   6.892  0.2411 -0.4045 -0.4372
   89MOL   O39742813   6.020   6.444   6.942 -0.3229  0.5216  0.0225
   89MOL   H39842814   5.142   6.709   6.938  0.1017  3.6339  0.1399
   89MOL   H39942815   5.323   6.738   6.946 -1.7666  0.7980 -1.3147
   89MOL   H40042816   5.281   6.492   6.949 -1.0038 -2.4852  2.5882
   89MOL   H40142817   5.193   6.515   7.105 -0.7077 -0.0219  0.3327
   89MOL   H40242818   5.368   6.573   7.236 -0.3691 -1.3259  0.3390
   89MOL   H40342819   5.450   6.625   7.096 -0.1815  0.3782  0.8377
   89MOL   H40442820   5.513   6.387   7.221 -1.5055 -1.8412 -0.5070
   89MOL   H40542821   5.373   6.327   7.116 -0.6592  0.2912  0.4129
   89MOL   H40642822   5.667   6.347   6.819 -0.2957  0.3077 -0.1158
   89MOL   H40742823   5.803   6.325   6.932 -0.9455  0.2353  0.3119
   89MOL   H40842824   5.843   6.504   6.722  1.3245 -0.4007  1.2379
   89MOL   H40942825   5.746   6.605   6.836 -1.5669 -0.7511  2.3585
   89MOL   O41042826   5.972   6.671   6.910 -0.9014  0.0085 -0.1349
   89MOL   C41142827   6.093   6.720   6.961 -1.4834  0.5481 -0.5029
   89MOL   C41242828   6.078   6.842   7.052 -1.1601 -0.3425 -0.6191
   89MOL   C41342829   6.041   6.965   6.960 -0.3488 -0.1423  0.1722
   89MOL   C41442830   6.168   7.025   6.883  0.3878 -0.1521  0.2146
   89MOL   O41542831   6.127   7.140   6.807  0.0171 -0.0543  0.2246
   89MOL   C41642832   6.081   7.121   6.684  0.4157 -0.2456  0.5294
   89MOL   O41742833   6.060   7.013   6.630 -0.4471  0.2888 -0.3996
   89MOL   C41842834   6.056   7.259   6.611  0.1493 -0.4952 -0.8610
   89MOL   C41942835   6.171   7.357   6.584 -0.3863 -0.2816 -0.9182
   89MOL   C42042836   6.192   7.368   6.435 -0.0336  0.2281  0.3321
   89MOL   O42142837   6.266   7.292   6.376  0.5339  0.1567 -0.0207
   89MOL   H42242838   6.149   6.649   7.021 -3.2510 -0.0694  0.4697
   89MOL   H42342839   6.156   6.744   6.875 -1.1612 -0.3244 -0.5078
   89MOL   H42442840   6.168   6.873   7.106 -1.4394 -0.7728  0.1084
   89MOL   H42542841   6.007   6.819   7.132  0.5747 -2.2491  0.4016
   89MOL   H42642842   6.000   7.044   7.023 -0.1470 -1.1959  1.6522
   89MOL   H42742843   5.972   6.937   6.881  2.3154  3.1230 -3.5362
   89MOL   H42842844   6.240   7.063   6.955 -1.4150  1.3735  1.2701
   89MOL   H42942845   6.213   6.945   6.824 -0.4175  0.7647 -1.6822
   89MOL   H43042846   5.980   7.301   6.677 -1.4886  0.3499 -3.2100
   89MOL   H43142847   5.995   7.227   6.527  0.6619 -2.0650 -0.6547
   89MOL   H43242848   6.157   7.452   6.634 -0.0521 -1.1729  0.9075
   89MOL   H43342849   6.268   7.329   6.624 -1.0814  1.8792  2.4270
   89MOL   O43442850   6.115   7.463   6.377  0.1570  0.1749 -0.1609
   89MOL   C43542851   6.137   7.488   6.239 -0.0664 -0.1340 -0.3491
   89MOL   C43642852   6.052   7.401   6.138  0.1766 -0.5750  0.4951
   89MOL   C43742853   6.064   7.452   5.997  0.8548 -1.1739 -0.0592
   89MOL   C43842854   6.007   7.349   5.890  0.8045  0.1897  0.5665
   89MOL   O43942855   5.982   7.410   5.765 -0.3038 -0.3278  0.2380
   89MOL   C44042856   5.860   7.471   5.742  0.5021  0.1326 -0.3552
   89MOL   O44142857   5.777   7.501   5.830  0.5526  0.1486  0.2968
   89MOL   C44242858   5.839   7.504   5.593 -0.1752 -0.4195 -0.2843
   89MOL   C44342859   5.803   7.385   5.499  0.2089 -0.4730 -0.5418
   89MOL   C44442860   5.922   7.352   5.409 -0.7955 -0.6157 -0.8053
   89MOL   O44542861   5.921   7.358   5.284 -0.0561  0.1952 -0.1413
   89MOL   H44642862   6.144   7.593   6.211 -0.6530 -0.1931 -0.7335
   89MOL   H44742863   6.242   7.464   6.222  0.2740  2.5970 -2.5571
   89MOL   H44842864   5.947   7.405   6.169  0.1308 -0.2201  0.2983
   89MOL   H44942865   6.102   7.304   6.138 -0.7194 -1.0858  2.9262
   89MOL   H45042866   6.172   7.462   5.984  0.9337  0.3502  1.4536
   89MOL   H45142867   6.014   7.549   5.993  1.9747 -0.5269  0.9384
   89MOL   H45242868   6.089   7.278   5.885  1.7502  1.1634  1.6935
   89MOL   H45342869   5.934   7.284   5.939  2.1887 -1.1510  0.8665
   89MOL   H45442870   5.918   7.567   5.551  2.1599 -2.5137  0.7793
   89MOL   H45542871   5.749   7.565   5.592 -1.4391 -2.2391  0.6636
   89MOL   H45642872   5.761   7.295   5.543 -1.6437  0.5364 -0.2077
   89MOL   H45742873   5.725   7.428   5.436  0.5040  0.7080 -0.1143
   89MOL   O45842874   6.036   7.314   5.473  0.2245  0.1188  0.0558
   89MOL   C45942875   6.159   7.306   5.401  0.8409 -0.3717  0.7249
   89MOL   C46042876   6.255   7.239   5.491 -0.7068 -0.4538  0.1796
   89MOL   C46142877   6.300   7.337   5.608  0.6468 -0.2972 -0.2005
   89MOL   C46242878   6.415   7.281   5.689 -0.6160 -0.7437  0.1871
   89MOL   O46342879   6.375   7.171   5.774 -0.1463 -0.0246 -0.2140
   89MOL   C46442880   6.321   7.186   5.899  0.4005 -0.3318 -0.0874
   89MOL   O46542881   6.342   7.287   5.966  0.1015 -0.5111  0.3838
   89MOL   C46642882   6.291   7.054   5.969 -0.3245  0.6755  0.0683
   89MOL   C46742883   6.246   7.058   6.118 -1.3509 -0.5762  1.2007
   89MOL   C46842884   6.107   7.008   6.135  0.1613  0.0353  0.2052
   89MOL   O46942885   6.055   6.938   6.046  0.3523 -0.2356  0.1620
   89MOL   H47042886   6.141   7.234   5.321  1.0993 -0.7837  1.0345
   89MOL   H47142887   6.204   7.397   5.360 -2.4630  1.1245  0.2568
   89MOL   H47242888   6.340   7.221   5.424 -1.1039  1.0915 -0.7461
   89MOL   H47342889   6.217   7.141   5.521 -1.1294  0.0322  1.2313
   89MOL   H47442890   6.220   7.369   5.675  0.6019  0.9166 -0.8174
   89MOL   H47542891   6.343   7.429   5.569 -1.8877  1.6063  1.2865
   89MOL   H47642892   6.492   7.248   5.619 -0.4973  0.1070 -0.0822
   89MOL   H47742893   6.465   7.356   5.750 -2.7539  0.9117 -0.0302
   89MOL   H47842894   6.378   6.993   5.946 -1.3155 -0.3989 -0.8271
   89MOL   H47942895   6.216   7.008   5.905  1.0022 -1.4883  0.0291
   89MOL   H48042896   6.316   6.995   6.171  1.0757 -0.2652 -1.5157
   89MOL   H48142897   6.267   7.160   6.151 -0.9945 -0.4915  0.7252
   89MOL   H48242898   6.060   7.042   6.227 -1.7263  0.1411 -0.7680
   90MOL     O142899   6.041   3.606   1.903 -0.2490 -0.7146  0.5318
   90MOL     C242900   6.141   3.682   1.829  0.0609  0.2585 -0.5806
   90MOL     C342901   6.220   3.580   1.750  0.1634  0.6607 -0.3796
   90MOL     C442902   6.134   3.478   1.674  0.2721  0.1199 -0.2884
   90MOL     C542903   6.088   3.524   1.537 -0.0818 -0.4008  0.3006
   90MOL     O642904   5.994   3.630   1.543  0.3865 -0.0293  0.0863
   90MOL     C742905   5.943   3.690   1.434  0.0004 -0.4145 -0.3070
   90MOL     O842906   5.972   3.655   1.321  0.5428  0.8423 -0.2046
   90MOL     C942907   5.851   3.802   1.474 -0.1002 -0.1494  0.0032
   90MOL    C1042908   5.917   3.906   1.563 -0.2375 -0.1929  0.1787
   90MOL    C1142909   5.991   4.014   1.482 -0.1698 -0.5454 -1.4996
   90MOL    O1242910   6.057   3.988   1.385  0.2383 -0.3723  0.1947
   90MOL    H1342911   6.084   3.747   1.762 -0.5427  1.0348  0.6492
   90MOL    H1442912   6.207   3.735   1.897 -1.2951  1.2868 -0.0286
   90MOL    H1542913   6.276   3.522   1.823 -1.4603  0.2488  0.5674
   90MOL    H1642914   6.293   3.623   1.681  0.4249  0.4803 -0.2139
   90MOL    H1742915   6.047   3.434   1.722 -0.4862  1.8782 -0.0398
   90MOL    H1842916   6.205   3.399   1.649 -0.0522 -0.6129  1.0592
   90MOL    H1942917   6.171   3.566   1.481 -0.0142  1.2812  1.6258
   90MOL    H2042918   6.055   3.433   1.486  0.6239 -0.6426  0.2773
   90MOL    H2142919   5.756   3.772   1.517 -0.6328 -0.7773 -1.5877
   90MOL    H2242920   5.831   3.841   1.375 -0.6069  0.0369  0.1774
   90MOL    H2342921   5.850   3.953   1.635 -0.1462  1.1067 -0.5578
   90MOL    H2442922   5.992   3.862   1.629 -2.3140 -2.0020  1.4090
   90MOL    H2542923   6.000   3.664   1.965 -0.9335 -0.6777  0.0437
   90MOL    O2642924   5.975   4.139   1.537 -0.7640 -0.3498  0.3513
   90MOL    C2742925   6.035   4.251   1.471 -0.2361 -0.4681  0.0779
   90MOL    C2842926   6.171   4.290   1.533  0.1286 -0.4381 -0.6805
   90MOL    C2942927   6.249   4.397   1.465 -0.1985  1.0556 -0.3282
   90MOL    C3042928   6.399   4.380   1.491  0.0859 -0.2150  0.4770
   90MOL    O3142929   6.466   4.502   1.453  0.1212  0.8203 -0.7180
   90MOL    C3242930   6.509   4.597   1.535 -0.3211 -0.7944 -0.2973
   90MOL    O3342931   6.511   4.598   1.659  1.1188  0.3949 -0.0783
   90MOL    C3442932   6.568   4.707   1.454 -0.4315 -0.3832  0.0398
   90MOL    C3542933   6.475   4.750   1.335 -0.0807 -0.0808 -0.0485
   90MOL    C3642934   6.478   4.900   1.312  0.4058  0.0731  0.2099
   90MOL    O3742935   6.453   4.982   1.407 -0.0903 -0.0972  0.4655
   90MOL    H3842936   6.049   4.233   1.365  0.5485  0.2883  0.0441
   90MOL    H3942937   5.971   4.340   1.475 -1.1987 -1.1728  0.5926
   90MOL    H4042938   6.229   4.197   1.539  1.1023  0.2691  1.3552
   90MOL    H4142939   6.139   4.314   1.634 -1.2442 -0.1290 -1.1814
   90MOL    H4242940   6.203   4.484   1.510 -2.3574  0.2957 -0.9717
   90MOL    H4342941   6.234   4.402   1.357 -0.7206  1.6542 -0.2291
   90MOL    H4442942   6.411   4.371   1.599  1.5027  0.6215  0.3990
   90MOL    H4542943   6.449   4.292   1.450  0.7713  0.6082 -0.4631
   90MOL    H4642944   6.669   4.678   1.427  0.1060  0.8206  0.7280
   90MOL    H4742945   6.571   4.791   1.523 -2.0733 -0.9660  0.8577
   90MOL    H4842946   6.525   4.702   1.250  0.4887  0.0694  0.1996
   90MOL    H4942947   6.372   4.715   1.342 -1.6086  3.5221 -2.6406
   90MOL    O5042948   6.510   4.927   1.182  0.6229  0.1099  0.0361
   90MOL    C5142949   6.508   5.060   1.135 -0.2556  0.1676 -0.1499
   90MOL    C5242950   6.646   5.117   1.102  0.2982  0.1666 -0.8289
   90MOL    C5342951   6.632   5.268   1.075 -0.7489  0.1272 -0.2856
   90MOL    C5442952   6.657   5.352   1.200 -0.6417  0.2428 -0.7126
   90MOL    O5542953   6.661   5.489   1.172 -0.1570 -0.4695  0.2316
   90MOL    C5642954   6.556   5.561   1.173 -0.5468  0.4496  0.2693
   90MOL    O5742955   6.445   5.536   1.219  0.3501  0.5229 -0.1756
   90MOL    C5842956   6.576   5.688   1.093  1.0726 -0.2788 -0.0157
   90MOL    C5942957   6.609   5.664   0.941  0.1815  0.0077  0.6825
   90MOL    C6042958   6.684   5.773   0.867 -0.8884  0.0889  0.0491
   90MOL    O6142959   6.652   5.797   0.751  0.0319  0.0573  0.2561
   90MOL    H6242960   6.449   5.068   1.044  4.0750  1.0535 -3.0436
   90MOL    H6342961   6.460   5.128   1.205 -2.9723  1.4960 -3.1973
   90MOL    H6442962   6.674   5.065   1.010 -2.4412 -1.4410 -0.7905
   90MOL    H6542963   6.711   5.102   1.189 -2.3406 -1.5346  0.9172
   90MOL    H6642964   6.544   5.301   1.019 -0.1746  1.9610 -0.1442
   90MOL    H6742965   6.712   5.299   1.008  0.1634  0.2881  0.8740
   90MOL    H6842966   6.573   5.334   1.267  0.5950 -1.4014  0.4563
   90MOL    H6942967   6.749   5.326   1.253 -0.4794  0.8505 -0.7011
   90MOL    H7042968   6.674   5.719   1.129  1.1759 -0.7834  0.1377
   90MOL    H7142969   6.495   5.761   1.099  0.7152 -0.6753  0.0066
   90MOL    H7242970   6.669   5.573   0.937 -1.0210 -0.9343  3.1322
   90MOL    H7342971   6.512   5.646   0.895  0.9903  0.8214 -1.3791
   90MOL    O7442972   6.767   5.835   0.944 -0.3962  0.1985  0.3197
   90MOL    C7542973   6.841   5.948   0.909 -0.2451 -0.2611  0.1949
   90MOL    C7642974   6.838   6.041   1.034 -0.4777  0.4228 -0.3014
   90MOL    C7742975   6.948   6.149   1.037  0.4809 -0.2203 -0.5095
   90MOL    C7842976   6.952   6.230   1.168  0.5066  0.8895  0.4379
   90MOL    O7942977   6.933   6.374   1.142  0.5481  0.2831  0.3673
   90MOL    C8042978   6.940   6.462   1.254  0.2930  0.1095  0.3051
   90MOL    O8142979   6.975   6.435   1.369 -0.1084  0.5210  0.0058
   90MOL    C8242980   6.930   6.609   1.219 -0.3270 -0.0619 -0.0062
   90MOL    C8342981   6.890   6.632   1.066  0.0429  0.0269  0.6333
   90MOL    C8442982   6.864   6.778   1.028 -0.2810  0.4580 -0.1046
   90MOL    O8542983   6.955   6.850   0.991 -0.4096  0.1515 -0.2463
   90MOL    H8642984   6.936   5.902   0.882 -1.3000 -1.2049 -1.9402
   90MOL    H8742985   6.799   5.993   0.820  1.0232  0.9883  0.1977
   90MOL    H8842986   6.852   5.969   1.115  0.0006  1.6807  0.7331
   90MOL    H8942987   6.736   6.078   1.046 -0.0711  1.1615  0.9311
   90MOL    H9042988   6.971   6.214   0.952  1.5990  0.6085  0.4143
   90MOL    H9142989   7.037   6.087   1.036  0.6749  0.0425 -1.8577
   90MOL    H9242990   6.877   6.185   1.233  0.5620  1.2308  0.7410
   90MOL    H9342991   7.050   6.205   1.208  0.8923  0.1776 -0.9034
   90MOL    H9442992   7.023   6.665   1.236 -0.3135 -0.1434  0.1846
   90MOL    H9542993   6.861   6.657   1.288 -0.3976 -0.6693  0.3511
   90MOL    H9642994   6.984   6.626   1.011 -1.3177 -2.2532 -1.4872
   90MOL    H9742995   6.811   6.566   1.031  0.4335 -0.5551  0.8376
   90MOL    O9842996   6.733   6.812   1.040  0.1817 -0.0894 -0.6583
   90MOL    C9942997   6.693   6.950   1.011 -0.3393  0.4561 -0.2072
   90MOL   C10042998   6.558   7.005   1.063  0.6360  0.4307 -0.4192
   90MOL   C10142999   6.431   6.955   0.987  0.0288 -0.6277  0.0912
   90MOL   C10243000   6.378   6.819   1.032  0.6877  0.4551  0.1807
   90MOL   O10343001   6.243   6.798   0.996 -0.2422 -0.3103  0.0160
   90MOL   C10443002   6.192   6.674   1.023 -0.0049 -0.6993 -0.5597
   90MOL   O10543003   6.260   6.574   1.059 -0.4369  0.2437 -0.0567
   90MOL   C10643004   6.040   6.667   0.996 -0.2939  0.0741 -0.0475
   90MOL   C10743005   6.025   6.617   0.856 -0.6968  0.0356  0.7794
   90MOL   C10843006   5.891   6.619   0.796 -1.1218  0.1465 -0.3653
   90MOL   O10943007   5.871   6.688   0.699 -0.1866 -0.5375 -0.3218
   90MOL   H11043008   6.770   7.015   1.054 -1.6715  1.9138  0.0134
   90MOL   H11143009   6.708   6.968   0.905  1.7080 -2.2853 -0.4458
   90MOL   H11243010   6.570   7.113   1.057  2.4548  0.2094 -0.9012
   90MOL   H11343011   6.556   6.989   1.171  1.5682 -0.1087 -0.4764
   90MOL   H11443012   6.450   6.953   0.880  0.3982  0.7163  0.1185
   90MOL   H11543013   6.355   7.033   0.987 -0.1175 -0.7665  0.7067
   90MOL   H11643014   6.438   6.741   0.985  1.1103 -0.2179  1.8074
   90MOL   H11743015   6.379   6.801   1.140  0.5879  0.5200  0.1925
   90MOL   H11843016   5.985   6.758   1.016 -2.9059 -1.7522  1.3103
   90MOL   H11943017   5.998   6.596   1.067  2.2397  0.1074  1.5365
   90MOL   H12043018   6.101   6.659   0.789  0.1235 -3.4875 -0.5942
   90MOL   H12143019   6.060   6.514   0.854 -1.6957 -0.3026  0.6354
   90MOL   O12243020   5.803   6.547   0.862 -0.0550 -0.3120 -0.2876
   90MOL   C12343021   5.668   6.558   0.838  0.5969 -0.4629  0.0338
   90MOL   C12443022   5.599   6.644   0.939  0.2410  0.1007 -0.3719
   90MOL   C12543023   5.617   6.600   1.087  0.7400 -0.1822 -0.3829
   90MOL   C12643024   5.548   6.691   1.189 -0.0147 -0.1219 -0.5161
   90MOL   O12743025   5.554   6.614   1.308  0.2016 -0.5647 -0.0551
   90MOL   C12843026   5.478   6.649   1.412 -0.4201 -0.1125  0.3697
   90MOL   O12943027   5.409   6.751   1.423  0.3688 -0.6555  0.9073
   90MOL   C13043028   5.477   6.545   1.528 -0.1416 -0.2515 -0.0452
   90MOL   C13143029   5.612   6.478   1.548 -0.4355 -0.2093 -0.8103
   90MOL   C13243030   5.705   6.571   1.623  0.8303  0.2422 -1.2940
   90MOL   O13343031   5.660   6.669   1.686  0.9191 -0.3151 -0.6554
   90MOL   H13443032   5.661   6.610   0.742  1.7988 -0.4010 -0.0383
   90MOL   H13543033   5.616   6.462   0.834  1.5104 -0.9334 -1.0723
   90MOL   H13643034   5.494   6.649   0.910  0.1637 -0.4453 -0.1894
   90MOL   H13743035   5.652   6.738   0.922 -0.9853  0.5762 -1.6704
   90MOL   H13843036   5.723   6.597   1.113  0.2724 -0.1535  1.6490
   90MOL   H13943037   5.583   6.497   1.101 -0.0152  0.0327 -0.6264
   90MOL   H14043038   5.593   6.787   1.211 -0.9595  0.4267 -0.9560
   90MOL   H14143039   5.445   6.715   1.163  0.2885  1.2621 -0.4473
   90MOL   H14243040   5.418   6.457   1.500 -1.5185  0.8753 -0.7550
   90MOL   H14343041   5.413   6.580   1.609 -0.0454  0.0316 -0.0922
   90MOL   H14443042   5.607   6.384   1.603 -2.9262  0.7237  0.6106
   90MOL   H14543043   5.661   6.459   1.452 -0.8909 -0.7148 -0.9506
   90MOL   O14643044   5.831   6.531   1.611  0.0375 -0.2952 -0.1080
   90MOL   C14743045   5.929   6.582   1.697 -0.5468 -0.7197  0.1552
   90MOL   C14843046   5.926   6.516   1.838  0.5224 -0.1697  0.2208
   90MOL   C14943047   6.034   6.578   1.929 -0.2334 -0.6453  0.5438
   90MOL   C15043048   6.059   6.490   2.052 -0.3277 -0.5142  0.0060
   90MOL   O15143049   6.061   6.352   2.022 -0.0817  0.5337  0.2460
   90MOL   C15243050   6.086   6.263   2.117  0.0471  0.3620  0.3494
   90MOL   O15343051   6.125   6.281   2.234  0.1751 -0.0893 -0.1816
   90MOL   C15443052   6.052   6.120   2.069  0.1451  0.0697 -0.0470
   90MOL   C15543053   6.045   6.022   2.186  0.5633 -0.2453  0.7111
   90MOL   C15643054   5.901   5.991   2.224 -0.5549 -1.0563 -0.7482
   90MOL   O15743055   5.804   6.073   2.214 -0.5650  0.0113 -0.2899
   90MOL   H15843056   6.023   6.553   1.649 -0.9465  0.4601 -1.3627
   90MOL   H15943057   5.912   6.689   1.697 -2.2950 -0.9626 -1.4771
   90MOL   H16043058   5.940   6.408   1.824  0.5437  0.0048 -1.1491
   90MOL   H16143059   5.829   6.525   1.887  0.6918 -2.6330  1.1154
   90MOL   H16243060   6.010   6.682   1.950  1.1886 -0.1316 -0.2550
   90MOL   H16343061   6.132   6.591   1.883 -0.2264  0.9581  0.9712
   90MOL   H16443062   6.154   6.506   2.103 -0.0740  3.2270 -1.4968
   90MOL   H16543063   5.975   6.489   2.121  0.5396  0.3084  1.0786
   90MOL   H16643064   6.131   6.093   1.999  0.0182  0.5274 -0.3695
   90MOL   H16743065   5.956   6.131   2.018  0.7916 -0.4645 -1.3946
   90MOL   H16843066   6.091   5.932   2.146  0.7225  0.4238 -0.6588
   90MOL   H16943067   6.097   6.062   2.273  1.8629  1.5114 -0.8112
   90MOL   O17043068   5.902   5.882   2.300 -0.1021  0.2879  0.1014
   90MOL   C17143069   5.781   5.815   2.324 -0.6282  0.4345  0.2742
   90MOL   C17243070   5.759   5.780   2.472 -0.4724  0.8653 -0.6713
   90MOL   C17343071   5.755   5.905   2.565  0.1165 -0.0219 -0.4150
   90MOL   C17443072   5.610   5.925   2.629  0.1522  0.5782 -0.0958
   90MOL   O17543073   5.596   5.832   2.736 -0.4349  0.0103  0.5432
   90MOL   C17643074   5.527   5.718   2.723 -0.6330 -0.0151 -0.2770
   90MOL   O17743075   5.443   5.698   2.635  0.2230  0.1431  0.5278
   90MOL   C17843076   5.572   5.622   2.835  0.7059  0.1458  0.4285
   90MOL   C17943077   5.716   5.554   2.813 -0.4525  0.3265  0.6609
   90MOL   C18043078   5.704   5.424   2.738  0.0029  1.0249  0.4821
   90MOL   O18143079   5.624   5.341   2.773  0.2724  0.1045 -0.4886
   90MOL   H18243080   5.697   5.863   2.275 -2.1197 -1.8791  0.4967
   90MOL   H18343081   5.796   5.717   2.278 -0.5582  0.2075  0.7709
   90MOL   H18443082   5.842   5.717   2.504  0.9612  2.5425 -1.0053
   90MOL   H18543083   5.677   5.709   2.476  1.3378 -1.3631 -1.3971
   90MOL   H18643084   5.785   5.987   2.500 -1.3900  2.0680  1.4473
   90MOL   H18743085   5.839   5.899   2.634  0.4682 -1.2211 -0.9394
   90MOL   H18843086   5.600   6.029   2.660 -1.2295  0.4564 -0.0896
   90MOL   H18943087   5.531   5.913   2.555 -0.6738  1.6507  0.5950
   90MOL   H19043088   5.497   5.544   2.846  1.0004 -0.1307  0.5083
   90MOL   H19143089   5.554   5.676   2.928  0.4029  0.6319  0.0867
   90MOL   H19243090   5.785   5.616   2.756  1.1416 -0.7114  1.4251
   90MOL   H19343091   5.756   5.522   2.909 -0.9842 -2.4662 -0.0119
   90MOL   O19443092   5.801   5.406   2.647 -0.0374  0.6003 -0.4547
   90MOL   C19543093   5.812   5.283   2.571  0.4334 -1.0857  0.3427
   90MOL   C19643094   5.928   5.197   2.627 -0.1787  0.5415  0.0457
   90MOL   C19743095   6.059   5.205   2.565 -0.5591 -0.0742  0.1461
   90MOL   C19843096   6.168   5.128   2.648 -0.2754 -0.1543 -0.0591
   90MOL   O19943097   6.189   5.217   2.754  0.4568  0.4816  0.2789
   90MOL   C20043098   6.273   5.184   2.852 -0.2085 -0.7482  0.6943
   90MOL   O20143099   6.340   5.079   2.864  0.4119  0.0380  0.6158
   90MOL   C20243100   6.301   5.299   2.953  0.5470  0.1496  0.6065
   90MOL   C20343101   6.166   5.373   2.986 -0.3910  0.3417 -0.2512
   90MOL   C20443102   6.143   5.510   2.915  0.0456 -0.2336 -0.3506
   90MOL   O20543103   6.207   5.545   2.820 -0.0456  0.5073  0.2838
   90MOL   H20643104   5.716   5.232   2.576 -0.5090  0.4812 -1.0791
   90MOL   H20743105   5.845   5.306   2.469 -1.0772  0.2491  0.1114
   90MOL   H20843106   5.892   5.094   2.630  1.3868  0.0155  1.2888
   90MOL   H20943107   5.942   5.218   2.733 -0.6335 -1.7450  0.5933
   90MOL   H21043108   6.075   5.313   2.555  0.3802 -0.2415 -0.2325
   90MOL   H21143109   6.065   5.172   2.461  0.0215 -1.5735  0.6501
   90MOL   H21243110   6.125   5.033   2.677  0.6813 -0.5788 -0.0145
   90MOL   H21343111   6.263   5.122   2.595  0.6816  2.0152  1.3440
   90MOL   H21443112   6.373   5.361   2.899  1.8454  0.3173  2.4801
   90MOL   H21543113   6.357   5.262   3.039  0.3782 -2.0110 -0.1689
   90MOL   H21643114   6.074   5.317   2.969  0.9516 -2.2112  0.7029
   90MOL   H21743115   6.168   5.386   3.094  0.8233  1.1320 -0.3507
   90MOL   O21843116   6.049   5.585   2.978  0.7388 -1.1702 -0.5374
   90MOL   C21943117   6.007   5.709   2.922 -0.1459 -0.5981  0.0795
   90MOL   C22043118   5.900   5.783   3.001 -0.0254  0.0231 -0.5147
   90MOL   C22143119   5.871   5.918   2.937 -0.6724  0.6587  0.0614
   90MOL   C22243120   5.801   6.012   3.035 -0.5765 -1.0282 -0.1939
   90MOL   O22343121   5.805   6.154   2.987 -0.7595  0.4934 -0.3244
   90MOL   C22443122   5.699   6.204   2.920  0.2669 -0.2526 -0.4469
   90MOL   O22543123   5.600   6.140   2.878  0.2556  0.6941 -0.0587
   90MOL   C22643124   5.723   6.356   2.890 -0.0967  0.0027 -0.3340
   90MOL   C22743125   5.600   6.431   2.842 -0.1879 -0.2790  0.3853
   90MOL   C22843126   5.505   6.483   2.946  0.4358  0.5411  0.8488
   90MOL   O22943127   5.393   6.427   2.961 -0.6771 -0.1077 -0.0568
   90MOL   H23043128   6.096   5.768   2.897 -0.4666 -0.0977  0.1225
   90MOL   H23143129   5.973   5.688   2.820 -0.5601  2.1686 -0.3785
   90MOL   H23243130   5.937   5.811   3.099 -2.8678  2.2208 -0.0016
   90MOL   H23343131   5.810   5.724   3.017 -0.3659  0.2270 -1.5991
   90MOL   H23443132   5.802   5.911   2.853 -0.8566  1.7615  0.1234
   90MOL   H23543133   5.971   5.952   2.910  0.6392 -2.0689  1.2678
   90MOL   H23643134   5.704   5.968   3.057 -0.1433 -1.5215  0.7752
   90MOL   H23743135   5.848   6.022   3.133 -2.2671 -2.5985  0.7995
   90MOL   H23843136   5.787   6.344   2.803 -0.4845 -0.0182 -0.6168
   90MOL   H23943137   5.767   6.414   2.971 -1.6445  1.3532 -0.4332
   90MOL   H24043138   5.631   6.512   2.777 -0.1444 -0.5223  0.1034
   90MOL   H24143139   5.552   6.365   2.769 -1.8379  0.2234  0.9843
   90MOL   O24243140   5.543   6.588   3.014 -0.3102  0.4762  0.3892
   90MOL   C24343141   5.463   6.633   3.132  0.0535  0.1687 -0.3135
   90MOL   C24443142   5.525   6.757   3.196  0.1171  0.5336 -0.0954
   90MOL   C24543143   5.519   6.875   3.095 -0.1726  0.4607 -0.4723
   90MOL   C24643144   5.563   7.011   3.144  0.9627  0.1773  0.2346
   90MOL   O24743145   5.694   7.043   3.182 -0.0696  0.7091  0.3871
   90MOL   C24843146   5.742   7.021   3.298 -0.7492  0.0950 -0.2185
   90MOL   O24943147   5.676   6.999   3.399 -0.0740  0.4650  0.1873
   90MOL   C25043148   5.894   7.039   3.302 -0.1139 -0.8427 -0.2571
   90MOL   C25143149   5.953   6.930   3.395 -0.2485  0.3723 -0.7512
   90MOL   C25243150   6.062   6.853   3.326 -0.4596  0.0702 -0.2129
   90MOL   O25343151   6.112   6.883   3.217 -0.0497 -0.4222  0.0939
   90MOL   H25443152   5.357   6.642   3.111  0.4641  1.0885 -2.0655
   90MOL   H25543153   5.463   6.555   3.208 -2.0927 -1.1401 -1.5995
   90MOL   H25643154   5.628   6.739   3.227  0.5299  1.9218 -0.6116
   90MOL   H25743155   5.465   6.769   3.287  0.3911 -1.6370  0.3937
   90MOL   H25843156   5.416   6.890   3.065 -0.2226 -0.3331 -0.7152
   90MOL   H25943157   5.582   6.845   3.011  0.5326 -1.5992  0.7617
   90MOL   H26043158   5.552   7.082   3.062 -2.6095  1.3544  1.6491
   90MOL   H26143159   5.500   7.050   3.223  0.5526 -0.9939  0.5017
   90MOL   H26243160   5.919   7.141   3.328  1.8121 -1.7218  1.4210
   90MOL   H26343161   5.935   7.019   3.203 -1.2262  1.0420 -1.1150
   90MOL   H26443162   5.996   6.982   3.480 -1.6500 -0.1537  0.2979
   90MOL   H26543163   5.879   6.858   3.429  1.0337 -1.9894 -2.8111
   90MOL   O26643164   6.095   6.743   3.401  0.2734 -0.2917 -0.0324
   90MOL   C26743165   6.199   6.662   3.349  0.4597  0.1839  0.1592
   90MOL   C26843166   6.338   6.721   3.379 -0.1657 -0.1226 -0.1233
   90MOL   C26943167   6.453   6.633   3.323 -0.0382 -0.7166  0.2064
   90MOL   C27043168   6.590   6.708   3.341 -0.6899 -0.2859  0.4579
   90MOL   O27143169   6.625   6.709   3.479  0.7937 -0.0517 -0.1037
   90MOL   C27243170   6.729   6.774   3.530  0.2639  0.8553  0.3046
   90MOL   O27343171   6.815   6.838   3.467  0.1839 -0.1554  0.2554
   90MOL   C27443172   6.736   6.753   3.676 -0.3955 -1.0469 -0.9201
   90MOL   C27543173   6.632   6.854   3.730  0.0197  0.6268 -0.2177
   90MOL   C27643174   6.647   6.871   3.884  0.2291 -0.2760 -0.0522
   90MOL   O27743175   6.671   6.984   3.933  0.2545  0.2701  0.0329
   90MOL   H27843176   6.191   6.559   3.383  0.9075  0.7870  2.2038
   90MOL   H27943177   6.197   6.650   3.241  1.8722 -4.2628  0.5488
   90MOL   H28043178   6.353   6.734   3.486 -0.9225 -0.7393  0.0602
   90MOL   H28143179   6.326   6.823   3.339  1.0672  0.2567  0.4546
   90MOL   H28243180   6.436   6.628   3.215 -2.2743 -1.2406  0.5501
   90MOL   H28343181   6.443   6.531   3.359 -0.4315 -0.5411  0.6065
   90MOL   H28443182   6.667   6.649   3.292 -0.4709 -0.1427  0.6251
   90MOL   H28543183   6.570   6.809   3.305  0.6386  0.4427  1.6946
   90MOL   H28643184   6.837   6.769   3.715 -1.2412 -1.3972  1.4690
   90MOL   H28743185   6.701   6.654   3.706 -1.8993 -0.8547 -1.9949
   90MOL   H28843186   6.639   6.947   3.675  0.0789  1.3060  0.9160
   90MOL   H28943187   6.532   6.817   3.708 -0.1716 -0.6683  2.5781
   90MOL   O29043188   6.649   6.758   3.961  0.0890  0.5883  0.5820
   90MOL   C29143189   6.697   6.761   4.092  0.7713 -0.3525 -0.0292
   90MOL   C29243190   6.700   6.617   4.156  0.1209  0.0353 -0.0535
   90MOL   C29343191   6.826   6.543   4.113  0.4847 -0.2708  0.3999
   90MOL   C29443192   6.812   6.397   4.162 -0.3005  0.6010  0.1495
   90MOL   O29543193   6.703   6.339   4.092  0.0379  0.2879  0.4661
   90MOL   C29643194   6.719   6.209   4.056  0.3597  0.0468 -0.0664
   90MOL   O29743195   6.803   6.126   4.069 -0.4605  0.3991  0.0214
   90MOL   C29843196   6.604   6.156   3.975  0.4930  0.2591 -0.4181
   90MOL   C29943197   6.655   6.134   3.826 -0.1177  0.2013 -0.7663
   90MOL   C30043198   6.609   6.252   3.739 -0.4135 -0.1964  0.0187
   90MOL   O30143199   6.638   6.374   3.765  0.5560 -0.0533 -0.5849
   90MOL   H30243200   6.802   6.793   4.093  0.8786 -0.7272  1.8490
   90MOL   H30343201   6.658   6.845   4.149 -1.3649 -1.5388  0.3112
   90MOL   H30443202   6.605   6.567   4.136  0.4968  0.0053 -1.7949
   90MOL   H30543203   6.714   6.649   4.260  0.6491  0.5075 -0.2655
   90MOL   H30643204   6.912   6.590   4.161  1.2653 -1.8431  0.5697
   90MOL   H30743205   6.844   6.542   4.005  1.1011  0.5566  0.4881
   90MOL   H30843206   6.904   6.342   4.138  0.0929  0.7521  1.2798
   90MOL   H30943207   6.790   6.395   4.269 -0.9612  0.3645  0.0102
   90MOL   H31043208   6.520   6.226   3.981  0.1578  0.0495 -2.4222
   90MOL   H31143209   6.572   6.063   4.022 -2.9622  0.6755 -1.7798
   90MOL   H31243210   6.764   6.141   3.829 -0.0311 -1.0415 -0.8277
   90MOL   H31343211   6.627   6.035   3.790 -1.1270 -0.3796  1.4782
   90MOL   O31443212   6.528   6.210   3.639 -0.0945  0.0015  0.3671
   90MOL   C31543213   6.473   6.305   3.545 -0.1952  0.2523 -0.0899
   90MOL   C31643214   6.376   6.241   3.450 -0.5886  0.4106  0.4191
   90MOL   C31743215   6.453   6.128   3.378  0.0951 -0.0581  1.1854
   90MOL   C31843216   6.381   6.039   3.272 -0.1444  0.5096  0.1636
   90MOL   O31943217   6.337   6.120   3.170 -0.4348  0.2913 -0.0390
   90MOL   C32043218   6.248   6.066   3.084  0.2587  0.2631  0.6527
   90MOL   O32143219   6.203   5.952   3.077  0.4880 -0.4422  0.5137
   90MOL   C32243220   6.202   6.165   2.977 -0.2738 -0.8855  0.1059
   90MOL   C32343221   6.111   6.271   3.035  0.2261  0.2498 -0.0148
   90MOL   C32443222   6.171   6.409   3.042 -0.4374  0.3443  0.1559
   90MOL   O32543223   6.250   6.435   3.132 -0.0236 -0.2012 -0.3509
   90MOL   H32643224   6.424   6.384   3.602  2.1931  1.6622  0.0770
   90MOL   H32743225   6.555   6.344   3.483  0.6974 -0.9955  0.2809
   90MOL   H32843226   6.353   6.323   3.381 -0.3333  0.7598  0.7494
   90MOL   H32943227   6.289   6.212   3.508  0.4885 -0.4126  1.6490
   90MOL   H33043228   6.512   6.069   3.448  0.2253 -2.0290 -0.5054
   90MOL   H33143229   6.535   6.173   3.322  0.4640 -2.7440 -0.5111
   90MOL   H33243230   6.434   5.955   3.226 -2.7830  1.2544 -4.4862
   90MOL   H33343231   6.292   5.990   3.311  0.9847 -0.1466  1.9547
   90MOL   H33443232   6.137   6.107   2.911  0.2119 -1.1050 -0.1837
   90MOL   H33543233   6.280   6.207   2.914  0.5916 -2.1125  0.3412
   90MOL   H33643234   6.018   6.279   2.980 -0.0019 -1.3663  0.1154
   90MOL   H33743235   6.074   6.236   3.131  1.3856  0.1421  0.4101
   90MOL   O33843236   6.121   6.488   2.944  0.6080 -0.6126 -0.1509
   90MOL   C33943237   6.158   6.624   2.938 -0.5880  0.0120  0.1028
   90MOL   C34043238   6.028   6.714   2.941 -0.7927  0.5065 -1.0790
   90MOL   C34143239   5.947   6.687   2.813 -0.6131 -0.4843  0.2919
   90MOL   C34243240   5.805   6.749   2.814 -0.3086 -0.5713 -0.0761
   90MOL   O34343241   5.815   6.886   2.806 -0.5566 -0.2327 -0.0204
   90MOL   C34443242   5.711   6.956   2.780 -0.7847  0.1594  0.0814
   90MOL   O34543243   5.600   6.903   2.759  0.0143 -0.7781  0.0303
   90MOL   C34643244   5.744   7.103   2.759  0.0212 -0.9905  0.5685
   90MOL   C34743245   5.782   7.180   2.879  0.1061 -0.2814  0.3856
   90MOL   C34843246   5.924   7.219   2.874 -0.0934  0.7393  0.4942
   90MOL   O34943247   5.968   7.329   2.847 -0.0528  0.2307 -0.6092
   90MOL   H35043248   6.237   6.655   3.005 -1.1724  0.8706  0.4122
   90MOL   H35143249   6.202   6.660   2.845 -1.1838  0.6747  0.0688
   90MOL   H35243250   6.053   6.817   2.964 -2.1081  0.5618  0.1407
   90MOL   H35343251   5.975   6.695   3.034 -0.2703  2.0637 -0.4426
   90MOL   H35443252   5.934   6.578   2.809  2.6032 -0.8611 -1.1507
   90MOL   H35543253   5.999   6.716   2.722 -1.5264 -0.4767 -0.2377
   90MOL   H35643254   5.738   6.709   2.738 -1.7944  2.3215 -0.3351
   90MOL   H35743255   5.751   6.725   2.906 -1.9952 -0.3521 -0.9909
   90MOL   H35843256   5.650   7.145   2.725  0.2852 -1.6345 -1.0068
   90MOL   H35943257   5.820   7.116   2.682 -1.4317  0.6311 -0.6236
   90MOL   H36043258   5.715   7.266   2.882 -0.1116 -0.4188 -0.4437
   90MOL   H36143259   5.754   7.127   2.971 -1.4932 -0.4115 -0.1674
   90MOL   O36243260   6.007   7.111   2.907 -0.0627 -0.2409 -0.3211
   90MOL   C36343261   6.141   7.149   2.911 -1.2247 -0.6142  0.6695
   90MOL   C36443262   6.195   7.113   2.768  0.3058  0.0811  0.1848
   90MOL   C36543263   6.207   6.962   2.738 -0.6235 -0.6169  0.2860
   90MOL   C36643264   6.318   6.931   2.638  0.4055 -0.0293 -0.3705
   90MOL   O36743265   6.327   6.796   2.622  0.1418 -0.1855  0.1327
   90MOL   C36843266   6.398   6.741   2.524 -0.0698 -0.2313 -0.5094
   90MOL   O36943267   6.448   6.804   2.429 -0.2002  0.6568  0.2237
   90MOL   C37043268   6.407   6.590   2.517 -0.2486 -0.0930 -0.8758
   90MOL   C37143269   6.280   6.522   2.473  0.3599 -0.4376 -0.9285
   90MOL   C37243270   6.219   6.433   2.586 -0.3766  0.2268 -1.0774
   90MOL   O37343271   6.278   6.413   2.698 -0.0573 -0.0913  0.1553
   90MOL   H37443272   6.163   7.250   2.948  1.1524 -0.7425 -0.2945
   90MOL   H37543273   6.191   7.084   2.983 -0.5253 -1.3091 -0.4247
   90MOL   H37643274   6.294   7.157   2.786  0.1761  0.5077 -0.1466
   90MOL   H37743275   6.154   7.168   2.684 -4.5314 -1.7531  1.2104
   90MOL   H37843276   6.109   6.930   2.702 -0.1218 -1.4817 -0.3383
   90MOL   H37943277   6.228   6.902   2.826  2.6511  0.4597  0.2967
   90MOL   H38043278   6.304   6.977   2.540  0.4883  1.6480  0.3775
   90MOL   H38143279   6.405   6.976   2.685 -1.4215 -0.0724  3.2487
   90MOL   H38243280   6.438   6.566   2.618 -1.2068 -2.1451 -1.0348
   90MOL   H38343281   6.486   6.558   2.450  2.8901 -0.4389  2.8640
   90MOL   H38443282   6.211   6.595   2.431 -0.1921 -0.0298  0.6444
   90MOL   H38543283   6.296   6.460   2.385 -1.9757 -0.0486 -1.6643
   90MOL   O38643284   6.105   6.368   2.554 -0.0856 -0.1766 -0.4755
   90MOL   C38743285   6.033   6.283   2.644 -0.7531  0.2150  0.0121
   90MOL   C38843286   5.916   6.229   2.563 -0.3879 -0.2892  0.2565
   90MOL   C38943287   5.824   6.353   2.517 -0.0482  0.3122 -0.3619
   90MOL   C39043288   5.863   6.409   2.377  0.6389  0.2762  0.1892
   90MOL   O39143289   5.761   6.510   2.338 -0.3243  0.0921  0.4782
   90MOL   C39243290   5.761   6.624   2.404 -0.1454  0.4282 -0.3523
   90MOL   O39343291   5.843   6.662   2.486 -0.2139 -0.2679  0.3596
   90MOL   C39443292   5.643   6.710   2.364 -0.2975 -0.7604  0.0616
   90MOL   C39543293   5.524   6.716   2.460 -0.1241  0.2674 -0.0818
   90MOL   C39643294   5.421   6.614   2.411  0.2928  0.5871  0.4143
   90MOL   O39743295   5.316   6.655   2.359 -0.0871  0.5790  0.7198
   90MOL   H39843296   6.101   6.203   2.671  0.6066  0.7444 -1.6999
   90MOL   H39943297   6.009   6.343   2.731 -0.8434 -0.4751  0.4569
   90MOL   H40043298   5.856   6.156   2.616 -0.4905 -0.8623 -0.6485
   90MOL   H40143299   5.953   6.183   2.472 -2.0945  1.1009 -1.1822
   90MOL   H40243300   5.839   6.438   2.584 -0.3328 -0.2815  0.4543
   90MOL   H40343301   5.720   6.324   2.522  0.0152  0.3506  1.5858
   90MOL   H40443302   5.963   6.452   2.372 -0.1140  2.0479 -0.0226
   90MOL   H40543303   5.861   6.338   2.295 -1.7777  1.9479 -1.2802
   90MOL   H40643304   5.612   6.690   2.261 -0.7161 -0.7027  0.1730
   90MOL   H40743305   5.687   6.810   2.367 -2.0551  0.0727 -0.5518
   90MOL   H40843306   5.543   6.695   2.565 -0.2905  1.1519  0.1335
   90MOL   H40943307   5.492   6.820   2.458  0.9285  0.6130  0.8379
   90MOL   O41043308   5.452   6.485   2.430 -0.3855 -0.1888  0.3157
   90MOL   C41143309   5.372   6.381   2.377  0.1380  0.0611  0.3256
   90MOL   C41243310   5.378   6.260   2.477  0.3123 -0.2439 -0.3543
   90MOL   C41343311   5.318   6.318   2.611 -0.0581 -0.4732 -0.2274
   90MOL   C41443312   5.299   6.214   2.724 -0.4341 -0.0753 -0.0851
   90MOL   O41543313   5.232   6.115   2.657 -0.1169  0.2312  0.5282
   90MOL   C41643314   5.105   6.099   2.693  0.0126  0.2087  0.0360
   90MOL   O41743315   5.040   6.165   2.771 -0.0230 -0.1923 -0.3109
   90MOL   C41843316   5.043   5.985   2.608  0.0457  0.3934 -0.6542
   90MOL   C41943317   5.123   5.849   2.627 -0.8971 -0.2217 -0.0507
   90MOL   C42043318   5.188   5.795   2.503 -0.0208  0.3264  0.0773
   90MOL   O42143319   5.172   5.674   2.465  0.1681  0.6559  0.3797
   90MOL   H42243320   5.268   6.411   2.361  0.4440 -0.0910 -2.1142
   90MOL   H42343321   5.405   6.335   2.284  0.5322  0.9912 -0.0028
   90MOL   H42443322   5.474   6.209   2.486  0.8143  1.0991  2.5643
   90MOL   H42543323   5.303   6.190   2.441  0.5796  0.0092 -1.4003
   90MOL   H42643324   5.226   6.373   2.593  1.8580  3.0097  0.0154
   90MOL   H42743325   5.376   6.400   2.654 -0.4334  1.1774 -2.7754
   90MOL   H42843326   5.398   6.182   2.755 -0.6169 -1.9299 -1.3429
   90MOL   H42943327   5.244   6.256   2.809  1.5710 -0.8254  1.6394
   90MOL   H43043328   5.027   6.013   2.504 -1.7451 -0.2210 -0.5654
   90MOL   H43143329   4.938   5.977   2.639  1.2255 -0.5664  3.3382
   90MOL   H43243330   5.201   5.862   2.702 -2.5536 -0.4182  1.7442
   90MOL   H43343331   5.057   5.773   2.669  0.7510 -1.3313  0.5646
   90MOL   O43443332   5.258   5.890   2.434  0.0159  0.2962 -0.2374
   90MOL   C43543333   5.332   5.841   2.321 -0.2988 -0.1071  0.6020
   90MOL   C43643334   5.391   5.960   2.231 -0.1542 -0.7271 -0.4965
   90MOL   C43743335   5.279   6.057   2.183 -0.5588 -0.1237 -0.0255
   90MOL   C43843336   5.208   6.001   2.056 -0.2899 -0.2507 -0.0287
   90MOL   O43943337   5.119   6.104   2.011  0.7226 -0.8417 -0.0095
   90MOL   C44043338   5.034   6.073   1.908 -0.5212  1.2690 -0.1847
   90MOL   O44143339   5.020   5.964   1.853  0.3485 -0.0347 -0.6442
   90MOL   C44243340   4.940   6.184   1.877  0.0108 -0.7047 -0.3605
   90MOL   C44343341   4.793   6.144   1.878 -0.4868 -0.0804 -0.2270
   90MOL   C44443342   4.698   6.271   1.848  0.3705  0.8062 -0.2834
   90MOL   O44543343   4.709   6.351   1.751  0.0329  0.0845  0.2614
   90MOL   H44643344   5.410   5.770   2.349  0.8273  0.9757  0.2904
   90MOL   H44743345   5.260   5.783   2.263  0.0402  1.0973 -1.0553
   90MOL   H44843346   5.449   5.912   2.151 -1.2375 -1.5866 -0.7846
   90MOL   H44943347   5.463   6.016   2.291 -0.9834 -1.1363  0.8939
   90MOL   H45043348   5.318   6.153   2.149  0.6861 -0.7312 -0.3522
   90MOL   H45143349   5.198   6.077   2.253 -2.1337 -2.2657 -1.1603
   90MOL   H45243350   5.282   5.981   1.978  0.0725  0.7567  0.0474
   90MOL   H45343351   5.156   5.907   2.070  1.2455 -1.2497 -0.8614
   90MOL   H45443352   4.960   6.229   1.780  0.7647 -0.8726 -0.2782
   90MOL   H45543353   4.958   6.268   1.945  2.4335 -1.5884  0.1236
   90MOL   H45643354   4.776   6.065   1.806  1.1581 -0.7587  0.0877
   90MOL   H45743355   4.759   6.105   1.974 -0.4275 -0.4707 -0.3660
   90MOL   O45843356   4.610   6.290   1.947 -0.3346 -0.1590 -0.4743
   90MOL   C45943357   4.518   6.390   1.946 -0.3275  0.2717  0.3032
   90MOL   C46043358   4.486   6.450   2.081  0.5070 -0.1548 -0.0527
   90MOL   C46143359   4.609   6.513   2.161 -0.5374  0.6210 -0.3208
   90MOL   C46243360   4.565   6.579   2.295  0.1189  0.0205 -0.5262
   90MOL   O46343361   4.470   6.683   2.275  0.6306 -0.1530 -0.2668
   90MOL   C46443362   4.378   6.714   2.369  0.4244  0.0832  0.2617
   90MOL   O46543363   4.363   6.667   2.484  0.0409 -0.4765  0.5350
   90MOL   C46643364   4.282   6.823   2.321 -0.2228 -0.2394  0.2743
   90MOL   C46743365   4.279   6.955   2.404  0.3797 -0.0475  0.6055
   90MOL   C46843366   4.293   7.077   2.317 -0.7457 -0.4649 -0.7284
   90MOL   O46943367   4.374   7.081   2.220 -0.4688 -0.0757  0.0355
   90MOL   H47043368   4.561   6.467   1.882  2.4754  0.1961  2.0101
   90MOL   H47143369   4.428   6.364   1.891  1.1689 -1.6897 -1.3194
   90MOL   H47243370   4.432   6.382   2.147  1.0256  0.5129  1.0719
   90MOL   H47343371   4.416   6.527   2.050  1.3778  0.3610 -0.7556
   90MOL   H47443372   4.672   6.565   2.090 -1.5995  1.3122 -0.7560
   90MOL   H47543373   4.677   6.434   2.196  0.2941  2.3670  2.1169
   90MOL   H47643374   4.527   6.500   2.359 -2.4281 -0.1341 -2.1595
   90MOL   H47743375   4.655   6.621   2.340  1.6833 -3.5663 -0.1356
   90MOL   H47843376   4.186   6.772   2.320 -0.5000  0.1510 -3.4105
   90MOL   H47943377   4.304   6.853   2.218 -2.4032  3.1014  0.7136
   90MOL   H48043378   4.183   6.969   2.455  0.7191  3.5579  0.3797
   90MOL   H48143379   4.357   6.956   2.480  0.2451  1.5204  0.7412
   90MOL   H48243380   4.239   7.165   2.351 -0.3395 -0.1663 -0.8522
   91MOL     O143381   7.661   0.620   6.658 -0.1127  0.0658 -0.0512
   91MOL     C243382   7.695   0.759   6.669  0.1430  0.2484 -0.1506
   91MOL     C343383   7.834   0.784   6.612  0.3808  0.5047  0.1195
   91MOL     C443384   0.005   0.935   6.628 -0.2793 -0.0221 -0.0690
   91MOL     C543385   0.137   0.965   6.550 -0.5528  0.2272 -0.8413
   91MOL     O643386   0.112   0.980   6.409 -0.9260  0.7178 -0.5438
   91MOL     C743387   0.214   0.981   6.327  0.3634 -0.2185 -0.1123
   91MOL     O843388   0.330   0.968   6.356  0.2971 -0.2255  0.6166
   91MOL     C943389   0.173   1.007   6.184 -0.6559 -0.5015  0.4185
   91MOL    C1043390   0.111   0.888   6.114  0.1033 -0.0297 -0.7134
   91MOL    C1143391   0.045   0.954   5.986  0.4334 -0.4169 -0.3353
   91MOL    O1243392   7.814   1.016   5.991 -0.0790 -0.0738  0.4630
   91MOL    H1343393   7.614   0.810   6.617 -0.6892 -0.5720  0.3285
   91MOL    H1443394   7.708   0.772   6.776  2.0631 -3.8210  0.2321
   91MOL    H1543395   7.834   0.775   6.504  1.9893  3.9580 -0.2368
   91MOL    H1643396   0.033   0.713   6.650  0.7682  1.6167  1.5400
   91MOL    H1743397   0.028   0.945   6.734 -0.3372 -1.6608  0.1104
   91MOL    H1843398   7.801   1.004   6.599 -2.3833 -0.9908  3.1929
   91MOL    H1943399   0.192   1.048   6.595 -0.1947 -0.8329  0.7601
   91MOL    H2043400   0.199   0.876   6.567 -1.2195 -0.0424  0.2044
   91MOL    H2143401   0.251   1.049   6.121 -0.4829 -0.8723  0.3801
   91MOL    H2243402   0.099   1.086   6.199 -1.8631 -1.8045  1.5627
   91MOL    H2343403   0.184   0.819   6.073 -0.8456 -0.8899 -0.9721
   91MOL    H2443404   0.042   0.838   6.183  0.3083 -0.0591 -0.5307
   91MOL    H2543405   7.573   0.610   6.690  0.2877 -2.8376  0.3401
   91MOL    O2643406   0.119   0.928   5.877 -0.7010 -0.4944  0.4390
   91MOL    C2743407   0.108   1.014   5.766 -0.6410 -0.1505 -0.3060
   91MOL    C2843408   0.240   1.054   5.708  0.4229  0.1895  0.3994
   91MOL    C2943409   0.223   1.125   5.578  0.1130  0.5542 -0.3448
   91MOL    C3043410   0.355   1.180   5.515  0.3634  0.9580 -0.4739
   91MOL    O3143411   0.391   1.295   5.573 -0.1228 -0.5181  0.1797
   91MOL    C3243412   0.428   1.402   5.503  0.4980 -0.0236  0.0317
   91MOL    O3343413   0.411   1.426   5.385  0.0657 -0.5459 -0.7955
   91MOL    C3443414   0.498   1.501   5.589 -0.1175  0.2354 -0.5361
   91MOL    C3543415   0.601   1.435   5.682  0.2971  0.1094  0.3248
   91MOL    C3643416   0.677   1.542   5.760 -0.3479 -0.6866  0.6429
   91MOL    O3743417   0.681   1.546   5.882 -0.2191 -0.0330  0.4188
   91MOL    H3843418   0.043   0.973   5.689  2.6114  0.0067 -3.2716
   91MOL    H3943419   0.057   1.099   5.811  0.2616  0.3913 -0.2919
   91MOL    H4043420   0.308   0.970   5.688  0.2023 -0.8892  3.8061
   91MOL    H4143421   0.296   1.116   5.778  2.4341 -0.1142 -0.8748
   91MOL    H4243422   0.150   1.205   5.594 -1.3855 -0.6962 -0.8295
   91MOL    H4343423   0.178   1.058   5.505  2.0010 -0.2649 -0.7760
   91MOL    H4443424   0.437   1.113   5.538  0.8402  1.0380 -1.8834
   91MOL    H4543425   0.346   1.193   5.407  1.6124  0.1896 -0.6787
   91MOL    H4643426   0.420   1.552   5.646  1.9533  2.3260  0.5416
   91MOL    H4743427   0.537   1.577   5.522  0.8379 -1.1375 -1.5469
   91MOL    H4843428   0.545   1.376   5.756  1.7107 -1.5724  0.0957
   91MOL    H4943429   0.672   1.370   5.630 -0.3203  0.6646 -1.2280
   91MOL    O5043430   0.752   1.623   5.678 -0.3138 -0.1627  0.3171
   91MOL    C5143431   0.825   1.730   5.737  0.0957  0.1634 -0.5114
   91MOL    C5243432   0.906   1.808   5.619 -0.3062  0.2119 -0.0988
   91MOL    C5343433   1.008   1.911   5.674  0.4330  0.2580 -0.1032
   91MOL    C5443434   1.113   1.957   5.561  0.1538  0.2804 -0.0764
   91MOL    O5543435   1.183   1.847   5.515 -0.6916  0.0105  0.0808
   91MOL    C5643436   1.302   1.858   5.453 -0.2666 -0.7133  0.4895
   91MOL    O5743437   1.349   1.964   5.405 -0.1378 -0.3952  0.1077
   91MOL    C5843438   1.372   1.726   5.441 -0.1639  0.2508 -0.4676
   91MOL    C5943439   1.522   1.746   5.407  0.0375 -0.5607 -0.0372
   91MOL    C6043440   1.544   1.717   5.264  1.0045 -0.9841 -0.7634
   91MOL    O6143441   1.514   1.798   5.172  0.0061  0.2175 -0.3703
   91MOL    H6243442   0.762   1.797   5.795 -0.2856 -0.1951 -0.5138
   91MOL    H6343443   0.895   1.684   5.807  1.7974 -0.3510 -2.5026
   91MOL    H6443444   0.828   1.852   5.557  0.1650 -2.1015 -2.4509
   91MOL    H6543445   0.949   1.731   5.554 -1.3997  0.7761 -1.5149
   91MOL    H6643446   1.054   1.877   5.767 -1.2919 -1.0131  0.3007
   91MOL    H6743447   0.949   1.997   5.703  3.3174  1.8214  1.3548
   91MOL    H6843448   1.061   2.004   5.477  1.1515  1.0579 -0.2577
   91MOL    H6943449   1.184   2.027   5.604  0.6244  0.6911 -1.5106
   91MOL    H7043450   1.332   1.658   5.366  1.7230  2.2515 -3.3952
   91MOL    H7143451   1.358   1.671   5.534  0.1724  0.7536 -0.1138
   91MOL    H7243452   1.560   1.845   5.431 -0.6280 -0.1183 -0.7971
   91MOL    H7343453   1.574   1.670   5.466 -0.9264  0.5703  2.3377
   91MOL    O7443454   1.585   1.591   5.241 -0.3535  0.0681  0.6021
   91MOL    C7543455   1.597   1.549   5.106 -0.0494 -0.1363  0.4420
   91MOL    C7643456   1.740   1.570   5.047  0.0313  0.2381  0.2436
   91MOL    C7743457   1.842   1.460   5.084 -0.6362 -0.0135  0.2296
   91MOL    C7843458   1.988   1.502   5.055 -0.1077 -0.3621 -1.0547
   91MOL    O7943459   2.064   1.395   5.119 -0.7202 -0.2228  0.2068
   91MOL    C8043460   2.192   1.402   5.126  0.6630 -0.3911 -0.2021
   91MOL    O8143461   2.256   1.501   5.097  0.4181 -1.1326 -0.3181
   91MOL    C8243462   2.257   1.274   5.178  0.0888 -0.1245  0.0715
   91MOL    C8343463   2.210   1.153   5.107 -0.3134  0.4516 -0.2556
   91MOL    C8443464   2.227   1.151   4.956 -0.0508  0.1746 -0.3061
   91MOL    O8543465   2.302   1.232   4.896 -0.1234  0.1021 -0.4235
   91MOL    H8643466   1.568   1.445   5.113 -0.4435 -0.0040  0.7946
   91MOL    H8743467   1.529   1.600   5.037  1.7355  1.2800 -0.3323
   91MOL    H8843468   1.779   1.666   5.081  0.7415 -0.3559  1.1362
   91MOL    H8943469   1.737   1.573   4.938 -0.3270 -1.6878  0.1789
   91MOL    H9043470   1.820   1.362   5.042  0.4788 -0.5109  0.7941
   91MOL    H9143471   1.835   1.441   5.191  1.3529  0.1862  0.4014
   91MOL    H9243472   2.003   1.523   4.949 -0.8920  0.2741 -1.0546
   91MOL    H9343473   1.999   1.599   5.103  1.4840 -1.3296  0.5833
   91MOL    H9443474   2.240   1.257   5.284 -1.7653  0.3852 -0.1233
   91MOL    H9543475   2.364   1.278   5.161  0.4837 -0.1173  2.4362
   91MOL    H9643476   2.258   1.063   5.144 -3.1558 -1.0921 -0.1197
   91MOL    H9743477   2.102   1.155   5.126 -0.3738 -0.2258 -0.5202
   91MOL    O9843478   2.162   1.059   4.883  0.6930 -0.5311  0.4871
   91MOL    C9943479   2.168   1.055   4.740 -0.7247 -0.2280 -0.7963
   91MOL   C10043480   2.115   0.918   4.698  0.3142 -0.3724 -0.2002
   91MOL   C10143481   2.209   0.803   4.752  0.2122 -0.7679 -0.0382
   91MOL   C10243482   2.175   0.656   4.720  0.9045  0.3104 -0.3605
   91MOL   O10343483   2.184   0.639   4.579 -0.1848  0.0010  0.1820
   91MOL   C10443484   2.308   0.605   4.525 -0.2345 -0.2736  0.1072
   91MOL   O10543485   2.405   0.568   4.586  0.2632  0.0354  0.1819
   91MOL   C10643486   2.315   0.623   4.379 -0.9814  0.1694 -0.0895
   91MOL   C10743487   2.304   0.771   4.357  0.0019  0.4853 -0.9990
   91MOL   C10843488   2.164   0.804   4.297  0.4592 -0.5007 -0.3518
   91MOL   O10943489   2.080   0.716   4.274  1.0092 -0.2815  0.3091
   91MOL   H11043490   2.097   1.122   4.693 -0.7340  0.7169  0.5418
   91MOL   H11143491   2.264   1.078   4.695 -0.5304 -0.0666 -0.3035
   91MOL   H11243492   2.117   0.918   4.589 -1.4266 -0.5590 -0.2448
   91MOL   H11343493   2.013   0.900   4.733  0.4637 -1.0016 -0.0761
   91MOL   H11443494   2.222   0.809   4.860 -0.3146  0.3548 -0.0346
   91MOL   H11543495   2.310   0.817   4.713 -0.4460  1.4714 -1.0136
   91MOL   H11643496   2.243   0.582   4.763 -0.2330 -0.6920 -0.2695
   91MOL   H11743497   2.073   0.632   4.748  1.7069 -1.2223  1.3902
   91MOL   H11843498   2.230   0.565   4.344  0.1921 -0.0816 -2.6529
   91MOL   H11943499   2.405   0.582   4.332 -0.8749  0.2951  0.0046
   91MOL   H12043500   2.335   0.826   4.446 -2.3397  0.4391 -0.1229
   91MOL   H12143501   2.371   0.801   4.277  0.6062  1.6611 -0.0597
   91MOL   O12243502   2.130   0.930   4.294 -0.0491  0.0428 -0.4178
   91MOL   C12343503   2.005   0.967   4.223  0.2574 -0.2801 -0.8664
   91MOL   C12443504   1.927   1.078   4.300 -0.0846  0.0758  0.7871
   91MOL   C12543505   2.007   1.207   4.308  0.1419  0.3744 -0.1301
   91MOL   C12643506   1.935   1.320   4.387  0.2906 -0.6704 -0.2933
   91MOL   O12743507   1.908   1.264   4.512 -0.7514 -0.2288 -0.0685
   91MOL   C12843508   1.865   1.344   4.615  0.4703 -0.2858 -0.5179
   91MOL   O12943509   1.837   1.465   4.607  0.1106 -0.0870 -0.0725
   91MOL   C13043510   1.845   1.265   4.739  0.3389 -0.2610  0.3740
   91MOL   C13143511   1.696   1.229   4.766  0.2224 -0.5551 -0.3979
   91MOL   C13243512   1.667   1.080   4.787 -0.6908 -0.4108  0.8612
   91MOL   O13343513   1.752   0.994   4.777  0.3234  0.0038  0.1473
   91MOL   H13443514   2.047   1.006   4.130  1.9399  0.1142  0.0505
   91MOL   H13543515   1.938   0.881   4.212 -0.5166  0.2406 -0.2771
   91MOL   H13643516   1.906   1.031   4.396  0.9655  1.9953  1.9737
   91MOL   H13743517   1.828   1.089   4.254  0.3953 -1.2609 -0.6133
   91MOL   H13843518   2.042   1.241   4.210 -3.4840 -0.7677 -1.9238
   91MOL   H13943519   2.094   1.180   4.368 -1.5457 -1.9990  1.3483
   91MOL   H14043520   1.990   1.412   4.405 -0.9584  0.6736 -3.1335
   91MOL   H14143521   1.843   1.339   4.332 -0.8721 -2.1056  1.1044
   91MOL   H14243522   1.883   1.328   4.820  1.3632  0.1109 -0.3917
   91MOL   H14343523   1.906   1.175   4.739 -1.4221 -1.4868  0.2480
   91MOL   H14443524   1.664   1.275   4.859 -0.0520  0.0668 -0.7948
   91MOL   H14543525   1.625   1.271   4.694 -0.4235  1.9483  1.6624
   91MOL   O14643526   1.534   1.064   4.815 -0.8678 -0.1508  0.3528
   91MOL   C14743527   1.486   0.938   4.851  0.5622  0.4542  0.1761
   91MOL   C14843528   1.368   0.905   4.759  0.1010 -0.2109  0.5982
   91MOL   C14943529   1.345   0.753   4.750  0.7251  0.7558 -0.1345
   91MOL   C15043530   1.204   0.711   4.705 -0.2683 -0.6990  0.2059
   91MOL   O15143531   1.190   0.566   4.721  0.2952  0.0309  0.0183
   91MOL   C15243532   1.084   0.508   4.667  0.4377 -0.1147  0.7358
   91MOL   O15343533   1.020   0.573   4.584  0.3425  0.5305 -0.2341
   91MOL   C15443534   1.070   0.363   4.699 -0.3240 -0.1087  0.2486
   91MOL   C15543535   0.952   0.308   4.623  0.0843 -0.0309 -0.2875
   91MOL   C15643536   0.964   0.154   4.608  0.4236 -0.1188 -0.1329
   91MOL   O15743537   1.063   0.088   4.650  0.4334 -0.5353  0.0778
   91MOL   H15843538   1.565   0.867   4.828  0.6655 -0.2190  2.4598
   91MOL   H15943539   1.450   0.933   4.954  0.3226 -1.8885 -0.0055
   91MOL   H16043540   1.392   0.945   4.660  2.0858  0.3835  1.2991
   91MOL   H16143541   1.281   0.956   4.800  1.4767  1.4146  1.5097
   91MOL   H16243542   1.356   0.724   4.855  0.6325 -2.5973 -1.0100
   91MOL   H16343543   1.423   0.706   4.690  0.9753  0.9690  0.0261
   91MOL   H16443544   1.114   0.760   4.742  1.0723  2.4062 -0.4728
   91MOL   H16543545   1.187   0.746   4.603  1.2541  0.9933  0.4967
   91MOL   H16643546   1.041   0.347   4.803  4.5975  3.4746  2.3485
   91MOL   H16743547   1.167   0.316   4.681 -0.1049  0.1238  0.8295
   91MOL   H16843548   0.859   0.342   4.668 -0.1695  0.2789 -1.0556
   91MOL   H16943549   0.948   0.349   4.523 -1.2715  1.3170  0.3021
   91MOL   O17043550   0.842   0.103   4.561 -0.2057 -0.3528  0.0981
   91MOL   C17143551   0.834   7.839   4.539 -0.4812 -0.1328  0.0018
   91MOL   C17243552   0.765   7.778   4.666 -0.2521  0.5053 -0.2436
   91MOL   C17343553   0.612   7.775   4.651 -0.1430 -0.6367  0.3691
   91MOL   C17443554   0.546   7.717   4.777 -0.4369 -0.6639  0.4499
   91MOL   O17543555   0.409   7.716   4.755  0.6402 -1.0826 -0.1960
   91MOL   C17643556   0.335   7.601   4.764 -0.2452 -0.0368 -1.0781
   91MOL   O17743557   0.382   7.487   4.786 -0.2053  0.0427  0.2606
   91MOL   C17843558   0.189   7.628   4.733 -0.7828 -0.2186  0.2018
   91MOL   C17943559   0.100   7.543   4.823  0.1289 -0.3062  0.2837
   91MOL   C18043560   7.867   7.479   4.741  0.0532  0.8738  0.4390
   91MOL   O18143561   7.857   7.360   4.737 -0.1081  0.2314  0.5909
   91MOL   H18243562   0.768   7.809   4.459  1.4453 -1.8316 -1.0034
   91MOL   H18343563   0.934   7.796   4.528  0.4119  2.0907 -0.8922
   91MOL   H18443564   0.799   7.817   4.762 -0.8092 -1.0514  0.6039
   91MOL   H18543565   0.799   7.674   4.660  0.6435  0.7326  0.7141
   91MOL   H18643566   0.598   7.722   4.557  0.3564  1.0156 -0.6632
   91MOL   H18743567   0.575   7.872   4.616 -0.2582 -1.1244 -0.8934
   91MOL   H18843568   0.592   7.619   4.789  0.5293 -0.2542  0.1325
   91MOL   H18943569   0.556   7.786   4.860  0.5007  0.3588 -0.5010
   91MOL   H19043570   0.176   7.611   4.626  0.8931  0.3510 -0.1035
   91MOL   H19143571   0.179   7.737   4.734 -0.3371 -0.1741 -0.0691
   91MOL   H19243572   0.144   7.452   4.865 -0.7592 -0.2605  1.3303
   91MOL   H19343573   0.052   7.604   4.900 -1.1768 -0.7880 -0.1243
   91MOL   O19443574   7.796   7.562   4.664 -0.8695 -0.1959 -0.2427
   91MOL   C19543575   7.676   7.518   4.594  0.0546  0.5892 -0.6297
   91MOL   C19643576   7.613   7.641   4.530  0.0916 -0.4135  0.4228
   91MOL   C19743577   7.486   7.621   4.446 -0.3129 -0.0698  0.2193
   91MOL   C19843578   7.374   7.548   4.524 -0.8877  0.3967  0.0713
   91MOL   O19943579   7.266   7.540   4.439 -0.0133 -0.1787  0.4029
   91MOL   C20043580   7.137   7.524   4.489 -0.4261  0.3222  0.3162
   91MOL   O20143581   7.114   7.518   4.614 -0.6077  0.0047  0.5549
   91MOL   C20243582   7.030   7.521   4.381  0.0312 -0.0419 -1.1116
   91MOL   C20343583   7.025   7.390   4.293 -0.2098 -0.0050 -0.5716
   91MOL   C20443584   6.916   7.297   4.343 -0.3654  0.6614  0.0281
   91MOL   O20543585   6.941   7.202   4.418 -0.1632  0.5352  0.3440
   91MOL   H20643586   7.681   7.429   4.531 -2.3024  0.9458 -1.3557
   91MOL   H20743587   7.617   7.482   4.678  1.4966  1.9472  1.0202
   91MOL   H20843588   7.695   7.691   4.479 -1.8557  2.1223 -0.3432
   91MOL   H20943589   7.581   7.702   4.615  2.2741  0.3578  0.7091
   91MOL   H21043590   7.505   7.552   4.364  1.6618  0.1296  0.4822
   91MOL   H21143591   7.458   7.722   4.414 -0.8219 -0.1805  0.3122
   91MOL   H21243592   7.407   7.452   4.564  2.5443  0.7155 -1.7255
   91MOL   H21343593   7.356   7.605   4.615  1.2612  0.3936  0.5304
   91MOL   H21443594   7.041   7.610   4.320 -0.8634 -1.8193 -3.9539
   91MOL   H21543595   6.931   7.538   4.425 -0.3258  1.1082 -2.3594
   91MOL   H21643596   6.984   7.413   4.194 -3.8469 -0.6979  0.7005
   91MOL   H21743597   7.124   7.345   4.280 -0.9566 -1.9718  0.4166
   91MOL   O21843598   6.791   7.335   4.308 -0.3215  0.6461  0.0995
   91MOL   C21943599   6.685   7.267   4.362 -0.1453 -0.6745  0.5470
   91MOL   C22043600   6.560   7.322   4.292  0.3204  0.2352  0.4478
   91MOL   C22143601   6.555   7.286   4.143 -0.5842 -0.2186 -0.3394
   91MOL   C22243602   6.420   7.305   4.075 -0.7308 -0.4591 -0.3183
   91MOL   O22343603   6.413   7.444   4.036 -0.0582  0.5453 -0.0230
   91MOL   C22443604   6.299   7.484   3.976 -0.4830  0.0376  0.2741
   91MOL   O22543605   6.200   7.424   3.960  0.5388  0.2056  0.1082
   91MOL   C22643606   6.312   7.631   3.929 -0.3707  0.7434 -0.1726
   91MOL   C22743607   6.363   7.722   4.043  0.2729 -0.5241  0.1732
   91MOL   C22843608   6.269   7.829   4.070  0.0007 -0.4090 -0.0621
   91MOL   O22943609   6.193   7.827   4.166 -0.5066 -0.4750  0.6538
   91MOL   H23043610   6.704   7.159   4.364  1.5289 -0.4351 -1.1848
   91MOL   H23143611   6.685   7.291   4.468  0.7570  0.3296  0.3243
   91MOL   H23243612   6.549   7.430   4.306 -2.7391  0.3789 -2.4739
   91MOL   H23343613   6.468   7.278   4.332 -0.0964 -0.1828 -0.9388
   91MOL   H23443614   6.582   7.184   4.116  1.9199 -0.1319  1.7189
   91MOL   H23543615   6.628   7.346   4.088  0.4879 -1.2789 -0.0981
   91MOL   H23643616   6.429   7.242   3.986 -0.0662 -1.3882  0.3941
   91MOL   H23743617   6.335   7.271   4.134 -2.5550  2.0648 -1.4143
   91MOL   H23843618   6.213   7.660   3.893  0.0446  1.3219 -0.8687
   91MOL   H23943619   6.365   7.648   3.835  0.0873 -1.0419 -0.2591
   91MOL   H24043620   6.382   7.668   4.136 -2.0594 -1.7802 -0.0518
   91MOL   H24143621   6.459   7.761   4.010  0.6633 -0.0791  1.7931
   91MOL   O24243622   6.272   0.058   3.976 -0.2221  0.1736 -0.1850
   91MOL   C24343623   6.207   0.186   3.990  0.2595  0.0019  0.0969
   91MOL   C24443624   6.301   0.295   4.047  0.1699  0.4448 -0.0808
   91MOL   C24543625   6.331   0.279   4.192  0.3042 -0.1325  0.1742
   91MOL   C24643626   6.432   0.384   4.247 -0.4711 -0.3064  1.0578
   91MOL   O24743627   6.448   0.368   4.393  0.4350  0.3124  0.0280
   91MOL   C24843628   6.359   0.435   4.464  0.9196  0.2074 -0.7562
   91MOL   O24943629   6.269   0.514   4.427 -0.1448 -0.3078  0.4769
   91MOL   C25043630   6.372   0.407   4.608  0.6282 -1.1948  0.6665
   91MOL   C25143631   6.510   0.409   4.662 -0.7921 -0.3659 -0.0647
   91MOL   C25243632   6.559   0.267   4.693  0.7925  0.0170 -0.4772
   91MOL   O25343633   6.522   0.168   4.626  0.1020 -0.2289  0.3008
   91MOL   H25443634   6.181   0.232   3.895 -1.2281  0.6710  0.8120
   91MOL   H25543635   6.118   0.177   4.052 -0.8541  3.0316 -0.9364
   91MOL   H25643636   6.268   0.396   4.024  1.4971  1.3474  1.7976
   91MOL   H25743637   6.386   0.264   3.987  0.5423 -0.0565  0.6901
   91MOL   H25843638   6.370   0.181   4.223  0.3596 -0.0576  0.3446
   91MOL   H25943639   6.237   0.284   4.246 -0.1906 -1.7373 -0.4957
   91MOL   H26043640   6.526   0.364   4.196 -0.5877  1.0602  0.3128
   91MOL   H26143641   6.400   0.485   4.222  0.2777 -0.1463  0.7677
   91MOL   H26243642   6.325   0.312   4.629  0.2513 -1.3860 -0.9530
   91MOL   H26343643   6.323   0.493   4.655 -0.0950 -0.9972 -0.4088
   91MOL   H26443644   6.583   0.458   4.597 -2.1939 -0.8480 -2.0773
   91MOL   H26543645   6.511   0.474   4.749  0.1918  1.3923 -1.3531
   91MOL   O26643646   6.658   0.269   4.785 -0.0023 -0.1769  0.0086
   91MOL   C26743647   6.720   0.146   4.829 -0.0989  0.4285 -0.9364
   91MOL   C26843648   6.770   0.151   4.981  0.0295 -0.6435 -0.1998
   91MOL   C26943649   6.890   0.254   4.987  0.3681 -0.4290 -0.4460
   91MOL   C27043650   6.959   0.265   5.116 -0.2828  0.1762 -0.3941
   91MOL   O27143651   7.012   0.144   5.152  0.2031 -0.9918  0.0269
   91MOL   C27243652   7.143   0.129   5.157 -0.0417 -0.5354  0.4173
   91MOL   O27343653   7.225   0.219   5.117  0.2439 -0.3341 -0.1640
   91MOL   C27443654   7.193   7.865   5.201 -0.2686  0.3264 -0.3585
   91MOL   C27543655   7.184   7.856   5.350  0.0487 -0.1994 -0.0079
   91MOL   C27643656   7.131   7.720   5.390 -0.3456  0.6809  0.5139
   91MOL   O27743657   7.013   7.693   5.370  0.4585  0.0582  0.1742
   91MOL   H27843658   6.639   0.073   4.824 -0.3287  0.7267 -1.7508
   91MOL   H27943659   6.788   0.105   4.754 -0.5695 -1.2732 -0.4314
   91MOL   H28043660   6.806   0.062   5.034  2.4757  1.2657  1.4931
   91MOL   H28143661   6.689   0.200   5.034 -0.9732 -1.8493 -0.6104
   91MOL   H28243662   6.851   0.350   4.951 -0.6540 -1.1437 -1.2560
   91MOL   H28343663   6.960   0.218   4.912 -0.7475 -0.4169 -1.5142
   91MOL   H28443664   7.022   0.354   5.115  1.7334 -1.2068 -0.8436
   91MOL   H28543665   6.880   0.286   5.188 -0.5381  0.7752 -0.8506
   91MOL   H28643666   7.297   7.854   5.172 -0.1219  1.2547 -0.2022
   91MOL   H28743667   7.137   7.788   5.148  1.5003 -1.9887  1.0164
   91MOL   H28843668   7.282   0.002   5.395  1.5556  0.3561 -3.4235
   91MOL   H28943669   7.113   0.053   5.390 -0.5620 -1.9384  2.1148
   91MOL   O29043670   7.226   7.638   5.428  0.5360 -0.2112 -0.5221
   91MOL   C29143671   7.198   7.515   5.496  1.1160 -0.1697 -0.1898
   91MOL   C29243672   7.326   7.453   5.536 -0.0788 -0.2171 -0.2323
   91MOL   C29343673   7.321   7.317   5.601 -0.2088  0.0639  0.3306
   91MOL   C29443674   7.445   7.270   5.679  0.0467  0.5374  0.6861
   91MOL   O29543675   7.556   7.267   5.591 -0.1175  0.2816  0.0674
   91MOL   C29643676   7.597   7.145   5.537 -0.2250 -0.7041  0.1383
   91MOL   O29743677   7.550   7.035   5.559 -0.0515 -0.1077  0.6192
   91MOL   C29843678   7.705   7.156   5.428 -0.3193 -0.0664  0.5730
   91MOL   C29943679   7.645   7.208   5.297 -0.1739 -0.2165 -0.0923
   91MOL   C30043680   7.712   7.339   5.259 -0.4076 -0.4694  0.1219
   91MOL   O30143681   7.754   7.350   5.144  0.3260 -0.2188  0.2547
   91MOL   H30243682   7.151   7.539   5.592 -0.2148 -1.6840 -0.4374
   91MOL   H30343683   7.130   7.437   5.462  1.1163 -1.0975  1.8948
   91MOL   H30443684   7.402   7.514   5.584 -0.2041  0.8356 -1.3255
   91MOL   H30543685   7.378   7.442   5.441  0.2787 -2.4877  0.2055
   91MOL   H30643686   7.312   7.251   5.514 -0.3153  0.6515 -0.1133
   91MOL   H30743687   7.236   7.311   5.668 -0.8164  0.6806 -0.3770
   91MOL   H30843688   7.466   7.340   5.760  2.2003  0.7874 -0.0609
   91MOL   H30943689   7.426   7.170   5.720  0.2837  0.6152  0.9919
   91MOL   H31043690   7.747   7.058   5.405 -1.4555 -0.6316  0.8837
   91MOL   H31143691   7.783   7.223   5.464  0.3540  0.0348 -1.0115
   91MOL   H31243692   7.636   7.137   5.215 -1.5314 -0.3412  0.1546
   91MOL   H31343693   7.547   7.248   5.322 -0.7256 -2.4047  1.3486
   91MOL   O31443694   7.718   7.420   5.356 -0.5421 -0.7246  0.1630
   91MOL   C31543695   7.753   7.562   5.333 -0.1164  0.4178 -0.5860
   91MOL   C31643696   7.691   7.673   5.427  0.0653 -0.8164  0.5407
   91MOL   C31743697   7.725   7.652   5.571 -0.5611 -0.2642  0.3238
   91MOL   C31843698   7.696   7.770   5.664 -0.5891 -0.3345 -0.4870
   91MOL   O31943699   7.555   7.784   5.665  0.7143  0.4266 -0.1788
   91MOL   C32043700   7.479   7.744   5.770 -0.4951  0.0970 -0.6329
   91MOL   O32143701   7.523   7.706   5.878 -0.2516 -0.6300 -0.0630
   91MOL   C32243702   7.334   7.766   5.750 -0.0959 -0.3067  0.3522
   91MOL   C32343703   7.285   0.006   5.841 -0.5923 -0.8282  0.2749
   91MOL   C32443704   7.154   0.054   5.791 -0.1426  0.0233 -0.5435
   91MOL   O32543705   7.158   0.147   5.716  0.2649 -0.7734  0.1860
   91MOL   H32643706   7.862   7.557   5.333 -0.1986 -1.7212 -1.2166
   91MOL   H32743707   7.718   7.595   5.236 -3.0448  1.2302  0.6967
   91MOL   H32843708   7.586   7.693   5.407  0.1081  1.2163  2.1441
   91MOL   H32943709   7.732   7.768   5.392 -2.3034 -0.5517 -1.6936
   91MOL   H33043710   7.830   7.625   5.583  0.1318  2.4845  0.8258
   91MOL   H33143711   7.671   7.565   5.610  0.9929 -1.7502 -0.7717
   91MOL   H33243712   7.736   7.746   5.763  1.3501  1.0572 -0.8970
   91MOL   H33343713   7.741   7.865   5.634 -1.4151 -0.0684 -0.8862
   91MOL   H33443714   7.284   7.670   5.764  0.6888 -0.9200 -0.9428
   91MOL   H33543715   7.308   7.798   5.649 -1.1225  0.2675  0.7912
   91MOL   H33643716   7.271   7.844   5.943 -1.7615 -1.3173 -0.0520
   91MOL   H33743717   7.346   0.096   5.849 -0.5074 -1.0016  1.6539
   91MOL   O33843718   7.049   7.850   5.833  0.1329 -0.0524  0.0413
   91MOL   C33943719   6.928   7.853   5.752 -0.1068 -0.0548  0.2095
   91MOL   C34043720   6.846   7.724   5.761 -0.0305 -1.0795  0.1007
   91MOL   C34143721   6.915   7.597   5.700  0.1117 -0.0387  0.5256
   91MOL   C34243722   6.829   7.477   5.726 -0.2896  0.0360 -0.0315
   91MOL   O34343723   6.868   7.379   5.631  0.0570 -0.4905  0.2596
   91MOL   C34443724   6.817   7.253   5.646  0.3003 -0.3021  0.5397
   91MOL   O34543725   6.728   7.222   5.722  0.3913 -0.4744 -0.1776
   91MOL   C34643726   6.885   7.144   5.554 -0.3977 -0.0852 -0.8751
   91MOL   C34743727   6.883   7.186   5.407  0.5562 -0.4231  0.5111
   91MOL   C34843728   6.805   7.090   5.313 -0.1015 -0.1294 -0.4389
   91MOL   O34943729   6.860   7.055   5.213 -0.2955  0.2185  0.0322
   91MOL   H35043730   6.862   0.064   5.765 -2.9487 -2.4189  1.7992
   91MOL   H35143731   6.958   7.863   5.647  0.3311  1.0476  0.4263
   91MOL   H35243732   6.755   7.739   5.703  1.1098 -1.1027 -1.7272
   91MOL   H35343733   6.810   7.704   5.862  3.4714 -1.3442  1.3770
   91MOL   H35443734   7.014   7.581   5.742  0.5943  0.7314 -0.2953
   91MOL   H35543735   6.918   7.605   5.591 -1.0798 -0.3090  0.4613
   91MOL   H35643736   6.860   7.443   5.825 -0.3684  0.3584  0.1039
   91MOL   H35743737   6.724   7.500   5.709 -0.3163 -1.2134 -1.6620
   91MOL   H35843738   6.827   7.053   5.564 -1.5045  0.4545 -2.1824
   91MOL   H35943739   6.980   7.104   5.590 -0.0528  0.2608 -1.3972
   91MOL   H36043740   6.837   7.285   5.401  1.2359 -0.1495 -0.2979
   91MOL   H36143741   6.983   7.182   5.365 -0.3157 -4.0673 -1.3934
   91MOL   O36243742   6.678   7.064   5.335  0.3837  0.7211  0.0314
   91MOL   C36343743   6.610   6.965   5.253  0.5153 -0.1224  0.7773
   91MOL   C36443744   6.458   7.003   5.237  0.0235 -0.5000  0.2236
   91MOL   C36543745   6.435   7.138   5.151  0.0285 -0.9819 -0.2210
   91MOL   C36643746   6.485   7.118   5.005  0.0331 -0.6213  0.0401
   91MOL   O36743747   6.453   7.237   4.932  0.3633 -0.1373  0.3716
   91MOL   C36843748   6.407   7.231   4.805 -0.2119 -0.4671  0.5709
   91MOL   O36943749   6.403   7.123   4.741  0.1991  0.4147  0.2952
   91MOL   C37043750   6.386   7.368   4.738 -0.3012  0.5097 -0.8628
   91MOL   C37143751   6.254   7.375   4.661 -0.2183  0.5046  0.1419
   91MOL   C37243752   6.280   7.437   4.531  0.4751 -0.2546  0.2424
   91MOL   O37343753   6.377   7.511   4.512 -0.1314  0.1989 -0.2016
   91MOL   H37443754   6.649   6.941   5.155 -1.9491 -1.9402  0.1755
   91MOL   H37543755   6.613   6.874   5.313 -0.7866 -0.3164  0.5805
   91MOL   H37643756   6.415   7.005   5.337 -2.2022 -1.4723 -0.6726
   91MOL   H37743757   6.423   6.909   5.193  0.4884  0.2918 -1.9074
   91MOL   H37843758   6.482   7.222   5.202  0.3959 -0.5645 -1.2383
   91MOL   H37943759   6.328   7.160   5.144  0.1169 -0.1565  0.8489
   91MOL   H38043760   6.591   7.092   5.007 -0.0385 -1.0020 -1.0104
   91MOL   H38143761   6.430   7.036   4.961  3.1740 -1.1788 -3.0631
   91MOL   H38243762   6.473   7.367   4.672 -0.1498  1.7120 -0.6735
   91MOL   H38343763   6.405   7.443   4.814 -2.0832 -0.5726  0.7043
   91MOL   H38443764   6.184   7.291   4.653  0.5617 -0.1406 -0.0232
   91MOL   H38543765   6.189   7.455   4.697 -1.0598  0.1829 -0.6246
   91MOL   O38643766   6.180   7.414   4.443  0.2669  0.0899 -0.4164
   91MOL   C38743767   6.179   7.470   4.314  0.5039 -0.2826  1.0507
   91MOL   C38843768   6.052   7.549   4.303 -0.3264 -0.6872  0.6356
   91MOL   C38943769   5.923   7.469   4.325  0.2044  0.1410 -0.9677
   91MOL   C39043770   5.792   7.546   4.316 -0.3369 -0.2604  0.1089
   91MOL   O39143771   5.686   7.456   4.294 -0.1712  0.1067 -0.6596
   91MOL   C39243772   5.556   7.506   4.295  0.5473 -0.4084 -0.6019
   91MOL   O39343773   5.530   7.629   4.302 -0.4580  0.1614  0.0645
   91MOL   C39443774   5.461   7.396   4.255  0.7833 -0.7503  0.5651
   91MOL   C39543775   5.318   7.417   4.310  0.0666  0.0319  0.6168
   91MOL   C39643776   5.240   7.282   4.318  0.1172  0.0557 -0.6772
   91MOL   O39743777   5.273   7.183   4.251  0.1834  0.0677 -0.1106
   91MOL   H39843778   6.273   7.523   4.296 -0.1103  0.3694 -0.2479
   91MOL   H39943779   6.183   7.388   4.242 -1.1462 -0.9426  1.6850
   91MOL   H40043780   6.055   7.604   4.209  0.1666 -0.2084  0.9364
   91MOL   H40143781   6.061   7.630   4.374  0.8543  0.1000 -0.4030
   91MOL   H40243782   5.926   7.410   4.417  1.0835  1.3003 -0.2300
   91MOL   H40343783   5.920   7.382   4.259  0.4096 -1.6775  1.3420
   91MOL   H40443784   5.778   7.613   4.401  0.6916 -0.2980  0.3203
   91MOL   H40543785   5.792   7.609   4.227 -0.7341 -2.5965 -1.5945
   91MOL   H40643786   5.496   7.297   4.285  0.3918 -0.8094  0.8338
   91MOL   H40743787   5.467   7.402   4.147  1.9354  1.3037  0.7344
   91MOL   H40843788   5.321   7.468   4.406  1.2112  0.0227  0.5900
   91MOL   H40943789   5.274   7.485   4.237  0.3142 -2.4777 -1.9866
   91MOL   O41043790   5.128   7.283   4.383 -0.5611 -0.2633  0.2139
   91MOL   C41143791   5.051   7.161   4.399 -0.0403 -0.8162 -0.0371
   91MOL   C41243792   4.939   7.187   4.500  0.5217  0.0172  0.1395
   91MOL   C41343793   4.849   7.070   4.519 -0.1527  0.3985 -0.0236
   91MOL   C41443794   4.746   7.106   4.624  0.1300  0.2827 -0.7538
   91MOL   O41543795   4.651   6.999   4.652 -0.1779 -0.0740  0.0616
   91MOL   C41643796   4.537   7.030   4.723 -0.2425 -0.8366 -0.4692
   91MOL   O41743797   4.510   7.144   4.765 -0.2728 -0.2302  0.1141
   91MOL   C41843798   4.454   6.909   4.772 -0.1015 -0.8159  0.4994
   91MOL   C41943799   4.473   6.867   4.915  0.5305 -0.3203  0.6972
   91MOL   C42043800   4.349   6.897   5.003  0.0900  1.1600 -0.0176
   91MOL   O42143801   4.270   6.812   5.040 -0.4456 -0.3398  0.0944
   91MOL   H42243802   5.010   7.128   4.303 -2.0443  0.7632  0.2387
   91MOL   H42343803   5.106   7.076   4.439 -0.8375 -1.5163 -0.4145
   91MOL   H42443804   4.882   7.274   4.468  0.4828  0.3279  1.0422
   91MOL   H42543805   4.984   7.215   4.595  1.4482  1.1527 -0.6100
   91MOL   H42643806   4.909   6.988   4.557  1.0985  0.9514 -0.7737
   91MOL   H42743807   4.812   7.027   4.425  0.9949 -2.2028  0.6695
   91MOL   H42843808   4.805   7.144   4.708  0.3032  1.5887 -1.4652
   91MOL   H42943809   4.695   7.200   4.601 -2.4748 -0.3535  2.0358
   91MOL   H43043810   4.463   6.822   4.707 -0.3961 -0.9987  0.6992
   91MOL   H43143811   4.350   6.942   4.771  0.0117 -0.3569  1.9074
   91MOL   H43243812   4.502   6.762   4.920  1.5410 -0.0095  1.4745
   91MOL   H43343813   4.552   6.928   4.958  1.0838  0.1145 -0.9173
   91MOL   O43443814   4.350   7.024   5.037 -0.1881 -0.2923  0.3866
   91MOL   C43543815   4.258   7.061   5.144 -0.6919 -0.5451  0.3755
   91MOL   C43643816   4.239   7.209   5.146 -0.6287  0.1081  0.2605
   91MOL   C43743817   4.155   7.247   5.258  0.4435 -0.1050 -0.0311
   91MOL   C43843818   4.145   7.405   5.269 -0.0276 -0.1986 -0.0560
   91MOL   O43943819   4.263   7.447   5.334 -0.3648  0.3495  0.0861
   91MOL   C44043820   4.331   7.558   5.296  0.0251  0.4640 -0.1961
   91MOL   O44143821   4.304   7.632   5.202 -0.5667 -0.4857 -0.9354
   91MOL   C44243822   4.452   7.577   5.386  0.7111 -0.4244  0.3161
   91MOL   C44343823   4.536   7.701   5.353  0.2565  0.1169  0.0034
   91MOL   C44443824   4.683   7.682   5.299 -0.0636  1.0257 -0.2480
   91MOL   O44543825   4.754   7.581   5.333  0.1113 -0.2016  0.0396
   91MOL   H44643826   4.165   7.009   5.125 -0.0273 -0.8934 -2.0654
   91MOL   H44743827   4.314   7.020   5.228  1.1472 -0.6814 -0.8828
   91MOL   H44843828   4.205   7.244   5.048 -0.3855  1.4477  0.6377
   91MOL   H44943829   4.342   7.244   5.154 -0.2751 -0.9156  0.2240
   91MOL   H45043830   4.166   7.208   5.359  2.1650  1.5577  0.4512
   91MOL   H45143831   4.053   7.219   5.231 -0.3966  2.5199  0.2525
   91MOL   H45243832   4.123   7.457   5.176 -2.2329  0.2859  0.7157
   91MOL   H45343833   4.066   7.438   5.336 -0.1089  0.6165 -0.5497
   91MOL   H45443834   4.523   7.495   5.376  0.2684 -0.8239  0.4326
   91MOL   H45543835   4.429   7.557   5.491  4.3253 -3.5595  0.6213
   91MOL   H45643836   4.478   7.759   5.281 -1.9627 -1.4684  0.4588
   91MOL   H45743837   4.547   7.758   5.446 -0.0714  0.6310 -0.2658
   91MOL   O45843838   4.721   7.757   5.198  0.0214 -0.6098 -0.3226
   91MOL   C45943839   4.847   7.719   5.143  0.7871 -0.4464  0.3139
   91MOL   C46043840   4.901   7.819   5.034  0.0078 -0.0961 -0.0028
   91MOL   C46143841   4.802   7.848   4.923  0.2101 -0.5193  0.4327
   91MOL   C46243842   4.843   0.074   4.812 -0.0966  0.6770  0.9149
   91MOL   O46343843   4.939   0.019   4.724  0.3150 -0.7191 -0.1250
   91MOL   C46443844   5.056   0.072   4.710 -1.0560  0.2913 -0.0264
   91MOL   O46543845   5.096   0.173   4.766  0.0295 -0.2292  0.3724
   91MOL   C46643846   5.153   7.863   4.620 -0.3186 -0.0833 -0.4782
   91MOL   C46743847   5.136   0.029   4.471 -0.5619 -0.8232  0.3789
   91MOL   C46843848   5.111   7.800   4.364 -0.3586  0.0869  0.7441
   91MOL   O46943849   5.172   7.692   4.365 -0.5018 -0.7728 -0.0468
   91MOL   H47043850   4.919   7.713   5.224 -0.3714  0.3959  1.4262
   91MOL   H47143851   4.844   7.621   5.096  1.0351  0.2510 -1.2054
   91MOL   H47243852   4.992   7.785   4.985  0.4227 -0.4951  1.0379
   91MOL   H47343853   4.941   0.037   5.077 -2.6942  1.7550 -1.3610
   91MOL   H47443854   4.707   0.008   4.964 -0.4508 -0.5816 -0.9853
   91MOL   H47543855   4.768   7.755   4.876 -2.1597  0.2317  0.5887
   91MOL   H47643856   4.761   0.118   4.756 -1.6892  0.0605  2.6935
   91MOL   H47743857   4.882   0.163   4.861  0.8474  1.6553 -1.5128
   91MOL   H47843858   5.122   7.758   4.618  0.5856 -0.4107  1.6392
   91MOL   H47943859   5.255   7.865   4.658  0.1809  0.2646 -1.7969
   91MOL   H48043860   5.052   0.098   4.461  0.9671  1.2510  1.4927
   91MOL   H48143861   5.225   0.089   4.453 -0.9142 -0.7301 -1.0700
   91MOL   H48243862   5.038   7.818   4.285  1.3343 -0.9088 -1.0646
   92MOL     O143863   5.556   7.356   4.987  0.0080 -0.5738  0.1192
   92MOL     C243864   5.642   7.400   5.089 -0.1046 -0.7248  0.7223
   92MOL     C343865   5.627   7.559   5.101 -1.2466  0.5155  0.4696
   92MOL     C443866   5.703   7.617   5.218  0.2815  0.3439 -0.3906
   92MOL     C543867   5.709   7.772   5.206  0.5729 -0.1740  0.4288
   92MOL     O643868   5.781   7.825   5.092 -0.7923 -0.0600  0.3456
   92MOL     C743869   5.781   0.078   5.075 -0.0301  0.1358 -1.3776
   92MOL     O843870   5.747   0.164   5.161  0.1185 -0.4450 -0.1310
   92MOL     C943871   5.834   0.119   4.938 -0.2383 -0.3063 -0.1577
   92MOL    C1043872   5.831   0.272   4.894 -0.1425 -0.6844  0.3591
   92MOL    C1143873   5.973   0.326   4.899  0.0222  0.1984 -0.7418
   92MOL    O1243874   6.040   0.359   4.799  0.3827  0.3849 -0.5167
   92MOL    H1343875   5.615   7.357   5.186  2.3928  1.0596  2.2685
   92MOL    H1443876   5.741   7.361   5.068 -0.6102 -0.7172 -1.7977
   92MOL    H1543877   5.521   7.583   5.105 -1.2381  0.5184  0.7182
   92MOL    H1643878   5.661   7.601   5.006 -1.4969 -0.3710 -0.0095
   92MOL    H1743879   5.803   7.575   5.225  0.8546  1.2626 -2.7254
   92MOL    H1843880   5.655   7.586   5.311  1.9622  1.2298  0.7896
   92MOL    H1943881   5.609   7.816   5.201  0.3434 -0.7420 -0.0199
   92MOL    H2043882   5.752   7.804   5.301 -1.4590  1.4326  0.8414
   92MOL    H2143883   5.777   0.069   4.860 -2.4191  0.7444  0.7217
   92MOL    H2243884   5.936   0.081   4.926 -0.1052 -0.0936  0.3103
   92MOL    H2343885   5.785   0.293   4.797  0.0270  0.8142  0.5830
   92MOL    H2443886   5.773   0.332   4.964 -1.7873  0.2334 -1.7233
   92MOL    H2543887   5.566   7.262   4.980  2.4305 -0.1950 -2.4189
   92MOL    O2643888   6.023   0.321   5.028  0.0267 -0.1288  0.0873
   92MOL    C2743889   6.162   0.335   5.053  0.0112  0.4447 -0.4978
   92MOL    C2843890   6.218   0.194   5.017  0.0849 -0.0978  0.2866
   92MOL    C2943891   6.363   0.177   5.057 -0.3386  0.8780 -0.6051
   92MOL    C3043892   6.409   0.040   5.010 -0.3855  0.1547 -0.7731
   92MOL    O3143893   6.345   7.805   5.069  0.0481 -0.1792 -0.5675
   92MOL    C3243894   6.354   7.682   5.005 -0.0150  0.4646 -0.3182
   92MOL    O3343895   6.406   7.669   4.891  0.0575 -0.1840  0.3139
   92MOL    C3443896   6.296   7.558   5.083 -0.4248 -0.1141 -0.1768
   92MOL    C3543897   6.160   7.592   5.157 -0.5402  0.1851  0.3229
   92MOL    C3643898   6.167   7.670   5.294 -0.3554  0.6808  0.9243
   92MOL    O3743899   6.214   7.618   5.397  0.4351  0.7209 -0.0291
   92MOL    H3843900   6.208   0.416   4.995 -0.2848  1.3376  0.4864
   92MOL    H3943901   6.169   0.356   5.160  1.6506 -1.4763 -0.2042
   92MOL    H4043902   6.218   0.192   4.908  0.9484  1.8963  0.2356
   92MOL    H4143903   6.147   0.116   5.044  0.5857 -0.3869  0.7849
   92MOL    H4243904   6.379   0.170   5.165  0.0723 -0.2940 -0.7345
   92MOL    H4343905   6.422   0.254   5.008  0.4658  0.6080 -0.0629
   92MOL    H4443906   6.389   0.030   4.903 -1.2758  1.2336 -0.7275
   92MOL    H4543907   6.515   0.028   5.030 -0.6484 -1.5878 -0.3318
   92MOL    H4643908   6.377   7.517   5.142  0.6708 -1.4704 -2.5376
   92MOL    H4743909   6.272   7.483   5.008 -1.7509  0.0579  0.0575
   92MOL    H4843910   6.100   7.650   5.087 -1.6726  0.1923  1.2909
   92MOL    H4943911   6.115   7.494   5.169  0.8639 -0.3876  1.0168
   92MOL    O5043912   6.123   7.785   5.285  0.4405  0.4840  0.2767
   92MOL    C5143913   6.097   7.867   5.396  0.5220  0.2170 -0.1078
   92MOL    C5243914   6.020   0.118   5.352  0.3390  0.2985 -0.1920
   92MOL    C5343915   6.014   0.217   5.466 -0.2631  0.1165 -0.5938
   92MOL    C5443916   5.930   0.335   5.424  0.0572  0.2521 -0.3901
   92MOL    O5543917   5.883   0.405   5.532  0.3215  0.3986  0.1479
   92MOL    C5643918   5.960   0.483   5.609  0.6440 -1.3278  0.0216
   92MOL    O5743919   6.071   0.525   5.576  0.1394 -0.3749  0.0310
   92MOL    C5843920   5.894   0.527   5.739 -0.2569 -1.0046 -0.5412
   92MOL    C5943921   5.742   0.535   5.729  0.2029 -0.2873 -0.2121
   92MOL    C6043922   5.686   0.663   5.668  0.6319 -1.0562  0.5910
   92MOL    O6143923   5.634   0.669   5.556  0.4346  0.8291 -0.4089
   92MOL    H6243924   6.027   7.814   5.461 -1.3035 -1.9746 -3.7055
   92MOL    H6343925   6.186   0.029   5.448  1.0847 -0.2848 -0.6980
   92MOL    H6443926   5.925   0.081   5.313  1.5634 -2.7009 -0.5118
   92MOL    H6543927   6.073   0.165   5.269  0.0939 -2.5843 -2.0736
   92MOL    H6643928   6.112   0.256   5.494 -0.5577  1.3129 -1.1952
   92MOL    H6743929   5.964   0.174   5.553 -0.0963 -0.4812 -0.7878
   92MOL    H6843930   5.987   0.409   5.368  0.4605 -0.3037 -0.7045
   92MOL    H6943931   5.844   0.314   5.360 -1.0302 -0.2868  1.2222
   92MOL    H7043932   5.926   0.628   5.765 -2.3408 -0.7435  1.1694
   92MOL    H7143933   5.924   0.456   5.814  2.8998 -0.2426 -1.0233
   92MOL    H7243934   5.690   0.458   5.670  0.0379  0.1799 -0.6780
   92MOL    H7343935   5.693   0.527   5.826  0.0067  4.3287  0.1680
   92MOL    O7443936   5.693   0.770   5.757  0.8821  0.6263 -0.4969
   92MOL    C7543937   5.657   0.902   5.713 -0.1154  0.1424  0.3890
   92MOL    C7643938   5.665   0.988   5.838  0.9549  0.5186  0.8414
   92MOL    C7743939   5.617   1.129   5.823 -0.3683 -0.1439  0.1653
   92MOL    C7843940   5.704   1.208   5.727  0.0717  0.1075  0.0663
   92MOL    O7943941   5.833   1.232   5.789  1.0612  0.2057 -0.2194
   92MOL    C8043942   5.896   1.349   5.759 -0.0613  0.7055  0.0525
   92MOL    O8143943   5.855   1.443   5.696 -0.4610 -0.0259 -0.5763
   92MOL    C8243944   6.031   1.349   5.829 -0.1947  0.1980 -0.7058
   92MOL    C8343945   6.032   1.380   5.976  0.3734  0.0024 -0.4938
   92MOL    C8443946   6.031   1.253   6.053 -0.7268 -0.5068  0.5542
   92MOL    O8543947   6.136   1.188   6.075 -0.0945 -0.0972  0.0417
   92MOL    H8643948   5.733   0.941   5.646 -0.9186 -1.5343 -1.5387
   92MOL    H8743949   5.569   0.912   5.649  0.7055 -1.7984 -1.0984
   92MOL    H8843950   5.771   0.991   5.861  0.7341 -0.7592  2.0732
   92MOL    H8943951   5.617   0.943   5.925  1.3329 -1.1119  0.2304
   92MOL    H9043952   5.612   1.180   5.919  1.8036 -2.4829  1.5640
   92MOL    H9143953   5.519   1.138   5.777 -0.7381  0.7077  1.1029
   92MOL    H9243954   5.725   1.168   5.627  0.1412 -1.7042  0.7981
   92MOL    H9343955   5.650   1.295   5.691  0.7083  0.8085  0.7934
   92MOL    H9443956   6.100   1.413   5.775  0.6233  0.5414  0.7132
   92MOL    H9543957   6.084   1.257   5.808 -1.5371 -0.4903 -1.1700
   92MOL    H9643958   6.120   1.438   6.004 -0.5257  0.8890  0.5618
   92MOL    H9743959   5.953   1.452   6.000  0.9542  0.5718 -0.2619
   92MOL    O9843960   5.908   1.232   6.109 -0.0886 -0.1583 -0.4478
   92MOL    C9943961   5.897   1.131   6.208 -0.1244 -0.5959 -0.4393
   92MOL   C10043962   5.756   1.097   6.258  0.0376 -0.7197 -0.0198
   92MOL   C10143963   5.691   1.223   6.323 -0.4567  0.0590 -0.5211
   92MOL   C10243964   5.553   1.182   6.377  0.3062  0.5386 -0.1285
   92MOL   O10343965   5.562   1.087   6.487  0.1430  0.2460 -0.1761
   92MOL   C10443966   5.458   1.076   6.577 -0.0784 -0.1283 -0.5823
   92MOL   O10543967   5.379   1.161   6.603  0.5811  0.1206 -0.2383
   92MOL   C10643968   5.454   0.943   6.657  0.2911  0.6048  0.7990
   92MOL   C10743969   5.394   0.837   6.573 -0.3182  0.0608 -0.0674
   92MOL   C10843970   5.492   0.736   6.522  0.4460  0.7787  0.2793
   92MOL   O10943971   5.489   0.621   6.550  0.0138 -1.3539 -0.6097
   92MOL   H11043972   5.955   1.041   6.186 -1.8962 -2.0371  0.6123
   92MOL   H11143973   5.951   1.165   6.296  0.3270 -0.7101 -0.6722
   92MOL   H11243974   5.765   1.016   6.330 -1.8992 -0.7587  0.2073
   92MOL   H11343975   5.688   1.058   6.182 -0.8353  1.1609 -0.2205
   92MOL   H11443976   5.682   1.291   6.238  2.0758 -1.6330 -2.1886
   92MOL   H11543977   5.752   1.264   6.403 -3.5980  2.9558  0.5013
   92MOL   H11643978   5.492   1.268   6.404  0.2247  0.4146  0.0898
   92MOL   H11743979   5.492   1.154   6.291 -2.0289  1.1392  1.2843
   92MOL   H11843980   5.390   0.970   6.742  0.3131  1.8671  0.4322
   92MOL   H11943981   5.555   0.923   6.692  0.4947 -1.6286 -1.0034
   92MOL   H12043982   5.314   0.784   6.625  0.5641 -1.0149  0.2184
   92MOL   H12143983   5.343   0.871   6.483 -0.2468  0.3986  0.0198
   92MOL   O12243984   5.593   0.797   6.459  0.0872  0.1856  0.2716
   92MOL   C12343985   5.695   0.732   6.383 -0.3431 -0.0502 -0.0985
   92MOL   C12443986   5.659   0.744   6.235 -0.0196 -0.1848  0.1492
   92MOL   C12543987   5.772   0.706   6.134 -0.4068  0.4400 -0.0567
   92MOL   C12643988   5.770   0.555   6.098 -0.6711 -0.2836 -0.5767
   92MOL   O12743989   5.777   0.466   6.206 -0.3238 -0.1106 -0.2355
   92MOL   C12843990   5.895   0.427   6.255  0.3252  0.7400 -0.0062
   92MOL   O12943991   6.004   0.484   6.238 -0.5661 -0.6172  0.2346
   92MOL   C13043992   5.888   0.307   6.338  0.7614  0.4887 -0.2678
   92MOL   C13143993   5.933   0.340   6.480 -0.7787 -0.0466  0.0328
   92MOL   C13243994   5.839   0.285   6.592  0.1505 -0.3132  0.3081
   92MOL   O13343995   5.741   0.207   6.569 -0.2903 -0.4634  0.8008
   92MOL   H13443996   5.795   0.766   6.410  0.0034 -1.8316  0.9548
   92MOL   H13543997   5.700   0.630   6.420  1.1291  0.0344 -0.0361
   92MOL   H13643998   5.662   0.851   6.213  2.9178 -0.1273  0.6986
   92MOL   H13743999   5.556   0.721   6.207 -0.3613 -0.8061  1.8295
   92MOL   H13844000   5.867   0.724   6.183  0.6628  1.7294 -2.4816
   92MOL   H13944001   5.770   0.777   6.051 -0.3519 -0.1550 -0.5774
   92MOL   H14044002   5.682   0.528   6.039 -1.2506  1.0305 -0.3357
   92MOL   H14144003   5.849   0.543   6.023  0.7342 -1.6794  1.0922
   92MOL   H14244004   5.950   0.228   6.297  0.3044  0.4292 -0.8498
   92MOL   H14344005   5.782   0.282   6.337  0.9035 -0.3644  2.1213
   92MOL   H14444006   6.033   0.300   6.497 -0.9446 -0.3053  0.4129
   92MOL   H14544007   5.960   0.445   6.492  1.7876 -0.6035 -0.6074
   92MOL   O14644008   5.883   0.329   6.713  0.0577  0.5044  0.1086
   92MOL   C14744009   5.797   0.322   6.823  0.6188  0.0206 -0.4922
   92MOL   C14844010   5.702   0.439   6.830  0.4466 -0.6827  0.3221
   92MOL   C14944011   5.634   0.453   6.973  0.0324 -0.6839  0.4320
   92MOL   C15044012   5.518   0.560   6.969 -0.3953 -0.1207 -0.3530
   92MOL   O15144013   5.397   0.514   6.903  0.3172 -0.3313 -0.0249
   92MOL   C15244014   5.304   0.446   6.978  0.0613 -0.3332  0.8233
   92MOL   O15344015   5.312   0.431   7.105  0.3535  0.1166 -0.0908
   92MOL   C15444016   5.200   0.382   6.895 -0.3326 -0.3751 -0.9338
   92MOL   C15544017   5.237   0.236   6.876  1.0183  0.0587 -0.2372
   92MOL   C15644018   5.352   0.212   6.770  0.1248  0.2571 -0.6216
   92MOL   O15744019   5.458   0.149   6.801  0.2682 -0.4515 -0.4282
   92MOL   H15844020   5.741   0.229   6.813  0.4640  0.0842 -0.2157
   92MOL   H15944021   5.862   0.307   6.910  0.4104 -1.1775 -0.5335
   92MOL   H16044022   5.632   0.444   6.746 -1.8862 -2.4472  2.0861
   92MOL   H16144023   5.754   0.531   6.805 -4.4557  1.6255 -2.1297
   92MOL   H16244024   5.705   0.469   7.054 -0.6033 -1.0676  1.0709
   92MOL   H16344025   5.587   0.359   7.002  0.0692 -0.7804  0.1842
   92MOL   H16444026   5.494   0.593   7.070 -1.0219 -0.9470 -0.2236
   92MOL   H16544027   5.556   0.651   6.922 -0.1170 -1.3282 -2.5468
   92MOL   H16644028   5.182   0.432   6.799 -2.4918  0.9960  0.1380
   92MOL   H16744029   5.097   0.392   6.930  0.5344  1.6461  1.0846
   92MOL   H16844030   5.285   0.193   6.964 -0.4248  2.0972  1.5785
   92MOL   H16944031   5.155   0.169   6.850  0.7745  1.1013 -2.2644
   92MOL   O17044032   5.326   0.274   6.652 -0.2299  0.0031  0.6786
   92MOL   C17144033   5.432   0.292   6.572 -0.2534 -0.4874 -0.1153
   92MOL   C17244034   5.398   0.347   6.431 -0.1560 -0.1841 -0.2005
   92MOL   C17344035   5.318   0.246   6.345  0.1361 -0.3063  0.1827
   92MOL   C17444036   5.409   0.124   6.317 -0.2783  0.4527 -0.3109
   92MOL   O17544037   5.339   0.008   6.265 -0.7627  0.4759 -0.1414
   92MOL   C17644038   5.400   7.763   6.259  0.1520  0.3999 -0.2396
   92MOL   O17744039   5.515   7.739   6.296 -0.2967 -0.0801  0.2130
   92MOL   C17844040   5.316   7.648   6.218  0.2648  0.1921  0.2584
   92MOL   C17944041   5.275   7.659   6.066 -0.4604  0.5549 -0.0472
   92MOL   C18044042   5.387   7.587   5.988  0.8984  0.1560 -0.1108
   92MOL   O18144043   5.447   7.640   5.895 -0.3305  0.0179 -0.0698
   92MOL   H18244044   5.497   0.360   6.628  0.1645 -1.7185  0.9299
   92MOL   H18344045   5.487   0.199   6.567  0.5560 -0.0722  0.8276
   92MOL   H18444046   5.495   0.369   6.388  0.2328 -0.8463  0.3220
   92MOL   H18544047   5.342   0.440   6.440  2.9777  1.9646 -1.9889
   92MOL   H18644048   5.284   0.294   6.253  2.3464 -0.4097 -0.7269
   92MOL   H18744049   5.231   0.217   6.404 -0.0593  2.1612  1.1337
   92MOL   H18844050   5.492   0.148   6.250 -0.9638  3.0138 -0.3078
   92MOL   H18944051   5.459   0.096   6.410  0.3013 -2.4518 -1.4633
   92MOL   H19044052   5.230   7.638   6.284  0.2428  0.2591  0.2408
   92MOL   H19144053   5.371   7.556   6.238  0.8690  0.3477 -0.6768
   92MOL   H19244054   5.180   7.606   6.068  0.1232 -0.5100 -0.0126
   92MOL   H19344055   5.269   7.766   6.047 -0.5000  0.8284  1.3900
   92MOL   O19444056   5.393   7.457   6.009  0.3023 -0.8386 -0.1451
   92MOL   C19544057   5.497   7.377   5.946  0.3959  0.0765  0.6792
   92MOL   C19644058   5.447   7.270   5.860  0.5898  1.0690 -0.1288
   92MOL   C19744059   5.365   7.323   5.738 -0.7110 -0.3791  0.5386
   92MOL   C19844060   5.439   7.408   5.638 -0.5250  0.3799 -0.6169
   92MOL   O19944061   5.352   7.438   5.533  0.1875 -0.4064 -0.3269
   92MOL   C20044062   5.364   7.559   5.476  0.4928 -0.3873  0.2350
   92MOL   O20144063   5.464   7.628   5.463 -0.1545 -0.5618 -0.3023
   92MOL   C20244064   5.236   7.607   5.402 -0.6671  0.3995 -0.2965
   92MOL   C20344065   5.130   7.673   5.498 -0.3050  0.1647 -0.7007
   92MOL   C20444066   5.159   7.707   5.644 -0.2301  0.7400  0.0949
   92MOL   O20544067   5.146   7.622   5.732 -0.2559  1.0300 -0.2939
   92MOL   H20644068   5.577   7.436   5.902 -0.7446  1.3508  0.2872
   92MOL   H20744069   5.545   7.324   6.028  0.4652 -0.0528  0.5556
   92MOL   H20844070   5.403   7.197   5.928  1.6789  0.0712 -0.4695
   92MOL   H20944071   5.531   7.213   5.819  0.8756  2.0690 -0.9404
   92MOL   H21044072   5.278   7.370   5.784 -0.9178 -0.6772  0.4611
   92MOL   H21144073   5.337   7.237   5.677 -2.6792  0.4178  0.2660
   92MOL   H21244074   5.470   7.494   5.697 -0.5035  0.3165 -0.5370
   92MOL   H21344075   5.519   7.354   5.587 -0.7407  0.7628 -1.3689
   92MOL   H21444076   5.195   7.540   5.327 -0.2557  2.2103 -2.1625
   92MOL   H21544077   5.263   7.684   5.330  1.8171 -0.2855 -0.1439
   92MOL   H21644078   5.103   7.768   5.453 -0.8816  1.4314  2.2154
   92MOL   H21744079   5.048   7.602   5.511 -0.7743  1.0102  1.1209
   92MOL   O21844080   5.183   7.838   5.665 -0.1009 -0.0483 -0.2845
   92MOL   C21944081   5.225   0.014   5.793 -0.3816 -0.0778 -0.0356
   92MOL   C22044082   5.256   0.167   5.797 -0.1020 -0.0924  0.3120
   92MOL   C22144083   5.288   0.199   5.944 -0.1496 -0.4146 -0.1336
   92MOL   C22244084   5.403   0.306   5.964  0.2627 -0.1423  0.5188
   92MOL   O22344085   5.349   0.433   5.937 -0.2758 -0.5313  0.3986
   92MOL   C22444086   5.358   0.536   6.018 -0.3927 -0.5467  0.3864
   92MOL   O22544087   5.433   0.534   6.115  0.0129  0.0317 -0.4783
   92MOL   C22644088   5.271   0.653   5.967 -0.1488  0.4367 -0.7022
   92MOL   C22744089   5.364   0.773   5.935  0.1480  0.2366 -0.6795
   92MOL   C22844090   5.339   0.886   6.033 -0.0626  0.4266 -0.3472
   92MOL   O22944091   5.430   0.941   6.089 -0.0614 -0.5335  0.1749
   92MOL   H23044092   5.150   7.871   5.870 -0.1912  0.7846  0.3497
   92MOL   H23144093   5.307   7.830   5.834  0.0486 -0.5768 -1.5694
   92MOL   H23244094   5.178   0.229   5.753 -1.6558 -2.0625  0.2213
   92MOL   H23344095   5.346   0.177   5.735  0.9951 -1.4590  1.6243
   92MOL   H23444096   5.303   0.105   5.997  0.8575 -0.8319 -1.1501
   92MOL   H23544097   5.194   0.239   5.983 -0.6004 -0.6911 -0.9267
   92MOL   H23644098   5.451   0.294   6.061 -1.8965  0.3205  1.6713
   92MOL   H23744099   5.480   0.290   5.888 -1.8345  1.8337 -2.1251
   92MOL   H23844100   5.194   0.672   6.042 -3.0121 -0.1541 -3.3758
   92MOL   H23944101   5.209   0.611   5.888 -2.3092 -0.4046  1.3816
   92MOL   H24044102   5.469   0.748   5.948  0.0488  1.1356  2.3048
   92MOL   H24144103   5.351   0.818   5.836 -2.2052  0.8189 -0.1468
   92MOL   O24244104   5.208   0.919   6.040  0.1776  0.3242  0.0401
   92MOL   C24344105   5.168   1.016   6.133  0.5045  0.2157  0.4162
   92MOL   C24444106   5.080   0.946   6.236 -0.4256 -0.7288  0.0895
   92MOL   C24544107   5.026   1.038   6.348 -0.9894 -0.1665 -1.2113
   92MOL   C24644108   4.944   0.953   6.447 -0.6175  0.1687  0.4178
   92MOL   O24744109   5.011   0.837   6.495  0.2928 -0.5546  0.6318
   92MOL   C24844110   4.946   0.761   6.575  1.1569  1.0072  0.1166
   92MOL   O24944111   4.827   0.775   6.603  0.2640 -0.5608 -0.1812
   92MOL   C25044112   5.039   0.662   6.642  0.6150  0.5632 -0.2837
   92MOL   C25144113   5.130   0.592   6.540 -0.3261  0.3713 -0.4384
   92MOL   C25244114   5.059   0.465   6.492 -0.3070 -0.0781  0.9168
   92MOL   O25344115   5.040   0.445   6.375 -0.7554 -0.1562 -0.0916
   92MOL   H25444116   5.244   1.071   6.188  1.9354  0.1568 -1.4502
   92MOL   H25544117   5.110   1.092   6.080  0.1007 -0.8167 -0.6735
   92MOL   H25644118   5.155   0.877   6.275  1.9001  0.2778 -2.4637
   92MOL   H25744119   4.995   0.898   6.186 -1.2277 -0.1303  0.8754
   92MOL   H25844120   4.961   1.115   6.308 -0.5168  1.1450  0.4964
   92MOL   H25944121   5.110   1.085   6.399  1.1598 -3.8668 -1.0719
   92MOL   H26044122   4.908   1.007   6.535 -1.0020  2.1690 -0.9210
   92MOL   H26144123   4.852   0.930   6.393  0.0777 -0.1364 -0.6562
   92MOL   H26244124   4.977   0.598   6.703  0.0196  1.9238  0.5579
   92MOL   H26344125   5.092   0.723   6.715  0.4588  0.5589 -0.1686
   92MOL   H26444126   5.163   0.648   6.452 -1.0011  0.6864 -0.4903
   92MOL   H26544127   5.225   0.570   6.589  1.0855 -1.0958 -3.6842
   92MOL   O26644128   5.043   0.382   6.589 -0.0492  0.4269  0.1382
   92MOL   C26744129   4.984   0.251   6.567  0.2182  0.6173 -0.2218
   92MOL   C26844130   4.893   0.219   6.693 -0.0016  0.0076 -0.0508
   92MOL   C26944131   4.776   0.322   6.714 -0.0575  0.7621  0.3457
   92MOL   C27044132   4.701   0.291   6.841  1.1685  0.0963  0.5982
   92MOL   O27144133   4.771   0.324   6.962 -0.1835  0.2989  0.3436
   92MOL   C27244134   4.710   0.399   7.054  0.4350  0.5562 -0.5184
   92MOL   O27344135   4.597   0.450   7.043  0.3886 -0.1769 -0.5195
   92MOL   C27444136   4.805   0.428   7.167 -0.4010 -0.1142 -0.6320
   92MOL   C27544137   4.735   0.471   7.296  0.0693 -0.6594  0.2728
   92MOL   C27644138   4.829   0.486   7.414  0.6305  0.1115 -0.7367
   92MOL   O27744139   4.778   0.472   7.527  0.1932  0.0684 -0.3808
   92MOL   H27844140   4.918   0.245   6.481 -0.4722 -1.9424  0.4682
   92MOL   H27944141   5.055   0.169   6.563 -1.1538 -0.6287  0.6246
   92MOL   H28044142   4.957   0.213   6.781  2.4596  0.5512 -1.7490
   92MOL   H28144143   4.846   0.121   6.678  1.5790 -0.5719 -1.3135
   92MOL   H28244144   4.710   0.312   6.628  2.2764  3.5078 -1.8419
   92MOL   H28344145   4.817   0.423   6.718  0.3338  0.8431 -3.4818
   92MOL   H28444146   4.596   0.321   6.842  1.0833 -0.2033  0.6339
   92MOL   H28544147   4.699   0.182   6.836  2.1477  0.0879  0.3205
   92MOL   H28644148   4.876   0.498   7.123  0.4628  0.4399  1.5736
   92MOL   H28744149   4.870   0.341   7.178 -1.9792 -1.1416  1.0470
   92MOL   H28844150   4.679   0.561   7.272  0.2096 -0.3166  1.2144
   92MOL   H28944151   4.656   0.399   7.314 -0.7137 -0.1147 -0.9243
   92MOL   O29044152   4.958   0.521   7.383  0.1511  0.1868 -0.3478
   92MOL   C29144153   5.051   0.555   7.487 -0.9789 -1.0988 -0.0379
   92MOL   C29244154   5.186   0.498   7.456  0.0295 -0.7923  0.3002
   92MOL   C29344155   5.184   0.344   7.439  0.2696  0.4021 -0.1489
   92MOL   C29444156   5.183   0.274   7.571 -0.1206 -0.0030  0.3557
   92MOL   O29544157   5.294   0.316   7.647 -0.4283 -0.4413  0.3437
   92MOL   C29644158   5.351   0.216   7.726  0.4830 -0.0396  0.0072
   92MOL   O29744159   5.327   0.090   7.722 -0.3419 -0.6357 -0.1468
   92MOL   C29844160   5.460   0.272   7.822  1.0477 -0.5410  0.0274
   92MOL   C29944161   5.399   0.379   0.042 -0.0692 -0.4024 -0.4351
   92MOL   C30044162   5.435   0.521   0.029  0.1450 -0.2082  0.4197
   92MOL   O30144163   5.552   0.558   0.028 -0.2659  0.0057  0.3715
   92MOL   H30244164   5.054   0.664   7.493 -0.1957 -1.1858  1.4851
   92MOL   H30344165   5.019   0.533   7.589  0.2876 -0.5637  0.4809
   92MOL   H30444166   5.255   0.538   7.531  0.7388 -1.4250 -0.0107
   92MOL   H30544167   5.219   0.542   7.362  0.0113 -1.0353  0.1805
   92MOL   H30644168   5.276   0.318   7.387 -0.5898  0.1156 -1.5744
   92MOL   H30744169   5.108   0.314   7.366  0.1357  0.5304 -0.0630
   92MOL   H30844170   5.087   0.298   7.617 -0.1906 -1.4196  0.9873
   92MOL   H30944171   5.180   0.169   7.544 -0.6104 -0.1580  0.9998
   92MOL   H31044172   5.522   0.323   7.749  1.3227 -2.0222 -0.8027
   92MOL   H31144173   5.522   0.197   7.872 -2.1956 -2.0114  2.0209
   92MOL   H31244174   5.290   0.384   0.032  0.1297  1.4755 -2.1417
   92MOL   H31344175   5.419   0.363   0.148  4.0921 -0.3469 -1.1636
   92MOL   O31444176   5.330   0.608   0.019  0.2614 -0.2748  0.4977
   92MOL   C31544177   5.351   0.755   0.033 -0.1806 -0.2168  0.3481
   92MOL   C31644178   5.244   0.842   7.837 -0.1961  0.1926 -0.2086
   92MOL   C31744179   5.273   0.841   7.689  0.4818  0.0647 -0.3433
   92MOL   C31844180   5.161   0.910   7.615  0.5296 -0.1272  1.1164
   92MOL   O31944181   5.203   0.923   7.483 -0.9055 -0.5023  0.4857
   92MOL   C32044182   5.113   0.956   7.389  0.2115  0.3720 -0.1629
   92MOL   O32144183   4.999   0.996   7.408  0.2361  0.5431  0.4227
   92MOL   C32244184   5.164   0.946   7.247  0.5337 -0.0565  0.3157
   92MOL   C32344185   5.161   0.809   7.184 -0.2045  0.3390 -0.1218
   92MOL   C32444186   5.071   0.789   7.059  0.3039  0.2601  0.1523
   92MOL   O32544187   5.114   0.724   6.965 -0.4485 -1.0346  0.0451
   92MOL   H32644188   5.340   0.778   0.139 -2.4113 -0.2550  0.1524
   92MOL   H32744189   5.449   0.780   7.868 -0.3889 -0.9257 -0.6591
   92MOL   H32844190   5.234   0.946   7.869  2.7544  0.6642 -0.6317
   92MOL   H32944191   5.146   0.797   7.846 -0.7085  1.1723 -0.8198
   92MOL   H33044192   5.276   0.744   7.641 -1.3102 -0.8316  1.2651
   92MOL   H33144193   5.364   0.902   7.683 -0.8524  2.0692 -0.6635
   92MOL   H33244194   5.061   0.872   7.636  0.0944  0.0832 -0.4865
   92MOL   H33344195   5.157   1.016   7.642  1.2061 -0.5146  2.7915
   92MOL   H33444196   5.264   0.989   7.247 -0.1315  1.5559  0.9868
   92MOL   H33544197   5.103   1.016   7.189 -0.7990  0.7820  2.6345
   92MOL   H33644198   5.258   0.765   7.165  0.1225  0.9516  0.1211
   92MOL   H33744199   5.121   0.747   7.265  1.6059  1.1965  1.4781
   92MOL   O33844200   4.948   0.846   7.068  0.2670  0.1909 -0.1064
   92MOL   C33944201   4.853   0.821   6.970 -0.5500 -0.1705  0.1983
   92MOL   C34044202   4.715   0.822   7.040 -0.3672 -0.5707  0.4809
   92MOL   C34144203   4.607   0.815   6.935 -1.0191  0.7500 -0.1629
   92MOL   C34244204   4.465   0.792   6.998 -0.2377 -0.7665 -0.1385
   92MOL   O34344205   4.440   0.871   7.113 -0.4318  0.2547 -0.5095
   92MOL   C34444206   4.425   0.999   7.108  0.5351  0.0924  0.1660
   92MOL   O34544207   4.403   1.064   7.005  0.6127  0.1236  0.0306
   92MOL   C34644208   4.420   1.070   7.243  0.1317 -0.2842  0.4635
   92MOL   C34744209   4.280   1.064   7.300 -0.0440  0.8388  0.4463
   92MOL   C34844210   4.225   1.197   7.347  0.0323 -0.1444  0.3882
   92MOL   O34944211   4.178   1.210   7.453  0.2325 -0.2100  0.0643
   92MOL   H35044212   4.871   0.902   6.898  3.1802 -0.3092  0.8830
   92MOL   H35144213   4.864   0.719   6.935 -0.1731  0.4215 -1.5030
   92MOL   H35244214   4.696   0.909   7.103 -2.4344  0.5474 -1.6362
   92MOL   H35344215   4.712   0.732   7.101 -1.5703 -0.2756  0.8530
   92MOL   H35444216   4.636   0.736   6.865  3.2777  0.1669  2.0769
   92MOL   H35544217   4.612   0.906   6.875  0.3491  0.8065  0.0213
   92MOL   H35644218   4.384   0.793   6.925  0.2274  3.3902 -0.7374
   92MOL   H35744219   4.470   0.695   7.047 -0.5785 -0.7648 -0.1003
   92MOL   H35844220   4.460   1.169   7.224  0.5976 -0.5583  0.0100
   92MOL   H35944221   4.494   1.024   7.308 -0.8381  0.0767  1.8526
   92MOL   H36044222   4.212   1.031   7.221  1.0105  3.3081 -1.5808
   92MOL   H36144223   4.261   0.996   7.382 -0.6783  1.6250  0.9564
   92MOL   O36244224   4.245   1.286   7.253  0.2266 -0.5924 -0.3886
   92MOL   C36344225   4.202   1.417   7.290  0.5655 -0.1511 -0.4503
   92MOL   C36444226   4.230   1.495   7.166 -0.2176 -0.2870  0.2456
   92MOL   C36544227   4.378   1.522   7.127 -0.0481 -0.3251  0.3224
   92MOL   C36644228   4.396   1.556   6.978  0.7730 -0.0050  0.4978
   92MOL   O36744229   4.535   1.585   6.952  0.2270  0.6801  0.5600
   92MOL   C36844230   4.574   1.661   6.851  0.4855  0.4009 -0.1990
   92MOL   O36944231   4.502   1.711   6.769  0.6646  0.4093  0.8111
   92MOL   C37044232   4.728   1.678   6.856 -0.2564  0.0977 -0.4946
   92MOL   C37144233   4.769   1.821   6.817  0.1092 -0.3369  0.4176
   92MOL   C37244234   4.903   1.862   6.862 -0.2072 -0.2684  0.3512
   92MOL   O37344235   4.980   1.910   6.784 -0.2188  0.4800  0.0851
   92MOL   H37444236   4.094   1.418   7.305  0.0818 -3.6488 -3.0542
   92MOL   H37544237   4.251   1.457   7.379  2.6398  0.9249 -2.0412
   92MOL   H37644238   4.190   1.596   7.181 -1.3948 -0.7996  0.5527
   92MOL   H37744239   4.191   1.436   7.083 -1.2749 -0.2676  0.7215
   92MOL   H37844240   4.444   1.437   7.146  1.0774  0.0677 -1.6939
   92MOL   H37944241   4.422   1.609   7.176  0.1695  1.1529 -2.4040
   92MOL   H38044242   4.359   1.467   6.928 -1.6763  1.9373 -1.2587
   92MOL   H38144243   4.333   1.635   6.937 -0.0730 -2.2754 -2.7972
   92MOL   H38244244   4.778   1.606   6.792  1.7938  1.5912 -0.6142
   92MOL   H38344245   4.761   1.636   6.950  0.5176  0.8309 -0.4308
   92MOL   H38444246   4.769   1.825   6.708  0.9117  1.3090  0.4550
   92MOL   H38544247   4.700   1.900   6.848 -2.5708 -1.5715 -2.1623
   92MOL   O38644248   4.913   1.852   7.003 -0.2411 -0.0575  0.1024
   92MOL   C38744249   5.035   1.875   7.067 -0.3589  0.6060  0.0811
   92MOL   C38844250   5.068   1.754   7.157  0.2936  0.1547  0.0021
   92MOL   C38944251   5.081   1.616   7.085 -0.3303  0.4038 -0.2546
   92MOL   C39044252   5.079   1.484   7.168  0.2127  0.1354 -0.5523
   92MOL   O39144253   5.198   1.472   7.245 -0.1862 -0.4500  0.0738
   92MOL   C39244254   5.209   1.367   7.332 -0.0914 -1.0046  0.2912
   92MOL   O39344255   5.145   1.266   7.316 -0.1001  0.4052 -0.4291
   92MOL   C39444256   5.319   1.378   7.428 -0.5531 -0.5070 -0.6563
   92MOL   C39544257   5.345   1.252   7.515  0.3316  0.1912  0.4625
   92MOL   C39644258   5.467   1.180   7.456 -0.9788 -0.1626  0.9247
   92MOL   O39744259   5.456   1.084   7.376  0.5489  0.0464  0.3508
   92MOL   H39844260   5.123   1.891   7.005  0.5709  0.1643  1.2722
   92MOL   H39944261   5.026   1.964   7.128  1.9445  0.0839  1.2412
   92MOL   H40044262   4.986   1.755   7.230  0.0327 -0.1857 -0.2770
   92MOL   H40144263   5.153   1.790   7.213 -0.6832  4.2377 -0.9583
   92MOL   H40244264   5.169   1.623   7.021  0.0271 -0.4821  0.1222
   92MOL   H40344265   4.998   1.607   7.016 -0.8955  3.6021 -0.0623
   92MOL   H40444266   5.000   1.511   7.238 -0.1191  0.2915 -0.9879
   92MOL   H40544267   5.064   1.393   7.110 -0.3581  0.3869 -0.7937
   92MOL   H40644268   5.263   1.442   7.497 -0.6769 -0.7748 -0.5067
   92MOL   H40744269   5.406   1.425   7.383 -2.1449  1.2144 -2.0793
   92MOL   H40844270   5.354   1.286   7.618 -0.9725 -1.2064  1.0471
   92MOL   H40944271   5.263   1.180   7.517  0.8058 -0.3192  1.8879
   92MOL   O41044272   5.583   1.213   7.515  0.1580 -0.4522 -0.3349
   92MOL   C41144273   5.704   1.143   7.482  0.6745 -0.2937 -0.1796
   92MOL   C41244274   5.810   1.162   7.594  0.0861  0.4536 -0.1506
   92MOL   C41344275   5.953   1.125   7.558 -0.5084 -0.1675 -0.2184
   92MOL   C41444276   6.051   1.110   7.673 -0.0736  0.1031 -0.8988
   92MOL   O41544277   6.022   1.192   7.788  0.0468  0.3010 -0.4213
   92MOL   C41644278   6.074   1.174   0.028  0.4678  0.3813 -0.3542
   92MOL   O41744279   6.147   1.075   0.059  0.5349 -0.9877 -0.9680
   92MOL   C41844280   6.055   1.286   0.130  0.0426  0.0032 -0.4296
   92MOL   C41944281   5.916   1.339   0.151 -0.2027 -0.1148  0.1380
   92MOL   C42044282   5.875   1.461   0.066 -0.0250 -0.0684 -0.9080
   92MOL   O42144283   5.777   1.458   7.865  0.4933  0.1443 -0.4750
   92MOL   H42244284   5.673   1.039   7.469 -3.4056  0.7771  0.4260
   92MOL   H42344285   5.736   1.191   7.390  2.0508 -1.1942 -0.1889
   92MOL   H42444286   5.791   1.102   7.683 -1.0566  0.1607 -0.5861
   92MOL   H42544287   5.803   1.264   7.633  3.1315  0.1721  1.2317
   92MOL   H42644288   5.980   1.207   7.491 -1.4262  1.4671  1.3818
   92MOL   H42744289   5.951   1.032   7.501 -0.0155 -0.0206 -0.4770
   92MOL   H42844290   6.040   1.006   7.704  0.2513  0.1331 -0.6840
   92MOL   H42944291   6.157   1.109   7.646  0.0176  0.0296 -0.5452
   92MOL   H43044292   6.113   1.365   0.084  1.4521 -0.3768  0.6552
   92MOL   H43144293   6.119   1.261   0.215 -2.3846 -2.0729  0.8928
   92MOL   H43244294   5.850   1.256   0.125  0.9758 -0.8219 -0.6045
   92MOL   H43344295   5.897   1.366   0.255 -1.6616 -2.4233  0.5111
   92MOL   O43444296   5.944   1.566   0.099 -0.2286 -0.2171 -0.3605
   92MOL   C43544297   5.904   1.699   0.073 -0.1663  0.2534  0.2158
   92MOL   C43644298   5.816   1.738   0.191  0.1322 -0.1366  0.8931
   92MOL   C43744299   5.774   1.882   0.190  0.1701  0.5808  0.0204
   92MOL   C43844300   5.730   1.936   0.329 -0.3854 -0.3601 -0.4255
   92MOL   O43944301   5.602   1.890   0.353  0.2674 -0.0222  0.8074
   92MOL   C44044302   5.575   1.831   0.474  0.7469 -0.2457  0.5359
   92MOL   O44144303   5.640   1.844   0.579 -0.0795  0.3674  0.5701
   92MOL   C44244304   5.448   1.748   0.478 -0.0634 -0.8577  0.5488
   92MOL   C44344305   5.358   1.788   0.592  0.1808 -0.3137  0.1604
   92MOL   C44444306   5.315   1.675   0.691  0.0360 -0.0009 -0.6896
   92MOL   O44544307   5.368   1.560   0.683  0.3212  0.2587 -0.0179
   92MOL   H44644308   5.995   1.760   0.070  0.1157 -0.1450  0.6693
   92MOL   H44744309   5.856   1.708   7.850  1.0387 -0.4046 -0.4643
   92MOL   H44844310   5.865   1.724   0.287  0.1257 -0.7209  0.8102
   92MOL   H44944311   5.727   1.679   0.213  0.1789  0.8504  3.8672
   92MOL   H45044312   5.703   1.897   0.109 -0.5936  1.4171  0.8186
   92MOL   H45144313   5.859   1.944   0.160  0.6954  1.2991  2.8087
   92MOL   H45244314   5.801   1.891   0.400 -1.5489 -0.7622  0.4965
   92MOL   H45344315   5.743   2.044   0.326 -0.3113 -0.2709  2.1055
   92MOL   H45444316   5.469   1.641   0.469 -0.6318 -0.7339 -2.7047
   92MOL   H45544317   5.406   1.781   0.383 -0.3818 -3.1251 -0.1345
   92MOL   H45644318   5.408   1.865   0.651  1.5776 -2.3735  1.7365
   92MOL   H45744319   5.268   1.838   0.555  0.4192 -0.7334 -0.9971
   92MOL   O45844320   5.232   1.721   0.787  0.2710 -0.1609 -0.1119
   92MOL   C45944321   5.208   1.650   0.908 -0.2837 -0.3920 -0.1675
   92MOL   C46044322   5.065   1.674   0.947 -0.1395 -0.4368  0.2565
   92MOL   C46144323   5.017   1.604   1.068 -0.1567 -0.0112  0.4937
   92MOL   C46244324   4.879   1.652   1.133 -0.3646  0.2531  0.1976
   92MOL   O46344325   4.847   1.588   1.256 -0.5207 -0.4895  0.2211
   92MOL   C46444326   4.720   1.568   1.287 -0.4342  0.3505  0.7255
   92MOL   O46544327   4.624   1.603   1.227  0.0271 -0.1682 -0.0109
   92MOL   C46644328   4.704   1.472   1.410  0.2318 -0.1874  1.1301
   92MOL   C46744329   4.750   1.531   1.547 -0.2276 -0.6758 -0.1638
   92MOL   C46844330   4.647   1.632   1.596  0.1826  0.3915 -0.2431
   92MOL   O46944331   4.527   1.613   1.575  0.1074  0.1720 -0.4054
   92MOL   H47044332   5.214   1.544   0.884  1.4044 -0.2556 -0.3712
   92MOL   H47144333   5.278   1.680   0.986 -2.3006  2.1251  0.7248
   92MOL   H47244334   4.994   1.653   0.866  2.4065 -3.4165 -1.3097
   92MOL   H47344335   5.053   1.780   0.968 -0.1467 -0.5511  0.8226
   92MOL   H47444336   5.096   1.624   1.141  0.9835  0.7811 -0.9112
   92MOL   H47544337   5.019   1.499   1.039 -0.2570  0.3741 -0.9449
   92MOL   H47644338   4.885   1.760   1.144 -1.4568  0.3323  0.0469
   92MOL   H47744339   4.791   1.631   1.073 -0.8312  1.2544  0.5255
   92MOL   H47844340   4.767   1.387   1.385  0.8609  1.0891 -1.7824
   92MOL   H47944341   4.603   1.432   1.421  0.3352  0.0346  3.0968
   92MOL   H48044342   4.769   1.454   1.623 -0.0686 -0.8597 -0.3887
   92MOL   H48144343   4.846   1.580   1.530 -0.2033 -0.6755 -0.0291
   92MOL   H48244344   4.699   1.712   1.648  1.3640 -0.0746 -0.6961
   93MOL     O144345   1.182   6.692   6.049 -0.0111  0.9953 -0.3869
   93MOL     C244346   1.093   6.718   6.152  0.3300 -0.3412  0.1370
   93MOL     C344347   1.034   6.862   6.147  0.3902 -0.6309 -0.2496
   93MOL     C444348   0.939   6.897   6.269 -0.2714  0.6061 -0.7988
   93MOL     C544349   0.897   7.042   6.266 -0.4627  0.7605 -0.7776
   93MOL     O644350   0.798   7.065   6.169  0.9729 -0.3346 -0.2516
   93MOL     C744351   0.816   7.142   6.073  0.7738 -0.3957  0.4119
   93MOL     O844352   0.922   7.198   6.046 -0.3760  0.3094 -0.1251
   93MOL     C944353   0.698   7.156   5.976  0.6748 -1.1530 -0.6819
   93MOL    C1044354   0.673   7.049   5.876  0.4518  0.3767  0.3262
   93MOL    C1144355   0.778   7.061   5.769 -0.6513 -0.1713  0.1817
   93MOL    O1244356   0.758   7.136   5.678  0.0678  0.0986 -0.7830
   93MOL    H1344357   1.017   6.643   6.173  1.0771 -0.6493  1.7907
   93MOL    H1444358   1.162   6.722   6.236  3.0716 -3.4105 -1.8535
   93MOL    H1544359   0.971   6.877   6.059  1.4230  1.9347 -0.6053
   93MOL    H1644360   1.113   6.938   6.145  0.2371 -0.4819 -0.8192
   93MOL    H1744361   0.989   6.879   6.364 -1.5759 -0.0860 -0.2265
   93MOL    H1844362   0.848   6.836   6.263  0.1070  0.0710 -1.1417
   93MOL    H1944363   0.844   7.070   6.357  0.4214  1.5491 -0.5029
   93MOL    H2044364   0.981   7.111   6.259 -0.1644  0.2764 -2.1153
   93MOL    H2144365   0.696   7.251   5.924 -0.2740 -0.3459  0.8143
   93MOL    H2244366   0.612   7.162   6.042  2.5248 -1.6469  1.8520
   93MOL    H2344367   0.658   6.950   5.919  2.2463  0.1110  0.4164
   93MOL    H2444368   0.575   7.064   5.831 -0.6199 -0.3161  2.3567
   93MOL    H2544369   1.130   6.648   5.984  0.0212 -1.0803  0.9574
   93MOL    O2644370   0.890   6.989   5.792  0.3255  0.4218  0.2235
   93MOL    C2744371   0.980   6.969   5.687  0.0656  0.6409  0.4427
   93MOL    C2844372   1.058   6.847   5.720 -1.0042 -0.5884 -0.5504
   93MOL    C2944373   1.176   6.843   5.628  0.2426  0.2552  0.0616
   93MOL    C3044374   1.233   6.701   5.618  0.1043 -0.5887  0.4540
   93MOL    O3144375   1.364   6.697   5.562 -0.1448  0.4254 -0.1443
   93MOL    C3244376   1.386   6.680   5.433 -0.2631  0.1161 -0.5429
   93MOL    O3344377   1.304   6.710   5.346 -0.0827  0.4045 -0.4905
   93MOL    C3444378   1.532   6.658   5.399 -0.0716 -0.5189 -0.1938
   93MOL    C3544379   1.573   6.753   5.288 -0.1806 -0.0653 -0.0468
   93MOL    C3644380   1.680   6.851   5.318 -0.6409  0.3950  0.3652
   93MOL    O3744381   1.793   6.821   5.358 -0.1840 -0.1029 -0.1650
   93MOL    H3844382   0.925   6.954   5.594  1.0162  1.9968 -0.3494
   93MOL    H3944383   1.043   7.055   5.667  0.6679 -0.3706 -2.1663
   93MOL    H4044384   0.995   6.758   5.721 -0.0382 -1.2800  2.4512
   93MOL    H4144385   1.081   6.846   5.826 -1.7591  0.4531 -0.3771
   93MOL    H4244386   1.249   6.916   5.664  0.2322 -0.4998  1.6667
   93MOL    H4344387   1.149   6.869   5.526  1.0098 -1.4953 -0.5969
   93MOL    H4444388   1.236   6.652   5.716 -0.2969  0.6934  1.1208
   93MOL    H4544389   1.165   6.644   5.554 -0.0524  0.8341 -0.6664
   93MOL    H4644390   1.546   6.555   5.367  0.4732 -0.6850  0.5658
   93MOL    H4744391   1.595   6.670   5.487 -2.7475  0.9745  1.6330
   93MOL    H4844392   1.628   6.700   5.210 -0.3655  3.1337 -2.4822
   93MOL    H4944393   1.487   6.791   5.233 -0.1921  0.1645  0.1352
   93MOL    O5044394   1.644   6.982   5.320  0.4352 -0.1186 -0.8250
   93MOL    C5144395   1.729   7.088   5.353  0.4687 -0.2036  0.2704
   93MOL    C5244396   1.772   7.163   5.225 -0.2631  0.2631  0.2510
   93MOL    C5344397   1.838   7.301   5.244  0.8809 -0.3981 -0.5578
   93MOL    C5444398   1.873   7.384   5.120 -0.0797  0.9814 -0.9843
   93MOL    O5544399   1.965   7.311   5.038 -0.2124  0.6234 -0.4480
   93MOL    C5644400   2.095   7.286   5.075 -0.3381 -0.2638  0.4365
   93MOL    O5744401   2.146   7.329   5.179 -0.1981  0.6200  0.3742
   93MOL    C5844402   2.181   7.208   4.979 -0.3285 -0.6865 -0.3273
   93MOL    C5944403   2.150   7.221   4.827 -0.2288 -0.5881  0.1516
   93MOL    C6044404   2.251   7.292   4.745  0.3981 -0.6677  0.2280
   93MOL    O6144405   2.316   7.389   4.790  0.2218  0.3821 -0.1284
   93MOL    H6244406   1.681   7.160   5.419 -3.3646 -1.2986 -1.1470
   93MOL    H6344407   1.814   7.061   5.415  1.7483 -0.7079 -1.6529
   93MOL    H6444408   1.684   7.185   5.165  0.7628  5.2519  0.3054
   93MOL    H6544409   1.833   7.094   5.167  0.3584 -0.4203  1.6942
   93MOL    H6644410   1.920   7.285   5.314  0.9972  1.4474 -0.2596
   93MOL    H6744411   1.770   7.364   5.301  2.2430 -1.1135  1.9344
   93MOL    H6844412   1.789   7.401   5.052  0.4816 -0.5146 -2.0897
   93MOL    H6944413   1.920   7.475   5.158  0.7839  0.1042  0.1021
   93MOL    H7044414   2.171   7.101   4.994 -5.3518 -0.2788  0.0168
   93MOL    H7144415   2.285   7.235   4.997 -0.5009 -0.1640 -0.1068
   93MOL    H7244416   2.149   7.118   4.792 -1.9487  0.1994 -2.3023
   93MOL    H7344417   2.050   7.258   4.804 -0.5756 -1.0224  0.9307
   93MOL    O7444418   2.252   7.240   4.617 -0.4018 -0.1183  0.4063
   93MOL    C7544419   2.344   7.298   4.521  0.3148  0.1193 -0.0028
   93MOL    C7644420   2.492   7.240   4.521  0.2486  0.4714  1.0398
   93MOL    C7744421   2.583   7.308   4.417 -0.0645 -0.2521 -0.1850
   93MOL    C7844422   2.729   7.251   4.404  0.6547 -0.1162 -0.3759
   93MOL    O7944423   2.810   7.352   4.334 -0.1923  0.1301  0.4123
   93MOL    C8044424   2.932   7.388   4.381  0.4870 -0.5981 -0.4313
   93MOL    O8144425   2.986   7.332   4.481  0.2989 -0.1547  0.0865
   93MOL    C8244426   3.003   7.487   4.291 -0.4235  0.1297  0.4183
   93MOL    C8344427   3.103   7.438   4.185  0.2769  0.1387 -0.1549
   93MOL    C8444428   3.238   7.511   4.169 -0.0355  1.0364 -0.4080
   93MOL    O8544429   3.263   7.576   4.065  0.0754  0.2744 -0.5335
   93MOL    H8644430   2.306   7.271   4.423 -1.6948 -0.1109  0.8008
   93MOL    H8744431   2.340   7.407   4.523 -1.2530  0.0757  0.4927
   93MOL    H8844432   2.490   7.131   4.510 -0.0962  0.0869  4.4988
   93MOL    H8944433   2.535   7.242   4.621  1.8310 -0.4286  0.3948
   93MOL    H9044434   2.589   7.412   4.447 -1.0605 -0.6865  1.5306
   93MOL    H9144435   2.541   7.304   4.317 -1.3984  0.2984  0.3576
   93MOL    H9244436   2.769   7.237   4.504 -2.8775  2.3966  1.5027
   93MOL    H9344437   2.731   7.159   4.346 -0.1605 -0.3844  0.0170
   93MOL    H9444438   3.038   7.561   4.363 -0.5508 -0.0717  0.6917
   93MOL    H9544439   2.925   7.539   4.236 -1.5925 -2.7966 -0.8271
   93MOL    H9644440   3.133   7.337   4.215  2.1422  0.6555 -0.1789
   93MOL    H9744441   3.049   7.428   4.091 -0.3525  1.3757  0.0686
   93MOL    O9844442   3.313   7.487   4.272  0.6977  0.0677 -0.0765
   93MOL    C9944443   3.447   7.530   4.271  0.1011  0.1540 -0.5553
   93MOL   C10044444   3.513   7.532   4.409 -0.5942  0.4414  0.0068
   93MOL   C10144445   3.430   7.608   4.504  0.3349 -0.3383  0.4505
   93MOL   C10244446   3.486   7.607   4.644  0.0384 -0.6053 -0.1675
   93MOL   O10344447   3.383   7.626   4.745  0.5350  0.1552  0.0326
   93MOL   C10444448   3.328   7.745   4.770  0.5670 -0.3422 -0.7403
   93MOL   O10544449   3.365   7.852   4.725 -1.1079  0.6798 -0.2370
   93MOL   C10644450   3.204   7.740   4.853  0.1594  0.1713  0.9708
   93MOL   C10744451   3.088   7.655   4.788 -0.0315  0.0520 -0.8848
   93MOL   C10844452   3.090   7.510   4.846 -0.7891  0.2159  0.3082
   93MOL   O10944453   3.021   7.483   4.947  0.6903  0.3252 -0.1533
   93MOL   H11044454   3.508   7.467   4.206  0.5945 -1.4724  1.4340
   93MOL   H11144455   3.446   7.628   4.223  0.1281  1.2261  1.6113
   93MOL   H11244456   3.609   7.583   4.396  0.1330 -0.0499  2.9451
   93MOL   H11344457   3.525   7.428   4.442  0.3982  0.9095  1.1780
   93MOL   H11444458   3.334   7.557   4.516  0.0223  0.1375 -0.0106
   93MOL   H11544459   3.406   7.711   4.476  0.2831  0.3381  2.8531
   93MOL   H11644460   3.526   7.510   4.673  0.9621  0.5700  2.6112
   93MOL   H11744461   3.567   7.680   4.648 -1.2168  0.8467 -0.8327
   93MOL   H11844462   3.169   7.843   4.852  0.0170  0.1201 -1.1267
   93MOL   H11944463   3.222   7.706   4.955  0.3195  0.0757  0.9108
   93MOL   H12044464   2.992   7.707   4.792 -0.1485 -0.2794  1.3382
   93MOL   H12144465   3.104   7.647   4.681  2.2690 -0.3198 -0.5243
   93MOL   O12244466   3.168   7.429   4.777  0.2021  0.4430 -0.2656
   93MOL   C12344467   3.160   7.288   4.802 -0.4944  0.0359  0.0771
   93MOL   C12444468   3.243   7.210   4.705 -0.0811 -0.2919  0.2183
   93MOL   C12544469   3.394   7.241   4.698 -0.1645 -0.4841 -0.7578
   93MOL   C12644470   3.475   7.202   4.823 -0.9414  0.6759 -0.3114
   93MOL   O12744471   3.609   7.219   4.775 -0.2437 -0.7421 -0.0841
   93MOL   C12844472   3.715   7.156   4.842  0.3666  0.1874  0.1090
   93MOL   O12944473   3.693   7.076   4.938  0.6403 -0.3485  0.4902
   93MOL   C13044474   3.853   7.196   4.785 -0.1883 -0.9050  0.6814
   93MOL   C13144475   3.967   7.144   4.861  1.0390  0.1520 -0.0086
   93MOL   C13244476   4.027   7.028   4.781  0.8293 -0.0159  0.6032
   93MOL   O13344477   4.109   7.041   4.688  0.3877 -0.4385  0.2651
   93MOL   H13444478   3.202   7.279   4.902 -0.8430  1.0909  0.3217
   93MOL   H13544479   3.057   7.254   4.803 -1.1565  1.9680 -0.2026
   93MOL   H13644480   3.197   7.208   4.606 -3.4779  0.1603  1.7295
   93MOL   H13744481   3.242   7.106   4.736 -1.5551  0.2185  1.9351
   93MOL   H13844482   3.410   7.344   4.666  1.0655 -1.2291 -2.5903
   93MOL   H13944483   3.427   7.184   4.612  0.7044  1.7369 -1.9326
   93MOL   H14044484   3.464   7.262   4.913  0.3703  0.7535 -0.1892
   93MOL   H14144485   3.461   7.099   4.856 -0.1646  0.3650 -0.9278
   93MOL   H14244486   3.862   7.302   4.808 -0.2911 -0.7884  0.1815
   93MOL   H14344487   3.845   7.180   4.677 -1.4171  1.7420  0.3252
   93MOL   H14444488   4.042   7.222   4.872  0.8066  0.2348  1.0481
   93MOL   H14544489   3.935   7.099   4.956 -1.3859  0.2959 -0.7417
   93MOL   O14644490   3.976   6.913   4.815 -0.1149  0.1374  0.5844
   93MOL   C14744491   4.007   6.793   4.743 -0.3775  0.0364  0.4594
   93MOL   C14844492   3.934   6.677   4.804  0.3228  0.6163  0.6943
   93MOL   C14944493   4.009   6.620   4.930  0.6602  0.5078  1.1388
   93MOL   C15044494   3.983   6.465   4.953  0.8096 -0.4545  0.3898
   93MOL   O15144495   4.006   6.378   4.840 -0.1122  0.0660 -0.0840
   93MOL   C15244496   4.025   6.241   4.851 -0.2737  0.1000  0.3228
   93MOL   O15344497   4.010   6.175   4.953  0.0812  0.0012  0.2435
   93MOL   C15444498   4.072   6.178   4.716  0.1725  0.5438  0.0635
   93MOL   C15544499   3.971   6.068   4.673 -0.5789  0.0587  0.1241
   93MOL   C15644500   4.028   5.932   4.654 -0.1376  0.4829  0.2591
   93MOL   O15744501   4.020   5.853   4.743  0.0256 -0.2516  0.0934
   93MOL   H15844502   3.975   6.810   4.640  0.2808 -1.2955  0.0254
   93MOL   H15944503   4.114   6.773   4.740 -0.3292  0.2790  0.5215
   93MOL   H16044504   3.913   6.595   4.736 -0.5908  0.8968  0.6363
   93MOL   H16144505   3.832   6.701   4.833  0.1369 -0.5163  0.9959
   93MOL   H16244506   3.988   6.677   5.021 -1.3977 -1.2709  1.8018
   93MOL   H16344507   4.116   6.642   4.927  0.8206 -0.4061  0.0841
   93MOL   H16444508   4.048   6.428   5.032  2.9578  0.8180 -0.7405
   93MOL   H16544509   3.881   6.456   4.991  0.7126 -1.7455 -0.1786
   93MOL   H16644510   4.175   6.142   4.716  0.1460  0.4137 -2.3716
   93MOL   H16744511   4.062   6.246   4.632  0.6081 -0.4407 -0.7877
   93MOL   H16844512   3.885   6.061   4.740 -0.4697  2.1448  0.5283
   93MOL   H16944513   3.925   6.106   4.582 -0.1431 -2.2310 -1.0795
   93MOL   O17044514   4.093   5.917   4.537  0.5051  0.0541  0.0843
   93MOL   C17144515   4.144   5.794   4.492 -0.3062  0.9114 -0.3139
   93MOL   C17244516   4.054   5.736   4.383 -0.1083 -0.5818  0.4531
   93MOL   C17344517   3.941   5.653   4.444  0.4378 -0.5028  0.5169
   93MOL   C17444518   3.845   5.609   4.328  0.1563  0.1185 -0.6873
   93MOL   O17544519   3.730   5.542   4.387 -0.0727  0.0200  0.0197
   93MOL   C17644520   3.619   5.553   4.321 -0.0115  0.6236  0.1456
   93MOL   O17744521   3.605   5.615   4.209 -0.7392  0.2942 -0.4432
   93MOL   C17844522   3.498   5.493   4.383  0.4544 -0.1483  0.4000
   93MOL   C17944523   3.524   5.348   4.424 -0.4857 -1.2383 -0.3661
   93MOL   C18044524   3.533   5.333   4.572  0.3122 -0.4175  0.7436
   93MOL   O18144525   3.438   5.287   4.635  0.2412 -0.0207  0.2363
   93MOL   H18244526   4.247   5.804   4.457 -0.0368 -1.3624 -0.2879
   93MOL   H18344527   4.157   5.721   4.572 -1.7779  0.7901 -0.1762
   93MOL   H18444528   4.114   5.663   4.328 -0.5282  0.2876 -1.1783
   93MOL   H18544529   4.022   5.819   4.321 -2.5950 -1.1521  0.9214
   93MOL   H18644530   3.902   5.711   4.528  0.7709  0.9338 -0.3051
   93MOL   H18744531   3.984   5.568   4.497 -1.4912 -1.5048  0.5084
   93MOL   H18844532   3.805   5.692   4.269 -1.2744  0.6406  0.9856
   93MOL   H18944533   3.896   5.541   4.260 -1.0744 -1.8843  0.3417
   93MOL   H19044534   3.418   5.498   4.309  1.4371 -0.2708 -0.6742
   93MOL   H19144535   3.469   5.552   4.471 -0.9934 -1.3635  0.7586
   93MOL   H19244536   3.439   5.292   4.384 -2.2146 -0.0605  1.5690
   93MOL   H19344537   3.618   5.316   4.379 -0.7868 -1.0436 -1.1395
   93MOL   O19444538   3.647   5.362   4.625  0.1607 -0.2227  0.4695
   93MOL   C19544539   3.657   5.405   4.761  0.8806  0.4020  0.5298
   93MOL   C19644540   3.600   5.541   4.782  0.5081 -0.2080  0.3040
   93MOL   C19744541   3.692   5.652   4.715 -0.3852 -0.2544 -0.8776
   93MOL   C19844542   3.627   5.788   4.708  0.7088 -0.5916 -0.1607
   93MOL   O19944543   3.540   5.801   4.599  0.5415 -0.1134  0.0346
   93MOL   C20044544   3.579   5.866   4.483  0.3333  0.5873 -0.2216
   93MOL   O20144545   3.696   5.904   4.466  0.3709 -0.3217  0.1469
   93MOL   C20244546   3.468   5.899   4.386 -0.5599  0.6962 -0.3123
   93MOL   C20344547   3.506   5.973   4.261 -0.5513 -0.2861  1.1924
   93MOL   C20444548   3.514   6.121   4.274 -0.0427 -0.2147  0.1172
   93MOL   O20544549   3.460   6.174   4.372 -0.4058 -0.6185  0.2494
   93MOL   H20644550   3.601   5.335   4.823 -0.1512  2.0500  1.4701
   93MOL   H20744551   3.756   5.390   4.802  0.6903 -0.1064  0.8123
   93MOL   H20844552   3.599   5.567   4.888  0.3267  0.8296  0.0463
   93MOL   H20944553   3.498   5.548   4.743  1.0234  2.9227 -0.5508
   93MOL   H21044554   3.727   5.617   4.617 -0.9732 -0.6410 -0.9546
   93MOL   H21144555   3.779   5.664   4.779  0.3363 -1.0605 -1.6785
   93MOL   H21244556   3.566   5.794   4.799  2.2652  0.9240  0.8046
   93MOL   H21344557   3.704   5.864   4.701 -0.7261  0.8409 -0.5015
   93MOL   H21444558   3.391   5.944   4.449 -1.1780 -0.2973 -0.3405
   93MOL   H21544559   3.420   5.804   4.360  1.0255  0.0175 -0.8219
   93MOL   H21644560   3.602   5.935   4.226 -1.5815 -2.6395  0.8576
   93MOL   H21744561   3.445   5.955   4.172  0.3921 -1.9868  0.8606
   93MOL   O21844562   3.555   6.186   4.164 -0.1979  0.3581  0.0313
   93MOL   C21944563   3.538   6.328   4.152  0.0470  0.2401 -0.1435
   93MOL   C22044564   3.524   6.366   4.004 -0.3812 -0.5553  0.8550
   93MOL   C22144565   3.663   6.358   3.931  0.1623 -0.1046 -0.2964
   93MOL   C22244566   3.658   6.413   3.795  0.5633 -0.2520  1.0816
   93MOL   O22344567   3.588   6.537   3.807  0.1830  0.3430  0.5521
   93MOL   C22444568   3.666   6.648   3.851  0.4945 -0.2975 -0.4587
   93MOL   O22544569   3.783   6.647   3.889  0.1086  0.4202 -0.1361
   93MOL   C22644570   3.575   6.770   3.856  1.0460  0.6304  0.1108
   93MOL   C22744571   3.637   6.888   3.933  0.4592  0.5749 -0.8313
   93MOL   C22844572   3.689   7.001   3.848  0.6445 -0.2109 -0.1151
   93MOL   O22944573   3.700   7.114   3.896  0.2684  0.2692 -0.4671
   93MOL   H23044574   3.449   6.361   4.205 -0.9831 -0.2138 -1.5292
   93MOL   H23144575   3.612   6.384   4.208 -1.0121 -0.5646  2.1393
   93MOL   H23244576   3.476   6.462   3.983  0.6649 -0.2153 -0.0481
   93MOL   H23344577   3.453   6.292   3.967 -1.5424  1.5390 -1.1844
   93MOL   H23444578   3.693   6.254   3.931  3.3091  0.7431  0.7212
   93MOL   H23544579   3.745   6.406   3.986 -0.4994  0.1133  0.5085
   93MOL   H23644580   3.763   6.434   3.774  0.0861  1.6523  0.4856
   93MOL   H23744581   3.615   6.344   3.722  1.6990  0.7655 -0.6044
   93MOL   H23844582   3.482   6.748   3.908  1.4548 -1.0511  0.1360
   93MOL   H23944583   3.558   6.805   3.754 -2.1418  0.2132  0.4608
   93MOL   H24044584   3.556   6.929   3.993 -1.3869 -0.7820 -2.3229
   93MOL   H24144585   3.714   6.858   4.004 -1.5527 -1.0325  0.7417
   93MOL   O24244586   3.737   6.969   3.729 -0.6360  0.4005  0.3426
   93MOL   C24344587   3.828   7.059   3.661  0.2091 -0.3749 -0.1404
   93MOL   C24444588   3.856   6.999   3.523  0.0954  0.2195 -0.5217
   93MOL   C24544589   3.947   7.084   3.435 -0.1193  0.0558  0.6557
   93MOL   C24644590   3.980   7.010   3.309 -0.6659  0.1556  0.2147
   93MOL   O24744591   4.066   6.905   3.336 -0.2563  0.6320  0.8445
   93MOL   C24844592   4.066   6.792   3.261  0.3928 -0.4036 -0.3635
   93MOL   O24944593   3.998   6.778   3.157 -0.9688 -0.0226 -0.1623
   93MOL   C25044594   4.160   6.686   3.318  0.2084 -0.5583 -0.3862
   93MOL   C25144595   4.312   6.712   3.290  0.1982  0.2385  0.3661
   93MOL   C25244596   4.372   6.617   3.194  0.1881  0.0823 -0.7395
   93MOL   O25344597   4.453   6.533   3.235  0.0723 -0.0815 -1.0176
   93MOL   H25444598   3.784   7.157   3.645  2.3663  0.3940 -1.6760
   93MOL   H25544599   3.924   7.068   3.713  1.0486  2.9093 -2.1387
   93MOL   H25644600   3.758   6.978   3.481 -0.0848  0.6298 -0.3055
   93MOL   H25744601   3.892   6.899   3.548  2.1967  1.0649 -0.0317
   93MOL   H25844602   4.040   7.115   3.483 -0.5762  0.5224  1.2593
   93MOL   H25944603   3.883   7.166   3.401 -0.5886 -0.4278  0.3687
   93MOL   H26044604   3.892   6.973   3.255  1.5416 -2.6250 -1.6569
   93MOL   H26144605   4.037   7.077   3.244 -0.6284 -0.0871 -0.0036
   93MOL   H26244606   4.133   6.585   3.289  2.3290 -0.9525 -1.1024
   93MOL   H26344607   4.148   6.687   3.426 -1.7347  0.3994 -0.5855
   93MOL   H26444608   4.316   6.817   3.263 -2.6164  0.7014  1.6423
   93MOL   H26544609   4.359   6.705   3.388 -0.7439 -0.1765  0.7897
   93MOL   O26644610   4.326   6.627   3.066  0.2244 -0.7565  0.2404
   93MOL   C26744611   4.359   6.529   2.962 -0.6600  0.2793  0.3785
   93MOL   C26844612   4.261   6.561   2.854  0.6205 -0.1096 -0.4793
   93MOL   C26944613   4.261   6.452   2.750  0.0590  0.4949  0.2131
   93MOL   C27044614   4.397   6.428   2.673  0.1846 -0.4860 -0.5156
   93MOL   O27144615   4.468   6.334   2.747  0.6994 -0.1840  0.6397
   93MOL   C27244616   4.573   6.277   2.693 -0.1956  0.2525  0.5712
   93MOL   O27344617   4.612   6.291   2.579 -0.0880  0.0518 -0.0128
   93MOL   C27444618   4.636   6.177   2.788 -0.1656 -0.0941 -0.2355
   93MOL   C27544619   4.690   6.249   2.919  0.1014  0.5223  0.3127
   93MOL   C27644620   4.674   6.169   3.046  0.3136  0.0735  0.0969
   93MOL   O27744621   4.659   6.230   3.156  0.0766 -0.4332 -0.0293
   93MOL   H27844622   4.465   6.539   2.939 -0.4099 -0.8922  0.9800
   93MOL   H27944623   4.353   6.423   2.990  2.6064  0.8284  3.5442
   93MOL   H28044624   4.282   6.659   2.811 -0.7221  0.8586  1.0269
   93MOL   H28144625   4.162   6.574   2.896  0.3570 -0.0013 -1.1356
   93MOL   H28244626   4.189   6.487   2.677 -0.9142  0.5913  1.2115
   93MOL   H28344627   4.213   6.357   2.776 -0.1951  0.7434  0.6487
   93MOL   H28444628   4.396   6.385   2.573  0.6716 -2.0874  0.1465
   93MOL   H28544629   4.458   6.519   2.671 -2.3187  1.3105  1.4228
   93MOL   H28644630   4.722   6.135   2.737  0.7322 -0.2217  1.3426
   93MOL   H28744631   4.562   6.097   2.799 -0.3990  0.0200 -0.9721
   93MOL   H28844632   4.795   6.273   2.902  0.6769 -1.6596  0.5543
   93MOL   H28944633   4.640   6.345   2.924  1.2806  1.1265  0.6972
   93MOL   O29044634   4.699   6.035   3.031  0.5841  0.0749  0.3378
   93MOL   C29144635   4.722   5.939   3.133  0.4979 -0.0251  0.4881
   93MOL   C29244636   4.864   5.900   3.129 -0.2645  0.1872 -0.1540
   93MOL   C29344637   4.891   5.831   2.993  0.5418 -0.1402  0.3661
   93MOL   C29444638   5.027   5.773   2.972 -1.3921  0.4145  0.1003
   93MOL   O29544639   5.129   5.866   2.937 -0.1152  0.1445  0.2314
   93MOL   C29644640   5.250   5.832   2.956 -0.0726 -0.4173 -0.5226
   93MOL   O29744641   5.295   5.719   2.983 -0.6659  1.0277 -0.3359
   93MOL   C29844642   5.349   5.954   2.960 -1.1460 -0.5675 -0.1110
   93MOL   C29944643   5.343   6.007   3.108 -0.1404  0.0456 -0.3437
   93MOL   C30044644   5.215   6.071   3.149  0.4164  0.0801  0.0586
   93MOL   O30144645   5.152   6.039   3.251 -0.0803 -0.1153  0.3164
   93MOL   H30244646   4.701   5.983   3.231 -2.5203 -0.1432 -0.0785
   93MOL   H30344647   4.655   5.855   3.117  0.5015 -0.6138  3.2118
   93MOL   H30444648   4.885   5.837   3.216 -0.2040  1.0188  0.4395
   93MOL   H30544649   4.931   5.985   3.142  2.1061 -1.5999 -0.2474
   93MOL   H30644650   4.848   5.884   2.907  0.9478  0.3555  0.4648
   93MOL   H30744651   4.830   5.741   3.001 -0.3707  0.6016  2.2901
   93MOL   H30844652   5.056   5.706   3.054  1.9501  0.8146 -0.7020
   93MOL   H30944653   5.039   5.718   2.879  0.2235  0.3073  0.3566
   93MOL   H31044654   5.310   6.033   2.895 -1.4693 -0.7474 -0.1392
   93MOL   H31144655   5.443   5.913   2.925 -0.5943 -2.5303  3.4710
   93MOL   H31244656   5.368   5.927   3.177 -0.3849 -0.0194 -0.3311
   93MOL   H31344657   5.424   6.078   3.126  0.3454 -0.8324  0.9315
   93MOL   O31444658   5.177   6.170   3.072 -0.2951  0.1233 -0.7338
   93MOL   C31544659   5.064   6.253   3.103 -0.3611  0.0104 -0.1645
   93MOL   C31644660   5.107   6.381   3.177 -0.6127 -0.0401  0.1964
   93MOL   C31744661   5.024   6.509   3.150  0.1287 -0.1388 -0.0177
   93MOL   C31844662   4.894   6.502   3.236 -0.7139 -0.5857  0.9441
   93MOL   O31944663   4.827   6.628   3.234 -0.3562 -0.3964 -0.1271
   93MOL   C32044664   4.756   6.656   3.119  0.2242 -0.6505  0.4033
   93MOL   O32144665   4.733   6.580   3.025  0.7257 -0.0800 -0.2808
   93MOL   C32244666   4.677   6.781   3.122  0.2876 -0.5193 -0.1163
   93MOL   C32344667   4.758   6.903   3.152 -0.3163  0.1731 -0.0569
   93MOL   C32444668   4.699   6.972   3.275  0.8815 -0.3996  0.2074
   93MOL   O32544669   4.761   6.991   3.378 -0.1077 -0.3296  0.3420
   93MOL   H32644670   5.020   6.289   3.010  1.6564  0.1625 -1.0689
   93MOL   H32744671   4.999   6.196   3.170  1.2239 -0.4449  1.0303
   93MOL   H32844672   5.212   6.397   3.150 -0.5307 -1.9704 -0.7759
   93MOL   H32944673   5.114   6.354   3.283 -1.2454  2.2281  0.8397
   93MOL   H33044674   5.000   6.517   3.044 -4.1091 -2.9245  0.6175
   93MOL   H33144675   5.080   6.599   3.175 -1.2141  0.2991  1.4293
   93MOL   H33244676   4.832   6.421   3.197  2.5247 -2.4081 -0.5857
   93MOL   H33344677   4.921   6.485   3.340 -1.1255  0.2489  1.1951
   93MOL   H33444678   4.609   6.750   3.202  1.5712 -1.1305  0.7550
   93MOL   H33544679   4.620   6.804   3.032 -1.3915  2.2934  1.6086
   93MOL   H33644680   4.861   6.878   3.180  0.3900  3.6049  0.6291
   93MOL   H33744681   4.760   6.973   3.069  3.8695 -1.2812 -1.3307
   93MOL   O33844682   4.570   6.997   3.266  0.4942 -0.2732  0.8230
   93MOL   C33944683   4.503   7.066   3.379  0.3376 -0.0305 -0.8087
   93MOL   C34044684   4.366   7.128   3.325 -0.8261  0.0889  0.0490
   93MOL   C34144685   4.381   7.260   3.239 -0.2553 -0.4398 -0.3200
   93MOL   C34244686   4.247   7.323   3.206 -0.2394 -0.0120  0.5998
   93MOL   O34344687   4.263   7.463   3.173  0.0665  0.4633 -0.1833
   93MOL   C34444688   4.291   7.510   3.042 -0.7672 -0.0106  0.1460
   93MOL   O34544689   4.321   7.433   2.952  0.9518  0.0446 -0.0738
   93MOL   C34644690   4.266   7.658   3.024 -0.4081  0.0906  0.4249
   93MOL   C34744691   4.116   7.676   3.000  0.2200  1.0512  0.0534
   93MOL   C34844692   4.059   7.799   3.066 -0.5583 -0.6749 -0.2859
   93MOL   O34944693   4.111   7.849   3.166  0.6590  0.3643  0.1038
   93MOL   H35044694   4.482   6.995   3.459  0.5178  2.3570  1.4168
   93MOL   H35144695   4.569   7.138   3.427 -0.6876 -0.2223  0.9382
   93MOL   H35244696   4.314   7.170   3.411 -0.8173 -0.3472  0.2682
   93MOL   H35344697   4.324   7.050   3.261  1.6044  0.3606 -1.9395
   93MOL   H35444698   4.431   7.245   3.144  0.0089 -0.3356 -0.1979
   93MOL   H35544699   4.437   7.339   3.290  2.9728 -3.3448  0.8314
   93MOL   H35644700   4.190   7.268   3.132 -0.0585 -0.7231  0.9749
   93MOL   H35744701   4.200   7.313   3.304 -0.5158  1.0837  0.5827
   93MOL   H35844702   4.321   7.699   2.939 -1.9228  0.1559 -0.5481
   93MOL   H35944703   4.322   7.705   3.104  0.9833 -2.1403  0.8012
   93MOL   H36044704   4.088   7.684   2.894 -0.6506  1.9205  0.3359
   93MOL   H36144705   4.067   7.591   3.046  1.9972  1.3063  2.4813
   93MOL   O36244706   3.955   7.847   2.992 -0.2890  0.6502 -0.1567
   93MOL   C36344707   3.898   0.099   3.031 -0.4389  0.0930 -0.1072
   93MOL   C36444708   3.785   0.132   2.940  0.5945 -0.7899  0.6176
   93MOL   C36544709   3.656   0.044   2.950 -0.6625 -0.1784 -0.0270
   93MOL   C36644710   3.654   7.789   2.877  0.5463 -0.3344  0.6138
   93MOL   O36744711   3.537   7.733   2.901  0.0565 -0.3589 -0.6462
   93MOL   C36844712   3.518   7.612   2.849  0.2292  0.2989  0.3403
   93MOL   O36944713   3.595   7.563   2.764  0.3823 -0.0578 -0.4604
   93MOL   C37044714   3.399   7.540   2.908 -0.0340  0.7066  0.7762
   93MOL   C37144715   3.430   7.390   2.932  0.8158 -0.1938 -0.2681
   93MOL   C37244716   3.433   7.345   3.071 -0.3166 -0.4025 -0.2302
   93MOL   O37344717   3.410   7.420   3.166 -0.1915 -0.4283  0.0866
   93MOL   H37444718   3.851   0.103   3.129 -3.4495 -1.4588 -1.4389
   93MOL   H37544719   3.975   0.177   3.031 -0.5218  0.1752 -1.4571
   93MOL   H37644720   3.824   0.153   2.840  0.4446  0.3409  0.7867
   93MOL   H37744721   3.747   0.224   2.985  2.3693 -0.1466  0.8328
   93MOL   H37844722   3.577   0.105   2.905  0.6242  2.4248  1.1408
   93MOL   H37944723   3.620   0.037   3.052  0.6719  2.6301  0.6835
   93MOL   H38044724   3.663   7.800   2.769  0.5343 -0.0785  0.6402
   93MOL   H38144725   3.740   7.726   2.901  0.8243 -0.0933  0.2660
   93MOL   H38244726   3.316   7.543   2.838  0.8027  1.4813 -0.2088
   93MOL   H38344727   3.360   7.594   2.994 -1.4692  0.4556  0.2910
   93MOL   H38444728   3.354   7.331   2.881 -0.1108 -1.0856  2.0745
   93MOL   H38544729   3.521   7.360   2.880  1.1965  1.4984 -0.6109
   93MOL   O38644730   3.465   7.216   3.077 -0.4074 -0.8791 -0.1870
   93MOL   C38744731   3.484   7.159   3.206 -0.6641  0.2658  0.2978
   93MOL   C38844732   3.351   7.102   3.266 -0.0987  0.5341 -0.2548
   93MOL   C38944733   3.256   7.207   3.322  0.0903 -0.4160 -0.4603
   93MOL   C39044734   3.296   7.304   3.443 -0.5341 -0.6021  0.0118
   93MOL   O39144735   3.288   7.252   3.575  0.2755 -0.6318  0.4485
   93MOL   C39244736   3.380   7.165   3.629 -0.1160  0.3543  0.6641
   93MOL   O39344737   3.473   7.106   3.574 -0.3175  0.2293  0.0680
   93MOL   C39444738   3.341   7.127   3.770 -0.1105  0.0311 -0.2275
   93MOL   C39544739   3.391   7.221   3.886  0.2449  0.3701  0.0987
   93MOL   C39644740   3.408   7.163   4.027  0.3833 -0.2442  0.6323
   93MOL   O39744741   3.360   7.057   4.065 -0.2631  0.4273 -0.0926
   93MOL   H39844742   3.558   7.080   3.193 -0.5215  0.0231  2.3485
   93MOL   H39944743   3.530   7.224   3.281 -0.1325 -0.8476  0.9553
   93MOL   H40044744   3.367   7.033   3.349 -1.3326  0.1819 -0.3085
   93MOL   H40144745   3.295   7.048   3.190 -1.3280 -1.4375  1.9586
   93MOL   H40244746   3.155   7.169   3.339  0.3067 -0.6756  0.3029
   93MOL   H40344747   3.224   7.262   3.234 -2.1329 -0.4604  0.2673
   93MOL   H40444748   3.394   7.349   3.426 -2.3495  2.8893 -1.8524
   93MOL   H40544749   3.218   7.379   3.427  1.7806  1.3308 -2.8097
   93MOL   H40644750   3.371   7.022   3.781  1.6306  0.4847 -0.4965
   93MOL   H40744751   3.233   7.133   3.776 -0.1142 -0.6302  0.5349
   93MOL   H40844752   3.487   7.259   3.851 -0.0012  1.7357  0.8441
   93MOL   H40944753   3.331   7.312   3.882  0.3917  0.4843  0.4657
   93MOL   O41044754   3.503   7.235   4.092 -0.1561 -0.1505 -0.2786
   93MOL   C41144755   3.563   7.196   4.214  0.4395  0.5279 -0.0988
   93MOL   C41244756   3.709   7.246   4.237 -0.5828 -0.2826  0.7880
   93MOL   C41344757   3.771   7.202   4.374 -0.3222  0.1130 -0.2541
   93MOL   C41444758   3.836   7.065   4.388 -0.3885 -0.2076 -0.1157
   93MOL   O41544759   3.917   7.044   4.267  0.5427 -0.3391  0.4430
   93MOL   C41644760   3.955   6.919   4.231  0.3349  0.3656  0.0678
   93MOL   O41744761   3.899   6.819   4.282 -0.2810 -0.0514 -0.4191
   93MOL   C41844762   4.063   6.919   4.128  0.4477  0.0969 -0.3598
   93MOL   C41944763   4.006   6.889   3.993  0.5371  0.2845  0.1139
   93MOL   C42044764   4.116   6.854   3.889 -0.3918  1.1011 -0.7084
   93MOL   O42144765   4.112   6.911   3.780  0.6334 -0.2374 -0.2863
   93MOL   H42244766   3.498   7.242   4.288  0.3850 -0.1492  0.2802
   93MOL   H42344767   3.555   7.088   4.220  0.1665  0.6427  2.2040
   93MOL   H42444768   3.719   7.354   4.235 -0.3912 -0.3253 -0.5647
   93MOL   H42544769   3.775   7.204   4.161 -0.1489 -0.0047  1.0068
   93MOL   H42644770   3.696   7.227   4.449 -0.7928  0.4643 -0.8426
   93MOL   H42744771   3.856   7.268   4.395 -1.0244  0.1625  2.6864
   93MOL   H42844772   3.900   7.057   4.476 -1.3532 -2.1081  0.4512
   93MOL   H42944773   3.758   6.990   4.404 -0.2465 -0.5673 -1.0675
   93MOL   H43044774   4.146   6.852   4.151 -1.5268 -2.4122 -0.2370
   93MOL   H43144775   4.108   7.018   4.134  3.5866 -1.2276 -0.9153
   93MOL   H43244776   3.945   6.803   4.018  2.8147 -1.3467  0.1916
   93MOL   H43344777   3.938   6.970   3.964  1.7910  1.8199  1.3168
   93MOL   O43444778   4.206   6.763   3.930 -0.0186 -0.8962 -0.4880
   93MOL   C43544779   4.311   6.728   3.845  0.0701  0.0642 -0.1603
   93MOL   C43644780   4.421   6.658   3.920  0.0105 -0.4145 -1.1467
   93MOL   C43744781   4.363   6.519   3.971 -0.2852 -0.1302  0.1020
   93MOL   C43844782   4.472   6.444   4.051 -0.1752  0.5740 -0.0660
   93MOL   O43944783   4.585   6.416   3.968 -0.2851 -0.0508 -0.1932
   93MOL   C44044784   4.692   6.341   4.019  0.2274  0.2722 -0.9551
   93MOL   O44144785   4.710   6.303   4.132 -0.5834  0.0265  0.0395
   93MOL   C44244786   4.792   6.301   3.910  0.6759 -0.0368  0.1492
   93MOL   C44344787   4.879   6.174   3.943 -0.4551  0.1422  0.6895
   93MOL   C44444788   4.792   6.045   3.929  0.2826  0.1343  0.5632
   93MOL   O44544789   4.731   6.026   3.824 -0.5429  0.2974  0.2682
   93MOL   H44644790   4.272   6.673   3.759 -0.8979 -0.0706  0.3570
   93MOL   H44744791   4.342   6.822   3.799  1.0058 -1.2938 -2.3543
   93MOL   H44844792   4.459   6.716   4.004 -0.8569 -1.0505 -0.2992
   93MOL   H44944793   4.512   6.646   3.862  1.9046  0.5824  1.4944
   93MOL   H45044794   4.332   6.455   3.888 -2.1528 -0.2527  0.8766
   93MOL   H45144795   4.271   6.510   4.028  0.7329 -2.8264  1.4129
   93MOL   H45244796   4.511   6.503   4.133 -1.3911 -0.3232  1.1904
   93MOL   H45344797   4.428   6.354   4.095 -0.9017 -0.3207 -2.5200
   93MOL   H45444798   4.870   6.376   3.896  0.5229  0.0828 -0.0565
   93MOL   H45544799   4.752   6.291   3.810 -0.5446 -1.3681  0.7619
   93MOL   H45644800   4.963   6.158   3.875  0.1657 -1.2593  1.7502
   93MOL   H45744801   4.917   6.181   4.045 -4.0553  1.9959  1.9749
   93MOL   O45844802   4.786   5.972   4.031 -0.3737 -0.0894  0.2164
   93MOL   C45944803   4.736   5.839   4.028 -0.2078  0.2831  0.0140
   93MOL   C46044804   4.732   5.783   4.175  0.3883 -0.0998  0.7987
   93MOL   C46144805   4.871   5.761   4.238 -0.1407 -0.2082  0.5033
   93MOL   C46244806   4.856   5.675   4.365 -0.1425  1.0572 -0.0576
   93MOL   O46344807   4.981   5.663   4.424 -0.2413  0.6080 -0.2445
   93MOL   C46444808   5.010   5.746   4.524 -0.3788 -0.0798 -0.5876
   93MOL   O46544809   4.936   5.824   4.588 -0.0790  0.6487 -0.2073
   93MOL   C46644810   5.158   5.737   4.562  0.0797  0.0215  0.3343
   93MOL   C46744811   5.189   5.603   4.628 -0.5722  0.4008 -0.2753
   93MOL   C46844812   5.133   5.583   4.767 -1.1017  0.7468 -0.4555
   93MOL   O46944813   5.156   5.677   4.842 -0.0575  0.1586 -0.3589
   93MOL   H47044814   4.638   5.831   3.980 -0.9894  3.0877  1.0537
   93MOL   H47144815   4.798   5.775   3.965 -0.9385 -1.7076  1.2736
   93MOL   H47244816   4.679   5.687   4.167  0.0617  0.0923  0.6304
   93MOL   H47344817   4.667   5.846   4.236 -1.0369 -0.5308 -0.2226
   93MOL   H47444818   4.906   5.859   4.271  1.1043  0.4204 -2.4672
   93MOL   H47544819   4.943   5.716   4.169  0.4866 -0.3333  1.2314
   93MOL   H47644820   4.782   5.704   4.438 -0.3865 -1.1012  0.6020
   93MOL   H47744821   4.837   5.572   4.334  2.8363  0.4555 -0.0312
   93MOL   H47844822   5.185   5.826   4.618  0.3770 -0.5996  1.1801
   93MOL   H47944823   5.212   5.737   4.467 -1.0737  1.7330 -0.3412
   93MOL   H48044824   5.153   5.522   4.566 -0.5020 -0.6795  1.0776
   93MOL   H48144825   5.295   5.581   4.622 -0.8387 -1.0833  0.3297
   93MOL   H48244826   5.089   5.484   4.773 -0.0513  0.3309  0.6306
   94MOL     O144827   2.847   3.916   6.311  0.4248  0.1946 -0.3424
   94MOL     C244828   2.712   3.874   6.298 -0.1324 -0.5308  0.2921
   94MOL     C344829   2.636   3.979   6.210  0.5406 -0.7134  0.6426
   94MOL     C444830   2.619   4.117   6.274  0.1797 -0.2447  1.3468
   94MOL     C544831   2.593   4.235   6.180  0.4213 -0.4059  0.7091
   94MOL     O644832   2.481   4.306   6.234  0.3331 -0.5282  0.3036
   94MOL     C744833   2.491   4.382   6.347 -0.2394  0.1032  0.4130
   94MOL     O844834   2.590   4.385   6.421  0.6257 -0.3931  0.1573
   94MOL     C944835   2.369   4.466   6.380 -0.1265 -0.5320 -0.3550
   94MOL    C1044836   2.369   4.614   6.326  0.0217 -0.2194 -0.2797
   94MOL    C1144837   2.483   4.666   6.242  0.4973 -0.4088 -0.2786
   94MOL    O1244838   2.571   4.735   6.296 -0.1787  0.3232  0.1274
   94MOL    H1344839   2.706   3.771   6.265 -1.3554 -1.0422  2.0238
   94MOL    H1444840   2.671   3.868   6.399  1.5975 -1.2609  0.9770
   94MOL    H1544841   2.540   3.939   6.181  0.3591  0.8281 -1.0087
   94MOL    H1644842   2.690   3.999   6.117  1.5876 -0.0291  1.3786
   94MOL    H1744843   2.697   4.150   6.342 -0.4787 -0.0645  2.0160
   94MOL    H1844844   2.529   4.112   6.336 -0.6741  0.8998  0.2220
   94MOL    H1944845   2.680   4.298   6.162  0.3830 -0.6141 -0.2305
   94MOL    H2044846   2.554   4.195   6.086 -0.3350  0.7519  0.5244
   94MOL    H2144847   2.365   4.461   6.489  1.2816 -1.2606 -0.3205
   94MOL    H2244848   2.289   4.413   6.329 -0.3320  1.8460 -2.6013
   94MOL    H2344849   2.275   4.638   6.278  0.4884  1.8359 -0.1928
   94MOL    H2444850   2.370   4.681   6.412  3.0329  0.7377 -0.9898
   94MOL    H2544851   2.871   3.916   6.402 -0.2577  0.3832 -0.1652
   94MOL    O2644852   2.468   4.630   6.115 -0.2647 -0.5903  0.2044
   94MOL    C2744853   2.551   4.697   6.017 -0.4061  0.1899 -0.9922
   94MOL    C2844854   2.678   4.616   5.969 -0.4040  1.3126 -0.6636
   94MOL    C2944855   2.655   4.497   5.876  0.7054 -0.3109 -0.5080
   94MOL    C3044856   2.796   4.432   5.852  0.3417 -0.4293 -0.1917
   94MOL    O3144857   2.834   4.338   5.951  0.2661  0.1807  0.3990
   94MOL    C3244858   2.948   4.348   6.015 -0.0873  0.3674 -0.6748
   94MOL    O3344859   3.036   4.430   5.990  0.9737 -0.3564  0.1812
   94MOL    C3444860   2.971   4.253   6.134 -0.0804 -0.1790  0.4785
   94MOL    C3544861   2.952   4.310   6.274  0.2471  0.3105  0.2234
   94MOL    C3644862   3.077   4.367   6.336 -0.1278  0.4619 -0.1338
   94MOL    O3744863   3.071   4.479   6.384 -0.1620  0.7899  0.3543
   94MOL    H3844864   2.492   4.706   5.925  0.0110 -2.9273 -1.6005
   94MOL    H3944865   2.585   4.797   6.046 -0.5068  0.2818 -1.1880
   94MOL    H4044866   2.733   4.584   6.058  1.5021 -1.0279 -2.6075
   94MOL    H4144867   2.754   4.680   5.923  2.9977 -1.4802  0.8075
   94MOL    H4244868   2.607   4.528   5.783  0.4483  0.9620  0.0344
   94MOL    H4344869   2.594   4.417   5.918 -1.1018  2.3007  1.9846
   94MOL    H4444870   2.788   4.371   5.763 -0.2510  0.4727 -0.7677
   94MOL    H4544871   2.866   4.514   5.833  0.8511 -0.9921 -0.7237
   94MOL    H4644872   3.067   4.204   6.122  0.9895  2.1591 -0.9425
   94MOL    H4744873   2.898   4.172   6.127  2.4147 -2.4627  0.3057
   94MOL    H4844874   2.872   4.383   6.272 -0.6351 -0.6095  1.3481
   94MOL    H4944875   2.908   4.238   6.343 -0.7015  2.3015  1.7473
   94MOL    O5044876   3.189   4.297   6.315 -0.5928 -0.4209 -0.8650
   94MOL    C5144877   3.318   4.356   6.341  0.1918 -0.0039  0.2059
   94MOL    C5244878   3.378   4.423   6.213  0.0758  0.1230  0.4171
   94MOL    C5344879   3.367   4.342   6.081  0.2921  0.1743  0.2291
   94MOL    C5444880   3.444   4.216   6.071 -0.1455 -0.4522  1.0000
   94MOL    O5544881   3.418   4.156   5.949  0.3622 -0.5141  0.7910
   94MOL    C5644882   3.332   4.056   5.941 -0.3552  0.2061  0.6054
   94MOL    O5744883   3.271   3.997   6.034  0.1503 -0.3327 -0.7100
   94MOL    C5844884   3.337   3.994   5.799  0.2425  0.0837 -0.4685
   94MOL    C5944885   3.225   4.041   5.701 -0.0644 -0.3354 -0.2569
   94MOL    C6044886   3.178   4.184   5.709 -0.2765 -0.2226 -0.4834
   94MOL    O6144887   3.056   4.198   5.699 -0.3759  0.0208  0.7938
   94MOL    H6244888   3.324   4.424   6.426  1.4219  0.1602 -0.0061
   94MOL    H6344889   3.383   4.269   6.352  0.8705  0.3701 -0.7995
   94MOL    H6444890   3.482   4.452   6.230 -0.7324  2.0606  2.2971
   94MOL    H6544891   3.330   4.520   6.206  0.0036  0.0321 -0.3791
   94MOL    H6644892   3.408   4.398   5.997 -1.0898 -1.0376 -1.2867
   94MOL    H6744893   3.263   4.324   6.056  0.6325 -1.2757 -0.2514
   94MOL    H6844894   3.552   4.230   6.072 -0.3776  1.5164  0.8195
   94MOL    H6944895   3.418   4.154   6.157 -0.7093 -0.2130  1.0057
   94MOL    H7044896   3.326   3.889   5.825  0.0038 -0.3171 -2.0917
   94MOL    H7144897   3.436   4.017   5.758  0.3459 -2.1463 -1.5271
   94MOL    H7244898   3.258   4.027   5.598  0.5908  2.4127 -0.4599
   94MOL    H7344899   3.137   3.978   5.710  0.6292 -1.2522  0.1037
   94MOL    O7444900   3.271   4.283   5.714  0.9383 -1.0100 -0.2007
   94MOL    C7544901   3.232   4.420   5.739  0.6572  0.2838  0.8486
   94MOL    C7644902   3.195   4.493   5.606  0.2570 -0.1914  0.1841
   94MOL    C7744903   3.189   4.645   5.624  0.5138 -0.2419 -0.4115
   94MOL    C7844904   3.149   4.708   5.492  0.0944  0.0679 -0.2854
   94MOL    O7944905   3.134   4.847   5.518  0.2069 -0.1841  0.0333
   94MOL    C8044906   3.164   4.932   5.423  0.1664 -0.0010 -0.1864
   94MOL    O8144907   3.215   4.899   5.314  0.0269  0.1562  0.5325
   94MOL    C8244908   3.141   5.077   5.469 -0.3485  0.2053  0.0777
   94MOL    C8344909   3.223   5.114   5.592 -0.1764  0.4276 -0.4090
   94MOL    C8444910   3.169   5.234   5.669 -0.7716 -0.2946 -0.1274
   94MOL    O8544911   3.055   5.279   5.651 -0.5240  0.1371 -1.0654
   94MOL    H8644912   3.140   4.421   5.798  0.5445  1.6576  0.6841
   94MOL    H8744913   3.308   4.480   5.789  3.4761 -1.2947 -1.4168
   94MOL    H8844914   3.100   4.459   5.563 -0.6099  1.4139  0.7807
   94MOL    H8944915   3.257   4.467   5.520 -3.4039 -2.7091 -1.8452
   94MOL    H9044916   3.291   4.665   5.655  0.8014 -0.7259 -1.0250
   94MOL    H9144917   3.112   4.673   5.695 -1.0981 -1.9668 -1.4381
   94MOL    H9244918   3.208   4.683   5.403 -0.2317  1.5787 -0.9358
   94MOL    H9344919   3.048   4.678   5.465 -0.9977  3.4702 -0.1499
   94MOL    H9444920   3.036   5.081   5.498 -0.1580 -0.2905  0.8678
   94MOL    H9544921   3.158   5.154   5.394 -0.3625 -2.6589 -2.9976
   94MOL    H9644922   3.218   5.038   5.670  0.7563 -0.2284 -0.9825
   94MOL    H9744923   3.328   5.133   5.573  0.1045 -2.5074 -2.1522
   94MOL    O9844924   3.257   5.279   5.759 -0.7911 -0.1701 -0.5492
   94MOL    C9944925   3.218   5.382   5.853  0.0910  0.3431 -0.0968
   94MOL   C10044926   3.219   5.519   5.801  0.1448  0.0785  0.4520
   94MOL   C10144927   3.172   5.618   5.903  0.5639  0.3050  0.1009
   94MOL   C10244928   3.177   5.763   5.838 -0.4236  0.2083  0.1829
   94MOL   O10344929   3.081   5.776   5.730 -0.2731 -0.3227 -0.1671
   94MOL   C10444930   3.088   5.883   5.643  0.0927  0.3693  0.6775
   94MOL   O10544931   3.179   5.962   5.643 -0.1050 -0.3791  0.2591
   94MOL   C10644932   2.959   5.906   5.566  0.2166 -0.0687  0.3330
   94MOL   C10744933   2.987   5.964   5.423  0.0800  0.0099 -0.8105
   94MOL   C10844934   2.902   6.093   5.393 -0.0677  0.7020  0.6853
   94MOL   O10944935   2.826   6.098   5.301 -0.5422 -0.3909 -0.1931
   94MOL   H11044936   3.121   5.347   5.889  0.8230 -1.2973  0.3334
   94MOL   H11144937   3.281   5.378   5.942  0.1552 -1.3940 -0.1957
   94MOL   H11244938   3.160   5.527   5.709 -1.3502 -0.3188  1.3551
   94MOL   H11344939   3.321   5.540   5.768  0.1073 -1.5518 -0.7773
   94MOL   H11444940   3.247   5.618   5.983  0.9975  0.6064 -0.2965
   94MOL   H11544941   3.074   5.598   5.946 -0.8451  0.2884 -3.0334
   94MOL   H11644942   3.153   5.822   5.926  0.3002 -0.4126  0.8011
   94MOL   H11744943   3.279   5.784   5.806 -0.7318  0.6826 -0.5013
   94MOL   H11844944   2.900   5.975   5.625  2.3857  2.4378 -0.3285
   94MOL   H11944945   2.891   5.821   5.569  0.3115 -0.1517  0.1288
   94MOL   H12044946   3.095   5.969   5.408  0.0002  0.6087 -1.2085
   94MOL   H12144947   2.968   5.888   5.347  2.1718  0.6551 -2.0150
   94MOL   O12244948   2.940   6.194   5.473 -0.0687 -0.2791 -0.0611
   94MOL   C12344949   2.875   6.319   5.461 -0.2492 -0.3754 -0.9937
   94MOL   C12444950   2.826   6.362   5.603  0.0378  0.2193 -0.5946
   94MOL   C12544951   2.941   6.378   5.705  0.1105 -0.8301 -0.2884
   94MOL   C12644952   2.897   6.423   5.845  0.8219  0.3578 -1.0790
   94MOL   O12744953   2.810   6.539   5.842  0.0978  0.3811 -0.9010
   94MOL   C12844954   2.868   6.665   5.836 -0.4155 -0.0056 -0.0674
   94MOL   O12944955   2.988   6.693   5.839 -0.2838 -0.1595  0.4506
   94MOL   C13044956   2.768   6.776   5.836  0.2974 -0.8542  0.4160
   94MOL   C13144957   2.685   6.782   5.705  0.5326  0.7335 -0.0736
   94MOL   C13244958   2.749   6.878   5.609  0.6755  0.0636  0.1601
   94MOL   O13344959   2.694   6.972   5.561 -0.1760 -0.1310  0.5866
   94MOL   H13444960   2.953   6.393   5.445 -1.1688  1.1109  1.1251
   94MOL   H13544961   2.793   6.330   5.391 -0.1644  0.2465 -0.9939
   94MOL   H13644962   2.744   6.306   5.650 -0.6251  1.1012 -0.7062
   94MOL   H13744963   2.785   6.463   5.602 -0.3673  0.0464 -1.3711
   94MOL   H13844964   3.018   6.452   5.681 -0.1249  0.0533  1.6045
   94MOL   H13944965   2.989   6.283   5.724  0.5844 -0.4617  0.3586
   94MOL   H14044966   2.864   6.336   5.901 -1.7642  1.1358 -1.3392
   94MOL   H14144967   2.983   6.451   5.905 -1.9728  2.4145  2.1267
   94MOL   H14244968   2.826   6.868   5.846 -0.9622  0.1017 -0.7988
   94MOL   H14344969   2.700   6.768   5.920  0.7061 -0.3882  0.7923
   94MOL   H14444970   2.673   6.689   5.649 -0.8765  1.4898 -1.0720
   94MOL   H14544971   2.586   6.821   5.729 -0.6674 -2.0463 -0.3623
   94MOL   O14644972   2.879   6.858   5.594 -0.0208 -0.5274  0.3923
   94MOL   C14744973   2.954   6.946   5.506  0.2388 -0.0708 -0.2708
   94MOL   C14844974   3.093   6.892   5.494 -0.2019  0.4515  0.0825
   94MOL   C14944975   3.108   6.747   5.431  0.0226 -0.1672 -0.1309
   94MOL   C15044976   3.241   6.684   5.470  0.3616  0.1286  0.2946
   94MOL   O15144977   3.266   6.556   5.412  0.2552  0.1777  0.0523
   94MOL   C15244978   3.287   6.452   5.481  0.7088 -0.5449 -0.0144
   94MOL   O15344979   3.259   6.437   5.594  0.4782  0.0867 -0.3364
   94MOL   C15444980   3.351   6.340   5.403 -0.1929  0.3239  0.4748
   94MOL   C15544981   3.277   6.199   5.407 -0.2084  0.3686 -0.4083
   94MOL   C15644982   3.216   6.176   5.267  0.0061 -0.5902  0.1304
   94MOL   O15744983   3.228   6.066   5.216  0.4215  0.0613 -0.1652
   94MOL   H15844984   2.899   6.946   5.412 -1.7446 -2.2777  0.8200
   94MOL   H15944985   2.969   7.049   5.536  0.5742  0.4393 -2.1423
   94MOL   H16044986   3.139   6.892   5.592  0.3445 -1.0387 -0.1528
   94MOL   H16144987   3.151   6.963   5.435  1.6764  1.1126  2.6818
   94MOL   H16244988   3.085   6.758   5.325  0.0253 -0.7890 -0.1969
   94MOL   H16344989   3.029   6.686   5.474  1.2696 -1.5894  0.1883
   94MOL   H16444990   3.321   6.748   5.434 -0.6638  1.4656  0.3692
   94MOL   H16544991   3.243   6.692   5.579 -0.5011 -1.5614  0.4483
   94MOL   H16644992   3.442   6.310   5.456 -0.8508  0.3657  1.6474
   94MOL   H16744993   3.390   6.380   5.309 -1.2526  3.9369  1.5255
   94MOL   H16844994   3.351   6.124   5.432 -1.2880 -0.1157  1.4600
   94MOL   H16944995   3.198   6.199   5.482  1.2201  1.8203  1.1412
   94MOL   O17044996   3.143   6.281   5.216  0.5812 -0.3187 -0.1373
   94MOL   C17144997   3.091   6.273   5.084  0.2085 -0.3018 -0.0027
   94MOL   C17244998   2.986   6.373   5.059 -0.4935 -1.0367 -0.2772
   94MOL   C17344999   3.046   6.517   5.047 -0.8165 -0.0157 -0.8160
   94MOL   C17445000   2.959   6.619   4.962 -0.2297  0.4819  0.5131
   94MOL   O17545001   3.017   6.754   4.969 -0.1776  0.0802 -0.3105
   94MOL   C17645002   2.982   6.836   5.065  0.0637  0.7541  0.8471
   94MOL   O17745003   2.900   6.815   5.160 -0.1867 -0.8716  0.3424
   94MOL   C17845004   3.063   6.965   5.059  0.0962  0.3294 -0.0848
   94MOL   C17945005   3.213   6.935   5.069  0.0067 -0.1406  0.0778
   94MOL   C18045006   3.287   7.028   5.165 -1.1030 -0.3287  0.4348
   94MOL   O18145007   3.375   6.985   5.231 -0.5190 -0.5789  0.5076
   94MOL   H18245008   3.171   6.287   5.010 -0.4563 -3.9460 -1.4953
   94MOL   H18345009   3.054   6.172   5.071  1.8599 -0.9406  0.0807
   94MOL   H18445010   2.912   6.371   5.140  0.2159 -0.9715  0.3806
   94MOL   H18545011   2.932   6.349   4.967  1.5656 -1.1358 -1.4771
   94MOL   H18645012   3.144   6.512   5.000  0.2526 -0.7461  1.4536
   94MOL   H18745013   3.069   6.549   5.149 -2.4229 -0.8323 -0.1694
   94MOL   H18845014   2.937   6.588   4.860 -0.4774  0.7988  0.4708
   94MOL   H18945015   2.859   6.610   5.004 -0.4666 -0.6696 -0.2643
   94MOL   H19045016   3.029   7.022   5.145 -3.3431 -0.9239 -0.5331
   94MOL   H19145017   3.042   7.032   4.976 -0.2823  2.1027  1.4316
   94MOL   H19245018   3.230   6.832   5.099  0.6667 -0.2850 -0.7588
   94MOL   H19345019   3.251   6.957   4.969 -0.9594  0.3037 -0.2004
   94MOL   O19445020   3.240   7.154   5.161  0.2425  0.2155 -0.6114
   94MOL   C19545021   3.295   7.239   5.262  0.4373 -0.1232 -0.3971
   94MOL   C19645022   3.390   7.342   5.198  0.7994  0.2455 -0.0763
   94MOL   C19745023   3.305   7.436   5.117  0.2588 -0.0148 -0.7903
   94MOL   C19845024   3.223   7.541   5.198 -0.1393 -0.1492 -0.0224
   94MOL   O19945025   3.307   7.603   5.299  0.3731 -0.2116  0.3166
   94MOL   C20045026   3.394   7.708   5.265 -0.0879 -0.4310  0.1801
   94MOL   O20145027   3.402   7.756   5.148 -0.1172  0.4751 -0.1261
   94MOL   C20245028   3.477   7.758   5.384 -0.6997 -0.4191 -0.1828
   94MOL   C20345029   3.566   0.005   5.335 -0.1428  0.3533  0.4930
   94MOL   C20445030   3.708   7.862   5.389 -0.0403 -0.0922  0.2272
   94MOL   O20545031   3.805   7.856   5.315 -0.0106  0.0440  0.7053
   94MOL   H20645032   3.209   7.291   5.306  1.0612  1.2214 -0.7599
   94MOL   H20745033   3.346   7.183   5.341 -1.0055 -0.5548  0.2625
   94MOL   H20845034   3.464   7.286   5.142  1.6506 -0.6808  1.9185
   94MOL   H20945035   3.452   7.389   5.274  1.9821 -0.5524 -0.5321
   94MOL   H21045036   3.227   7.384   5.061  1.1939 -0.3214 -1.8477
   94MOL   H21145037   3.372   7.483   5.045  0.4080  2.0194  0.6311
   94MOL   H21245038   3.171   7.604   5.127 -1.0126 -0.1592  0.6052
   94MOL   H21345039   3.147   7.480   5.247 -0.5777 -0.9706 -1.6941
   94MOL   H21445040   3.544   7.678   5.415 -0.0913  0.2110  0.1495
   94MOL   H21545041   3.409   7.788   5.463 -0.2765 -2.1873  0.8627
   94MOL   H21645042   3.581   0.015   5.228 -3.4534 -1.1893 -0.1832
   94MOL   H21745043   3.526   0.102   5.366  0.7893  0.4419  1.4610
   94MOL   O21845044   3.716   0.015   5.518  0.3485  0.0198  0.1343
   94MOL   C21945045   3.836   0.033   5.592  0.3458  0.4805  0.0797
   94MOL   C22045046   3.893   7.778   5.666 -0.0434 -0.3830  0.2770
   94MOL   C22145047   3.962   7.683   5.564 -0.1356 -0.4745  0.4247
   94MOL   C22245048   4.055   7.575   5.632 -0.1331 -0.7015  0.5916
   94MOL   O22345049   3.971   7.468   5.677 -0.6736  0.3023  0.1938
   94MOL   C22445050   3.953   7.465   5.808 -0.3291  0.1560  0.2943
   94MOL   O22545051   4.015   7.530   5.888  0.1030 -0.2597  0.2018
   94MOL   C22645052   3.845   7.374   5.857  0.1365  0.3231 -0.3775
   94MOL   C22745053   3.891   7.265   5.959  0.3735  0.1433 -0.7512
   94MOL   C22845054   3.820   7.128   5.963  0.7064 -0.1037 -0.0669
   94MOL   O22945055   3.783   7.071   5.861  0.1629 -0.1231 -0.4829
   94MOL   H23045056   3.920   0.080   5.542  1.0746  1.1531  1.8812
   94MOL   H23145057   3.810   0.113   5.662 -0.4377  0.4025 -0.1186
   94MOL   H23245058   3.812   7.721   5.711  0.7820 -1.5420  0.3343
   94MOL   H23345059   3.960   7.804   5.748  0.9372  1.8462 -1.1910
   94MOL   H23445060   4.026   7.752   5.510 -0.6390  0.2046  0.7005
   94MOL   H23545061   3.898   7.635   5.490  1.9529 -0.1809 -1.6477
   94MOL   H23645062   4.116   7.516   5.564  0.0944  0.4841 -0.2523
   94MOL   H23745063   4.122   7.617   5.707  1.2048 -1.5665 -0.1027
   94MOL   H23845064   3.820   7.305   5.776 -1.0091 -0.4201  0.5823
   94MOL   H23945065   3.749   7.419   5.879 -0.0459  0.6604 -1.8441
   94MOL   H24045066   3.996   7.250   5.936  0.4586 -0.2697 -0.1015
   94MOL   H24145067   3.891   7.314   6.056  1.5067 -0.1927 -0.5747
   94MOL   O24245068   3.793   7.098   6.091  0.3956  0.3560 -0.2042
   94MOL   C24345069   3.718   6.980   6.112  0.0260 -0.5223  0.1406
   94MOL   C24445070   3.736   6.913   6.247 -0.4050 -0.0521  0.5177
   94MOL   C24545071   3.712   7.000   6.373  0.2407 -0.7447 -0.8488
   94MOL   C24645072   3.706   6.908   6.497  0.3982  0.0175  0.1909
   94MOL   O24745073   3.826   6.832   6.525 -0.4021 -0.2909  0.1028
   94MOL   C24845074   3.929   6.897   6.590 -0.2712 -0.2659 -0.3744
   94MOL   O24945075   3.930   7.023   6.615 -0.7211 -0.3252 -0.2002
   94MOL   C25045076   4.036   6.794   6.634 -0.0333  0.2982 -0.0217
   94MOL   C25145077   4.089   6.818   6.775  0.3515 -0.5731 -0.2313
   94MOL   C25245078   4.019   6.728   6.873  0.4399  0.7920  0.6412
   94MOL   O25345079   4.034   6.604   6.866  0.1687  0.0815  0.1063
   94MOL   H25445080   3.611   6.983   6.092  0.1422  0.6105 -0.3647
   94MOL   H25545081   3.758   6.907   6.041 -0.4238 -1.9910  1.3801
   94MOL   H25645082   3.838   6.876   6.260 -0.9388 -0.9920  2.1972
   94MOL   H25745083   3.686   6.816   6.254 -0.2744 -0.2977 -1.7177
   94MOL   H25845084   3.610   7.037   6.364  0.4484 -0.6626 -3.4479
   94MOL   H25945085   3.778   7.080   6.402 -1.1317  0.5094 -1.1130
   94MOL   H26045086   3.677   6.970   6.581 -0.5943  0.1384 -0.2378
   94MOL   H26145087   3.632   6.834   6.464 -0.4787  0.2262  1.6792
   94MOL   H26245088   4.117   6.802   6.562 -1.2816  1.4191 -1.3461
   94MOL   H26345089   4.002   6.692   6.619 -2.5375  1.2194 -0.9047
   94MOL   H26445090   4.195   6.794   6.788  0.9630  1.4022 -1.3909
   94MOL   H26545091   4.078   6.918   6.816  0.8707 -0.0053 -1.4430
   94MOL   O26645092   3.964   6.799   6.964  0.8140  0.2530  0.2365
   94MOL   C26745093   3.917   6.730   7.079  0.0582  0.2904 -1.1775
   94MOL   C26845094   3.780   6.654   7.062  0.1546 -0.1871  0.3014
   94MOL   C26945095   3.729   6.605   7.200  0.1475  0.1001 -0.5990
   94MOL   C27045096   3.588   6.544   7.205  0.3120 -0.2064  0.3980
   94MOL   O27145097   3.598   6.417   7.133  0.4027  0.3172 -0.5209
   94MOL   C27245098   3.514   6.389   7.038  0.6586 -0.4727  0.5730
   94MOL   O27345099   3.418   6.461   7.002 -0.2625  0.4586 -0.2091
   94MOL   C27445100   3.543   6.248   6.975  0.0980 -0.5355 -0.5009
   94MOL   C27545101   3.600   6.145   7.076 -0.1565  0.0818  0.2404
   94MOL   C27645102   3.499   6.111   7.191 -0.1966  0.4574  0.3627
   94MOL   O27745103   3.380   6.113   7.167  0.0321 -0.3289  0.3141
   94MOL   H27845104   3.997   6.672   7.125 -0.9368  0.2512  0.5783
   94MOL   H27945105   3.904   6.807   7.155 -0.4283 -0.7695 -0.1641
   94MOL   H28045106   3.781   6.575   6.987  1.6570  1.1809 -1.1633
   94MOL   H28145107   3.701   6.712   7.014  0.7380 -0.5835 -1.1789
   94MOL   H28245108   3.728   6.684   7.276 -0.4822  0.8369 -1.3703
   94MOL   H28345109   3.791   6.530   7.249  1.1991  0.5158 -1.2959
   94MOL   H28445110   3.571   6.511   7.308  1.2441 -0.6608  0.4095
   94MOL   H28545111   3.512   6.610   7.164  0.5981  0.2347  0.5681
   94MOL   H28645112   3.606   6.260   6.887 -0.8546  1.7923 -0.9008
   94MOL   H28745113   3.446   6.224   6.932 -0.2123 -0.1756 -0.0022
   94MOL   H28845114   3.632   6.056   7.021 -0.3491  0.8325 -1.0918
   94MOL   H28945115   3.693   6.180   7.120 -0.9685  1.4887  0.8674
   94MOL   O29045116   3.558   6.066   7.299 -0.1286  0.1193 -0.6858
   94MOL   C29145117   3.467   6.031   7.415 -0.1662 -1.0285  0.4488
   94MOL   C29245118   3.489   5.888   7.449  0.5129 -0.1321  0.8736
   94MOL   C29345119   3.626   5.866   7.517 -0.0203 -0.0913 -0.2932
   94MOL   C29445120   3.646   5.722   7.544  0.4007 -0.2203 -0.1257
   94MOL   O29545121   3.775   5.710   7.595 -0.2075 -0.3632 -0.0790
   94MOL   C29645122   3.818   5.595   7.631 -0.2489  0.4627  0.8018
   94MOL   O29745123   3.750   5.492   7.624  0.8729  0.4417 -0.1129
   94MOL   C29845124   3.959   5.602   7.695  0.1189  0.0204 -0.4863
   94MOL   C29945125   4.060   5.701   7.644  0.0020  0.7254 -0.4680
   94MOL   C30045126   4.181   5.637   7.571 -0.2110  0.2897  0.3894
   94MOL   O30145127   4.236   5.696   7.479 -0.4041 -0.1376  0.1512
   94MOL   H30245128   3.500   6.086   7.503 -0.1168 -1.6832  0.8496
   94MOL   H30345129   3.361   6.045   7.399  0.0050 -1.2706 -1.0054
   94MOL   H30445130   3.478   5.834   7.355 -2.1174 -0.1013  1.1477
   94MOL   H30545131   3.410   5.840   7.507 -0.9966  0.4530 -0.6705
   94MOL   H30645132   3.637   5.925   7.608  2.4835 -0.8677 -0.0560
   94MOL   H30745133   3.704   5.895   7.446  0.8319  0.1913  0.7419
   94MOL   H30845134   3.581   5.696   7.627  0.6286  2.4253  0.9511
   94MOL   H30945135   3.625   5.668   7.452 -0.7154  2.4952 -1.5245
   94MOL   H31045136   3.997   5.500   7.703  1.6255  0.8008  3.0119
   94MOL   H31145137   3.942   5.619   7.801 -0.9875  2.0178 -0.9731
   94MOL   H31245138   4.014   5.777   7.582  1.7159  4.0119  2.1592
   94MOL   H31345139   4.097   5.743   7.738  1.5910  0.3612 -0.9183
   94MOL   O31445140   4.207   5.512   7.620 -0.2184 -0.0783 -0.4314
   94MOL   C31545141   4.319   5.436   7.587  0.3908 -0.4578  0.6007
   94MOL   C31645142   4.424   5.437   7.701 -0.4607  0.3185  0.1291
   94MOL   C31745143   4.388   5.331   7.805 -0.4565 -0.5498 -0.1398
   94MOL   C31845144   4.499   5.328   0.034  0.1786 -0.0459  0.0380
   94MOL   O31945145   4.469   5.225   0.125 -0.1629 -0.7617 -0.2040
   94MOL   C32045146   4.526   5.106   0.116 -0.1607  0.0922  0.0963
   94MOL   O32145147   4.622   5.074   0.046 -0.2542 -0.5874 -0.9494
   94MOL   C32245148   4.455   5.008   0.207  0.1507 -0.1391  0.2031
   94MOL   C32345149   4.310   4.976   0.168 -0.5230 -0.3717 -0.0302
   94MOL   C32445150   4.299   4.842   0.101 -0.2838  0.0313  0.3162
   94MOL   O32545151   4.278   4.833   7.855  0.3835  0.3217 -1.1468
   94MOL   H32645152   4.290   5.338   7.549  2.6913  0.2404 -3.2683
   94MOL   H32745153   4.370   5.480   7.501 -1.6870 -0.3265 -0.6048
   94MOL   H32845154   4.425   5.538   7.742 -1.4589 -0.3332  1.8071
   94MOL   H32945155   4.520   5.415   7.653 -1.3294 -0.5415 -1.2428
   94MOL   H33045156   4.384   5.235   7.754  0.4815 -0.6677 -0.0125
   94MOL   H33145157   4.291   5.342   7.853 -0.4011 -0.0725 -0.1342
   94MOL   H33245158   4.588   5.311   7.848 -0.8308 -2.2437 -0.8653
   94MOL   H33345159   4.509   5.422   0.090  0.2743 -0.4963  0.7893
   94MOL   H33445160   4.461   5.061   0.302  1.8625 -1.7031  0.9960
   94MOL   H33545161   4.520   4.921   0.211 -0.3366 -0.4828  0.6341
   94MOL   H33645162   4.234   4.989   0.244 -1.4420  1.7203 -1.2762
   94MOL   H33745163   4.277   5.044   0.089 -0.0163 -0.6245 -0.4691
   94MOL   O33845164   4.326   4.742   0.186  0.8476  0.1724 -0.2326
   94MOL   C33945165   4.326   4.606   0.145  0.3137  0.1774 -0.6234
   94MOL   C34045166   4.191   4.543   0.123  0.4873  0.1682 -0.1013
   94MOL   C34145167   4.184   4.390   0.083 -0.2206  0.7156  0.7139
   94MOL   C34245168   4.039   4.331   0.070  0.0180  0.2286 -0.6726
   94MOL   O34345169   3.987   4.342   0.204  0.0277  0.2612  0.5085
   94MOL   C34445170   3.868   4.299   0.223  0.6433 -0.0551 -0.5635
   94MOL   O34545171   3.793   4.242   0.143 -0.2883  0.3762  0.0888
   94MOL   C34645172   3.817   4.320   0.367 -0.6803  0.3999 -0.2227
   94MOL   C34745173   3.820   4.468   0.405 -0.3950 -0.8987  0.5926
   94MOL   C34845174   3.793   4.484   0.555 -0.7229 -0.6837  0.2636
   94MOL   O34945175   3.718   4.414   0.620  0.2812  0.0167 -0.1357
   94MOL   H35045176   4.374   4.595   0.047  0.5951  0.4347 -0.5153
   94MOL   H35145177   4.382   4.545   0.215  1.3850  2.8547  0.9378
   94MOL   H35245178   4.126   4.603   0.058 -0.0599 -0.7040 -0.3722
   94MOL   H35345179   4.136   4.540   0.217 -0.1192  1.1610 -0.4161
   94MOL   H35445180   4.248   4.324   0.142  3.9976  1.6023 -2.6679
   94MOL   H35545181   4.228   4.383   7.859  2.5320  1.2181  1.8543
   94MOL   H35645182   3.979   4.384   7.869 -3.6302 -3.0545 -0.2506
   94MOL   H35745183   4.037   4.226   0.041 -1.6772  0.6795 -2.2787
   94MOL   H35845184   3.891   4.268   0.427  0.6136  2.7638  0.2952
   94MOL   H35945185   3.722   4.272   0.392 -0.2773  0.2020  0.9239
   94MOL   H36045186   3.916   4.509   0.375 -0.6407 -0.8766 -0.1720
   94MOL   H36145187   3.734   4.517   0.360 -0.8610  0.0503  2.4674
   94MOL   O36245188   3.850   4.592   0.603  0.4616 -0.4092  0.1762
   94MOL   C36345189   3.865   4.600   0.746  0.0862  0.3507 -0.5431
   94MOL   C36445190   3.974   4.700   0.777 -0.0511  0.0424  0.3090
   94MOL   C36545191   4.112   4.659   0.730 -0.0015  0.0919  0.3405
   94MOL   C36645192   4.225   4.757   0.766  0.0725 -0.6906 -0.1748
   94MOL   O36745193   4.208   4.774   0.906 -0.5167 -0.1616 -0.3247
   94MOL   C36845194   4.304   4.858   0.971 -0.2501 -0.2403  0.2017
   94MOL   O36945195   4.378   4.939   0.917  0.5702  0.6162  0.7625
   94MOL   C37045196   4.319   4.842   1.117  0.0570 -0.2519  0.0824
   94MOL   C37145197   4.429   4.743   1.149  0.4566 -0.3562  0.2959
   94MOL   C37245198   4.382   4.602   1.139 -0.1946  0.3744 -0.1881
   94MOL   O37345199   4.299   4.554   1.211 -0.0650  0.0146 -0.4986
   94MOL   H37445200   3.773   4.635   0.793  0.7994  2.1772 -0.4894
   94MOL   H37545201   3.897   4.504   0.785 -2.1202 -1.3096 -2.6252
   94MOL   H37645202   3.959   4.712   0.884  0.2060 -0.9221  0.4576
   94MOL   H37745203   3.937   4.793   0.735 -1.6501 -1.0846 -0.8629
   94MOL   H37845204   4.105   4.644   0.622 -0.8972 -0.0559  0.4205
   94MOL   H37945205   4.125   4.561   0.775 -1.6430  0.4715  1.6440
   94MOL   H38045206   4.329   4.727   0.751  0.2007 -0.4216  0.1830
   94MOL   H38145207   4.215   4.851   0.711  3.2666  1.7567  3.2260
   94MOL   H38245208   4.225   4.811   1.163 -0.7146 -0.7490 -1.7788
   94MOL   H38345209   4.342   4.939   1.162 -0.7183  0.4165 -0.9407
   94MOL   H38445210   4.523   4.770   1.099  0.1102  0.6850  0.1859
   94MOL   H38545211   4.458   4.752   1.253 -0.7906  2.2981  0.4718
   94MOL   O38645212   4.441   4.547   1.028  0.3370 -0.4229 -0.3308
   94MOL   C38745213   4.405   4.421   0.975  0.3847  0.2131 -0.2058
   94MOL   C38845214   4.526   4.327   0.933  0.4710  0.4486  0.9666
   94MOL   C38945215   4.620   4.392   0.832  0.3097 -0.0654  1.1995
   94MOL   C39045216   4.763   4.335   0.831  0.1497 -0.7053 -0.8527
   94MOL   O39145217   4.847   4.419   0.747  0.0453 -0.1802 -0.0275
   94MOL   C39245218   4.972   4.391   0.728  0.3363 -0.0377  0.0467
   94MOL   O39345219   5.026   4.299   0.779 -0.1052  0.1308 -0.1170
   94MOL   C39445220   5.041   4.485   0.632  0.0032  0.2057 -0.6053
   94MOL   C39545221   4.972   4.492   0.499  0.1614 -0.1061  0.4004
   94MOL   C39645222   5.053   4.422   0.396  0.0172 -0.2093  0.0341
   94MOL   O39745223   5.000   4.340   0.313  0.3293  0.6047  0.1692
   94MOL   H39845224   4.341   4.361   1.040 -1.3956  1.3572 -0.8571
   94MOL   H39945225   4.334   4.441   0.894  0.6515 -1.3615 -0.8482
   94MOL   H40045226   4.500   4.228   0.895  2.1933  0.4346 -0.2734
   94MOL   H40145227   4.578   4.302   1.025  1.9885 -1.7856 -0.4493
   94MOL   H40245228   4.628   4.500   0.850 -2.3750  0.0736  1.7091
   94MOL   H40345229   4.567   4.382   0.738  0.7324 -0.9795  1.0557
   94MOL   H40445230   4.799   4.333   0.934 -1.9810  1.2896 -0.0099
   94MOL   H40545231   4.768   4.233   0.794 -1.8777 -1.1451  0.0456
   94MOL   H40645232   5.145   4.454   0.633 -0.4545 -1.3894  0.6533
   94MOL   H40745233   5.037   4.589   0.664 -0.4098  0.4847 -1.5547
   94MOL   H40845234   4.869   4.456   0.505 -0.9422  2.9131  0.5014
   94MOL   H40945235   4.977   4.597   0.468  2.3287 -0.1849  0.4019
   94MOL   O41045236   5.176   4.475   0.378 -0.0790  0.0961 -0.7166
   94MOL   C41145237   5.268   4.408   0.294 -0.3325 -0.5740 -0.8484
   94MOL   C41245238   5.401   4.372   0.362 -0.0138 -0.0534  0.4723
   94MOL   C41345239   5.384   4.263   0.472  0.7408  0.1227  0.0994
   94MOL   C41445240   5.510   4.196   0.518 -0.0400 -0.2288  0.4785
   94MOL   O41545241   5.581   4.297   0.596 -0.4170 -0.1038  0.0052
   94MOL   C41645242   5.695   4.262   0.656 -0.2124  0.3918 -0.1592
   94MOL   O41745243   5.755   4.150   0.649 -0.4125 -0.5644  0.0181
   94MOL   C41845244   5.763   4.367   0.742 -0.2704  0.3044  0.0045
   94MOL   C41945245   5.887   4.431   0.674  0.1757  0.0383  0.7293
   94MOL   C42045246   5.867   4.572   0.632  0.6554 -0.1564  0.1527
   94MOL   O42145247   5.948   4.665   0.654 -0.6339  0.1623 -0.0391
   94MOL   H42245248   5.226   4.315   0.254  1.0745 -1.3760 -0.5144
   94MOL   H42345249   5.283   4.466   0.203 -1.3749  0.9822 -0.0561
   94MOL   H42445250   5.455   4.458   0.401  0.8290 -1.0797  1.6389
   94MOL   H42545251   5.465   4.322   0.290 -1.4129  0.0350 -0.8666
   94MOL   H42645252   5.315   4.188   0.432 -0.7250  1.8607 -0.6974
   94MOL   H42745253   5.338   4.304   0.562  0.6349  1.2433 -0.4579
   94MOL   H42845254   5.490   4.115   0.588 -2.9093  1.4438  1.6679
   94MOL   H42945255   5.569   4.155   0.435  0.6183  2.8841 -0.6577
   94MOL   H43045256   5.784   4.333   0.844  2.2579 -1.4381 -1.0356
   94MOL   H43145257   5.680   4.437   0.751  0.2001  0.8180  0.4048
   94MOL   H43245258   5.967   4.412   0.745  1.2209 -2.8289 -1.1321
   94MOL   H43345259   5.917   4.374   0.587  0.6132  2.5829 -0.8483
   94MOL   O43445260   5.746   4.587   0.573 -0.0234  0.2364 -0.1305
   94MOL   C43545261   5.693   4.718   0.535  0.6304  0.2464 -0.0001
   94MOL   C43645262   5.719   4.751   0.391  0.7109 -0.1854 -0.2671
   94MOL   C43745263   5.719   4.631   0.290  0.6485  0.2732 -0.4011
   94MOL   C43845264   5.743   4.673   0.143  0.5433  0.4665  0.3589
   94MOL   O43945265   5.727   4.568   0.051 -0.0472  0.4300  0.2643
   94MOL   C44045266   5.608   4.540   7.874 -0.3601  0.9455  0.4370
   94MOL   O44145267   5.508   4.598   0.030 -0.3943 -0.5711  0.0941
   94MOL   C44245268   5.615   4.417   7.776  0.1632  0.6414 -0.6436
   94MOL   C44345269   5.706   4.441   7.664  0.4646 -0.3281  0.1876
   94MOL   C44445270   5.696   4.344   7.541  0.0994 -0.0289 -0.3361
   94MOL   O44545271   5.788   4.268   7.515 -0.2636 -0.3952 -0.2424
   94MOL   H44645272   5.586   4.722   0.554  0.7215 -2.4645  1.3919
   94MOL   H44745273   5.739   4.797   0.595  0.9910  0.5097 -0.6193
   94MOL   H44845274   5.823   4.783   0.383  0.2947  0.6618 -2.6567
   94MOL   H44945275   5.649   4.828   0.360 -0.0234 -0.6368  0.2683
   94MOL   H45045276   5.616   4.597   0.299  1.3364 -1.3904  1.6148
   94MOL   H45145277   5.791   4.553   0.312  0.2486 -1.0244 -3.5299
   94MOL   H45245278   5.678   4.756   0.114  0.6153 -0.1829 -1.8184
   94MOL   H45345279   5.844   4.713   0.149 -0.8078  3.8434  1.4088
   94MOL   H45445280   5.513   4.411   7.739  0.7409 -0.6798 -2.0224
   94MOL   H45545281   5.648   4.331   7.834 -0.9858 -0.2526 -1.3006
   94MOL   H45645282   5.677   4.536   7.620  1.5225 -0.5995 -1.1450
   94MOL   H45745283   5.807   4.431   7.705 -0.1384 -2.2382  1.2561
   94MOL   O45845284   5.582   4.344   7.483  0.4282 -0.4710 -0.7527
   94MOL   C45945285   5.558   4.255   7.376  0.3550  0.1007  0.3128
   94MOL   C46045286   5.497   4.117   7.400  0.0246  0.6396  0.1369
   94MOL   C46145287   5.540   4.019   7.290  0.2252  0.6205 -0.4402
   94MOL   C46245288   5.500   3.875   7.315  0.1676 -0.4210  1.0079
   94MOL   O46345289   5.362   3.860   7.295  0.3359 -0.3580 -0.2824
   94MOL   C46445290   5.315   3.741   7.320 -0.1462 -0.8100  0.4722
   94MOL   O46545291   5.384   3.648   7.363  0.7484 -0.2863  0.2312
   94MOL   C46645292   5.165   3.721   7.301 -0.4584 -0.3801 -0.2425
   94MOL   C46745293   5.091   3.807   7.410  0.2959 -0.2476 -0.2298
   94MOL   C46845294   5.024   3.934   7.364  0.5147 -0.8941  0.3810
   94MOL   O46945295   5.031   3.970   7.242  0.3563 -0.0668 -0.5916
   94MOL   H47045296   5.474   4.307   7.330  1.9347  1.5818 -0.9565
   94MOL   H47145297   5.639   4.254   7.304 -0.3368 -0.2053 -0.4699
   94MOL   H47245298   5.392   4.121   7.429  0.4782  2.7321  1.6290
   94MOL   H47345299   5.542   4.080   7.492  0.1311 -1.5195 -0.7634
   94MOL   H47445300   5.648   4.022   7.278  0.6406  1.7504  2.9876
   94MOL   H47545301   5.490   4.057   7.201  0.0686 -1.2852 -1.1981
   94MOL   H47645302   5.556   3.796   7.265  1.2106 -0.1638  1.7568
   94MOL   H47745303   5.539   3.865   7.416 -0.2042  2.7408  1.4914
   94MOL   H47845304   5.146   3.615   7.316  1.5416 -0.4032  2.6435
   94MOL   H47945305   5.145   3.755   7.200  0.1374 -1.3240 -0.6740
   94MOL   H48045306   5.016   3.745   7.458 -1.0759  3.2984  2.4163
   94MOL   H48145307   5.164   3.830   7.487 -0.9240  0.2354  0.7849
   94MOL   H48245308   4.978   3.997   7.440  0.5752 -1.2929  0.7526
   95MOL     O145309   1.339   2.416   4.564  0.3058 -0.5758  0.6294
   95MOL     C245310   1.281   2.536   4.628 -0.2072 -0.6771 -0.1249
   95MOL     C345311   1.133   2.512   4.667  0.3878 -0.6794 -0.8612
   95MOL     C445312   1.119   2.425   4.791 -0.2557 -0.0444  0.0963
   95MOL     C545313   0.971   2.388   4.811  0.1167 -0.1020 -0.5990
   95MOL     O645314   0.914   2.309   4.706 -0.0776 -0.4398  0.2879
   95MOL     C745315   0.784   2.326   4.685 -0.0601  0.2224 -0.5428
   95MOL     O845316   0.714   2.400   4.747 -0.5019  0.2461  0.4110
   95MOL     C945317   0.741   2.247   4.565 -0.0544 -0.4307  0.3878
   95MOL    C1045318   0.588   2.214   4.559  0.2492  0.1632  0.2219
   95MOL    C1145319   0.554   2.109   4.458  0.2488 -0.2720  0.1942
   95MOL    O1245320   0.474   2.138   4.369  0.1413  0.6269 -0.5591
   95MOL    H1345321   1.344   2.554   4.716 -0.9935 -2.7697  0.8951
   95MOL    H1445322   1.294   2.616   4.555  1.9212  0.0910  1.0323
   95MOL    H1545323   1.080   2.468   4.582 -1.3319  0.7740 -0.5789
   95MOL    H1645324   1.079   2.606   4.675  1.8003  0.1970 -1.4123
   95MOL    H1745325   1.148   2.486   4.877  0.0786  1.1838 -0.8773
   95MOL    H1845326   1.197   2.349   4.793  0.2003  0.2834 -3.0538
   95MOL    H1945327   0.963   2.331   4.904 -2.1927  1.5806  0.2780
   95MOL    H2045328   0.919   2.484   4.810 -3.0863 -1.7399  1.2027
   95MOL    H2145329   0.796   2.154   4.552  0.1476 -0.0858 -1.2211
   95MOL    H2245330   0.776   2.307   4.481 -0.4250  2.4519  2.1994
   95MOL    H2345331   0.561   2.165   4.653  0.2653 -0.2537  0.0106
   95MOL    H2445332   0.527   2.301   4.534 -0.7497 -1.5620 -3.7063
   95MOL    H2545333   1.299   2.410   4.478 -0.8896 -1.4055  1.2385
   95MOL    O2645334   0.603   1.986   4.481 -0.1235 -0.7327 -0.2058
   95MOL    C2745335   0.577   1.894   4.377 -0.2709  0.8033  0.2310
   95MOL    C2845336   0.576   1.754   4.436  1.0872  0.4580  0.0214
   95MOL    C2945337   0.562   1.640   4.331 -0.3173  0.6045 -0.1076
   95MOL    C3045338   0.581   1.494   4.382  0.4218  0.5043 -0.1559
   95MOL    O3145339   0.606   1.414   4.270  0.4657  0.4846  0.4364
   95MOL    C3245340   0.609   1.283   4.281 -0.4891 -0.5390  0.3816
   95MOL    O3345341   0.606   1.209   4.376 -0.5424 -0.4801  0.4060
   95MOL    C3445342   0.629   1.220   4.140 -0.3933  1.6729 -0.4042
   95MOL    C3545343   0.540   1.094   4.114 -0.0706  0.0020 -0.2837
   95MOL    C3645344   0.605   0.969   4.159  0.1745  0.3984 -0.3612
   95MOL    O3745345   0.714   0.925   4.116 -0.0017  0.4597 -0.2595
   95MOL    H3845346   0.487   1.910   4.319  0.0600 -2.0087 -1.1580
   95MOL    H3945347   0.661   1.899   4.308  0.5653 -0.2537  1.1437
   95MOL    H4045348   0.489   1.747   4.501  1.2617 -1.6665  0.0711
   95MOL    H4145349   0.663   1.734   4.500  1.8931  2.4488 -0.4267
   95MOL    H4245350   0.649   1.653   4.267  0.4750 -0.6297  0.7025
   95MOL    H4345351   0.468   1.654   4.277 -1.3514 -1.5992  1.0314
   95MOL    H4445352   0.663   1.494   4.453  2.5168  1.5170 -2.4905
   95MOL    H4545353   0.490   1.456   4.429  0.8291 -0.4012 -0.1006
   95MOL    H4645354   0.732   1.189   4.124 -1.1700 -0.2586 -1.8356
   95MOL    H4745355   0.598   1.297   4.069  1.1747  0.9488 -1.8941
   95MOL    H4845356   0.438   1.099   4.152 -0.0260 -0.8921 -0.0378
   95MOL    H4945357   0.530   1.089   4.006  1.0158  0.8435 -0.4355
   95MOL    O5045358   0.530   0.903   4.258 -0.6034  0.1510 -0.3810
   95MOL    C5145359   0.577   0.778   4.317  0.6959  0.7971 -0.8264
   95MOL    C5245360   0.631   0.823   4.454 -0.5367 -0.4973 -0.0801
   95MOL    C5345361   0.688   0.700   4.527  0.3454  0.9267 -0.2289
   95MOL    C5445362   0.736   0.726   4.668  0.3621  0.5559 -0.1105
   95MOL    O5545363   0.638   0.746   4.766  0.5280  0.6167  0.5320
   95MOL    C5645364   0.552   0.635   4.790 -0.2390  0.6300 -0.5947
   95MOL    O5745365   0.566   0.521   4.746  0.2237  0.4892 -0.0633
   95MOL    C5845366   0.428   0.675   4.870 -0.2741 -1.1267 -0.6843
   95MOL    C5945367   0.307   0.728   4.795  0.9099 -0.3290 -0.2002
   95MOL    C6045368   0.304   0.872   4.817  0.5119 -0.6143 -0.3204
   95MOL    O6145369   0.245   0.925   4.911  0.3590  0.0221 -0.1952
   95MOL    H6245370   0.491   0.712   4.333 -0.6159  2.4510 -0.9125
   95MOL    H6345371   0.646   0.717   4.259 -0.2536  1.6208 -2.8666
   95MOL    H6445372   0.544   0.859   4.509 -0.1162  0.0976  0.2065
   95MOL    H6545373   0.701   0.907   4.448 -0.8805 -0.3043 -1.6271
   95MOL    H6645374   0.772   0.664   4.468 -1.2093  1.2539 -2.7234
   95MOL    H6745375   0.620   0.616   4.535 -2.0328  2.7341 -0.9413
   95MOL    H6845376   0.793   0.638   4.698 -0.4018  0.2937  0.5963
   95MOL    H6945377   0.796   0.816   4.678  2.8356 -1.1914  1.3677
   95MOL    H7045378   0.472   0.747   4.939 -0.0497 -0.5940 -1.3731
   95MOL    H7145379   0.400   0.590   4.932 -1.0623  0.4756  1.2452
   95MOL    H7245380   0.309   0.705   4.689 -3.5258  0.7714 -0.6047
   95MOL    H7345381   0.225   0.670   4.837 -0.7554  1.1488 -1.3715
   95MOL    O7445382   0.378   0.935   4.728  0.1104  0.0192 -0.0150
   95MOL    C7545383   0.365   1.077   4.722  0.0233 -0.8147  0.7039
   95MOL    C7645384   0.362   1.117   4.570  0.0108 -0.0517  0.0688
   95MOL    C7745385   0.239   1.049   4.507 -0.0718 -0.1350 -0.2142
   95MOL    C7845386   0.240   1.083   4.360  0.2000  0.5923 -0.6648
   95MOL    O7945387   0.105   1.103   4.311 -0.0923 -0.0348 -0.1068
   95MOL    C8045388   0.052   1.007   4.240  0.1661 -0.6029 -0.6820
   95MOL    O8145389   0.121   0.926   4.182 -0.0908  0.3073  0.3836
   95MOL    C8245390   7.772   1.014   4.226  0.1944  0.2564 -0.5770
   95MOL    C8345391   7.732   0.979   4.084 -0.3427  0.3904 -1.0219
   95MOL    C8445392   7.585   0.986   4.052  0.7659  0.2287  0.3650
   95MOL    O8545393   7.506   0.892   4.043 -0.7535 -0.1068 -0.6162
   95MOL    H8645394   0.293   1.128   4.786 -0.1202 -0.5767  0.3544
   95MOL    H8745395   0.457   1.120   4.762 -0.7778  1.6038  0.0652
   95MOL    H8845396   0.460   1.086   4.532 -0.6222 -2.6335  0.4432
   95MOL    H8945397   0.347   1.225   4.572 -3.2345 -0.4873  1.5966
   95MOL    H9045398   0.144   1.078   4.551  0.1710  1.9169 -0.9640
   95MOL    H9145399   0.256   0.942   4.513 -1.0092 -0.4155 -2.0950
   95MOL    H9245400   0.288   1.179   4.341 -0.1856  0.6999 -1.1233
   95MOL    H9345401   0.290   1.010   4.297  1.7972  1.4394 -0.4078
   95MOL    H9445402   7.745   1.117   4.249 -0.0260  0.3449 -1.2338
   95MOL    H9545403   7.734   0.934   4.290 -0.1726  1.0514  0.2084
   95MOL    H9645404   7.777   1.036   4.002  0.7440 -2.5871 -2.5707
   95MOL    H9745405   7.757   0.874   4.067 -0.2332 -0.3788  3.2790
   95MOL    O9845406   7.550   1.117   4.027  0.1782  0.1979  0.5596
   95MOL    C9945407   7.416   1.155   3.996  0.0736  0.6341  0.3122
   95MOL   C10045408   7.406   1.267   3.902  0.6493 -0.6850 -1.0571
   95MOL   C10145409   7.274   1.338   3.912 -0.1455  0.2041  0.3191
   95MOL   C10245410   7.155   1.250   3.877 -0.0081  0.7318  0.3764
   95MOL   O10345411   7.161   1.240   3.739 -0.1407  0.6742  0.2498
   95MOL   C10445412   7.080   1.168   3.659  0.4315  0.2727 -0.3969
   95MOL   O10545413   6.978   1.107   3.694 -0.4167  0.6576 -0.2418
   95MOL   C10645414   7.135   1.172   3.517 -0.3406  0.7367 -0.0146
   95MOL   C10745415   7.025   1.188   3.407  0.0419  0.4610 -0.2352
   95MOL   C10845416   6.980   1.324   3.368  0.3881 -0.5554 -0.3983
   95MOL   O10945417   6.929   1.404   3.440 -0.2987 -0.3455  0.1631
   95MOL   H11045418   7.373   1.067   3.949 -0.0444  1.5515 -1.3282
   95MOL   H11145419   7.364   1.169   4.091  1.0143  0.9241  0.7961
   95MOL   H11245420   7.426   1.239   3.798 -1.2998 -1.3484 -1.2803
   95MOL   H11345421   7.486   1.337   3.927 -1.1962  0.6299  1.3641
   95MOL   H11445422   7.278   1.429   3.851 -1.6222  0.6610  0.8741
   95MOL   H11545423   7.266   1.380   4.013  0.1793 -0.0960  0.4692
   95MOL   H11645424   7.162   1.157   3.934  0.0624 -0.4608 -1.5480
   95MOL   H11745425   7.057   1.293   3.900 -0.9827 -0.8556 -0.7194
   95MOL   H11845426   7.201   1.088   3.497 -2.0220 -0.3131 -1.3450
   95MOL   H11945427   7.206   1.254   3.514 -0.1377  0.5107 -3.3633
   95MOL   H12045428   7.059   1.120   3.329  0.8356  0.2618  0.2732
   95MOL   H12145429   6.935   1.150   3.455 -0.1376  2.2045  0.8642
   95MOL   O12245430   7.004   1.341   3.244  0.5782  0.0913  0.1153
   95MOL   C12345431   7.017   1.475   3.188 -0.2651  0.4309  0.2281
   95MOL   C12445432   7.146   1.509   3.111 -0.0027  0.0395  0.2686
   95MOL   C12545433   7.166   1.415   2.993 -0.9048  0.3981  0.6261
   95MOL   C12645434   7.305   1.438   2.928  0.1222 -0.3217  0.2673
   95MOL   O12745435   7.314   1.345   2.818  0.4007 -0.2853 -0.2174
   95MOL   C12845436   7.315   1.382   2.691 -0.4557  0.0060  1.2430
   95MOL   O12945437   7.310   1.501   2.646 -0.4596  0.1882 -0.2689
   95MOL   C13045438   7.288   1.261   2.598  0.1987  0.5460 -0.0297
   95MOL   C13145439   7.410   1.193   2.537 -0.7609  0.2355 -0.3839
   95MOL   C13245440   7.498   1.121   2.634  0.2671  1.1589  0.7926
   95MOL   O13345441   7.528   1.003   2.611 -0.4201  0.2143 -0.2052
   95MOL   H13445442   6.931   1.496   3.124  0.7256 -0.3076 -1.3901
   95MOL   H13545443   7.006   1.538   3.276 -0.3636 -0.9301  1.1949
   95MOL   H13645444   7.223   1.502   3.188  0.8465  1.6409 -0.4255
   95MOL   H13745445   7.151   1.614   3.084 -1.6798  0.5194  1.6905
   95MOL   H13845446   7.089   1.422   2.916  1.0501  0.2881 -1.3881
   95MOL   H13945447   7.173   1.310   3.024 -1.8137  0.8121  2.3085
   95MOL   H14045448   7.319   1.543   2.904 -1.1138 -0.1642  0.1820
   95MOL   H14145449   7.383   1.414   2.999  0.6851 -0.3565 -0.3634
   95MOL   H14245450   7.220   1.291   2.518 -0.5596 -0.0356  0.3838
   95MOL   H14345451   7.228   1.191   2.657 -0.0450  0.3257 -0.5296
   95MOL   H14445452   7.391   1.108   2.473 -0.7683 -0.6817  0.8157
   95MOL   H14545453   7.471   1.270   2.489  0.8289 -0.3732  0.6199
   95MOL   O14645454   7.540   1.189   2.737 -0.3512 -0.4457 -0.1957
   95MOL   C14745455   7.647   1.152   2.818  0.2055  0.3403  0.3349
   95MOL   C14845456   7.590   1.062   2.930 -0.1020 -0.9297 -0.5736
   95MOL   C14945457   7.679   1.040   3.052 -0.5375  0.0123 -0.5889
   95MOL   C15045458   7.810   0.958   3.030 -0.2173 -0.4128  0.1961
   95MOL   O15145459   7.862   0.925   3.155  0.3928 -0.2491 -0.4307
   95MOL   C15245460   0.104   0.887   3.157 -0.2324 -0.1773 -0.0193
   95MOL   O15345461   0.182   0.878   3.067  0.0652  0.0642 -0.4778
   95MOL   C15445462   0.152   0.854   3.292 -0.4233 -0.4489 -0.5945
   95MOL   C15545463   0.077   0.740   3.360 -0.0322  0.2440 -0.4748
   95MOL   C15645464   0.133   0.601   3.329 -0.4601 -0.1199 -0.5658
   95MOL   O15745465   0.079   0.528   3.252 -0.2625 -0.2959  0.1894
   95MOL   H15845466   7.729   1.108   2.761 -0.4807 -1.0176  0.3709
   95MOL   H15945467   7.684   1.238   2.873 -0.1026  0.5510  0.2103
   95MOL   H16045468   7.554   0.970   2.884  0.1312 -0.7573 -1.1036
   95MOL   H16145469   7.501   1.109   2.971  0.8311  0.7938 -0.4968
   95MOL   H16245470   7.620   0.985   3.125 -0.9214  3.2524  1.6457
   95MOL   H16345471   7.702   1.138   3.094  1.2943 -0.5493 -0.2550
   95MOL   H16445472   7.798   0.876   2.959 -1.5047 -1.3201  1.4274
   95MOL   H16545473   0.001   1.025   2.975 -1.8735  0.7156 -0.4866
   95MOL   H16645474   0.118   0.936   3.355  1.1062 -0.6937  0.5797
   95MOL   H16745475   0.258   0.835   3.305 -0.3037  0.3595 -0.3679
   95MOL   H16845476   0.065   0.754   3.467 -1.4331 -1.8092 -0.3423
   95MOL   H16945477   7.848   0.735   3.326  0.5098  1.1617 -2.3295
   95MOL   O17045478   0.247   0.575   3.405  0.3710 -0.6579  0.3864
   95MOL   C17145479   0.320   0.458   3.408 -0.0486 -0.0479 -0.5110
   95MOL   C17245480   0.270   0.373   3.524  0.3039  0.5267  0.3802
   95MOL   C17345481   0.321   0.433   3.658  1.0703  1.1256 -0.5040
   95MOL   C17445482   0.470   0.393   3.701  0.3532  0.2943 -0.1347
   95MOL   O17545483   0.479   0.258   3.745  0.1704 -0.0916 -0.3602
   95MOL   C17645484   0.602   0.223   3.793 -0.1599 -0.2304  0.0023
   95MOL   O17745485   0.701   0.295   3.785  0.3993 -0.1022 -0.2759
   95MOL   C17845486   0.604   0.082   3.852 -0.4589 -0.6800  0.2343
   95MOL   C17945487   0.705   0.068   3.972 -0.0481  0.7598  0.6401
   95MOL   C18045488   0.623   0.063   4.100  0.2373 -0.8876 -0.1276
   95MOL   O18145489   0.570   7.840   4.156 -0.0930  0.3399  0.2200
   95MOL   H18245490   0.295   0.404   3.316  0.4118 -1.4810  0.1895
   95MOL   H18345491   0.426   0.485   3.413  0.1643 -1.1606  1.8476
   95MOL   H18445492   0.311   0.272   3.522 -1.2457 -0.0931 -0.8000
   95MOL   H18545493   0.162   0.362   3.520  0.2833  1.0691 -1.1015
   95MOL   H18645494   0.254   0.398   3.737  1.1492  2.2286  0.0620
   95MOL   H18745495   0.301   0.540   3.650 -1.8205  0.5130 -2.5913
   95MOL   H18845496   0.548   0.410   3.626 -1.2725 -0.3453 -2.0068
   95MOL   H18945497   0.505   0.449   3.788  0.6959 -0.3440  0.1409
   95MOL   H19045498   0.617   0.024   3.761  2.7929 -0.2266  0.3404
   95MOL   H19145499   0.506   0.053   3.888 -0.1231 -1.6833  0.3744
   95MOL   H19245500   0.763   7.851   3.963 -3.0504 -1.1379 -0.0757
   95MOL   H19345501   0.786   0.141   3.975  1.3356 -0.5839 -2.3956
   95MOL   O19445502   0.603   0.187   4.137 -0.1133 -1.0367 -0.0865
   95MOL   C19545503   0.512   0.225   4.238  0.6459  0.1603 -0.2304
   95MOL   C19645504   0.608   0.253   4.355 -0.5309 -0.1796 -0.7510
   95MOL   C19745505   0.689   0.386   4.346 -0.2299 -0.6699  0.6167
   95MOL   C19845506   0.808   0.382   4.240  0.0515  0.0010  0.2222
   95MOL   O19945507   0.883   0.501   4.260  0.5145 -0.0738  0.0477
   95MOL   C20045508   1.019   0.497   4.258  0.4132  0.2174  0.2443
   95MOL   O20145509   1.081   0.394   4.244 -0.4013 -0.5781  0.1874
   95MOL   C20245510   1.084   0.637   4.267 -0.4372 -1.0624  1.2380
   95MOL   C20345511   0.994   0.761   4.255 -0.5414  0.0137 -0.7216
   95MOL   C20445512   1.071   0.884   4.307  0.0989  0.2697  0.2395
   95MOL   O20545513   1.180   0.877   4.361 -0.6872 -0.6408 -0.1031
   95MOL   H20645514   0.463   0.321   4.221  0.9204  0.6367  1.5024
   95MOL   H20745515   0.439   0.147   4.261 -0.3862  1.3918  0.8224
   95MOL   H20845516   0.675   0.170   4.379 -4.2981 -3.0906  0.1902
   95MOL   H20945517   0.542   0.262   4.441  0.1812 -1.5690 -0.0427
   95MOL   H21045518   0.734   0.417   4.440 -0.7067  2.5368 -0.1418
   95MOL   H21145519   0.626   0.470   4.317 -0.3045 -0.4898  1.2871
   95MOL   H21245520   0.866   0.290   4.252  1.5745  1.0782  1.3301
   95MOL   H21345521   0.770   0.370   4.139  0.0952 -2.2203  0.4244
   95MOL   H21445522   1.168   0.628   4.198 -1.4984 -0.8808 -0.0849
   95MOL   H21545523   1.117   0.637   4.371 -0.0848  0.7921  1.1444
   95MOL   H21645524   0.970   0.796   4.155 -1.7905 -2.8811 -1.4861
   95MOL   H21745525   0.895   0.759   4.300 -0.8327 -2.2155 -1.4017
   95MOL   O21845526   0.993   1.001   4.300  0.2580  0.0746  0.3031
   95MOL   C21945527   1.055   1.128   4.326 -0.6091  0.2716 -0.5628
   95MOL   C22045528   0.973   1.236   4.261  0.5011 -0.2110  0.7062
   95MOL   C22145529   1.016   1.378   4.309  0.1384 -0.1974  0.4086
   95MOL   C22245530   0.936   1.478   4.232  0.0458 -0.2495  0.0867
   95MOL   O22345531   0.964   1.614   4.253 -0.5905 -0.0626 -0.3063
   95MOL   C22445532   0.934   1.677   4.368 -0.2268 -0.1545 -1.1688
   95MOL   O22545533   0.896   1.632   4.474  0.4847 -1.0574  0.3467
   95MOL   C22645534   0.955   1.829   4.354  0.3495  0.6191  0.8718
   95MOL   C22745535   1.108   1.872   4.340  0.0577  0.4061  0.1389
   95MOL   C22845536   1.129   2.002   4.407 -0.9155  0.3058  0.2381
   95MOL   O22945537   1.120   2.104   4.344  0.0255  0.0008  0.1242
   95MOL   H23045538   1.067   1.144   4.433  0.5151  0.0172 -0.6473
   95MOL   H23145539   1.156   1.127   4.284 -0.5039  0.6609 -0.3225
   95MOL   H23245540   0.871   1.212   4.291  0.1275  2.0938  1.3367
   95MOL   H23345541   0.971   1.227   4.152  2.9132 -1.5652  0.7327
   95MOL   H23445542   1.122   1.399   4.293  0.2755 -0.4279  0.9959
   95MOL   H23545543   0.998   1.381   4.417 -0.3591  2.2358  0.2853
   95MOL   H23645544   0.953   1.462   4.126  1.9739  3.6852 -0.2608
   95MOL   H23745545   0.831   1.452   4.245  0.5135 -2.1011  0.4056
   95MOL   H23845546   0.909   1.864   4.446  1.5539  0.1440  1.6719
   95MOL   H23945547   0.886   1.853   4.273  0.0938 -0.8354  0.6489
   95MOL   H24045548   1.176   1.799   4.384  0.5933  0.3862 -0.6999
   95MOL   H24145549   1.137   1.887   4.236  1.1843 -2.0669  0.0733
   95MOL   O24245550   1.154   1.994   4.535 -0.1702  0.5790  0.1810
   95MOL   C24345551   1.196   2.099   4.617 -0.2414 -0.7641 -0.6958
   95MOL   C24445552   1.318   2.064   4.700  0.0318  0.4529  0.3318
   95MOL   C24545553   1.313   1.931   4.777  0.0881 -0.3107 -0.0265
   95MOL   C24645554   1.445   1.883   4.849 -0.0421 -0.0534  0.3759
   95MOL   O24745555   1.536   1.836   4.754 -0.1119 -0.4632  0.0854
   95MOL   C24845556   1.674   1.858   4.771 -0.1075  0.2331  0.2343
   95MOL   O24945557   1.730   1.900   4.871 -0.0686 -0.1736  0.0633
   95MOL   C25045558   1.753   1.811   4.651  1.0256 -0.1072 -0.5739
   95MOL   C25145559   1.901   1.856   4.650  0.3047  0.6925  0.1426
   95MOL   C25245560   1.983   1.751   4.717  0.3027  0.0314  0.6311
   95MOL   O25345561   1.935   1.665   4.790 -0.3625  0.5651 -0.2902
   95MOL   H25445562   1.211   2.192   4.562 -0.4739  0.9248  1.9839
   95MOL   H25545563   1.119   2.118   4.692 -1.8295  2.6688 -3.0721
   95MOL   H25645564   1.324   2.146   4.772  4.5180 -0.8940  1.6572
   95MOL   H25745565   1.405   2.074   4.636  1.1080  1.7157  1.9605
   95MOL   H25845566   1.255   1.857   4.722  0.4300  0.3779 -1.3403
   95MOL   H25945567   1.246   1.956   4.859 -2.4686 -1.0142 -1.8505
   95MOL   H26045568   1.472   1.960   4.921 -1.8087 -1.0972  2.2188
   95MOL   H26145569   1.419   1.792   4.903 -0.9132 -0.2659 -0.3799
   95MOL   H26245570   1.713   1.871   4.571 -1.7740 -1.3324 -0.1415
   95MOL   H26345571   1.745   1.703   4.636  1.0912 -0.1354 -0.4128
   95MOL   H26445572   1.941   1.863   4.548 -0.3715  0.0023 -0.1713
   95MOL   H26545573   1.905   1.950   4.705 -0.7847  0.1107  1.2400
   95MOL   O26645574   2.116   1.771   4.701 -0.4163  0.0433  0.1297
   95MOL   C26745575   2.208   1.689   4.783  0.5393 -0.1866  0.4662
   95MOL   C26845576   2.225   1.545   4.735  0.3581 -0.2697  0.1345
   95MOL   C26945577   2.229   1.517   4.589  0.3902 -0.4468  0.4134
   95MOL   C27045578   2.285   1.376   4.565  0.0028 -0.4581 -0.0084
   95MOL   O27145579   2.423   1.365   4.585 -0.1864  0.0443 -0.1110
   95MOL   C27245580   2.493   1.254   4.556  0.6371 -0.2260  0.0423
   95MOL   O27345581   2.448   1.150   4.521  0.5355  0.1085  0.2564
   95MOL   C27445582   2.642   1.270   4.586  0.3425  0.1724 -0.6377
   95MOL   C27545583   2.694   1.145   4.662  0.6027  0.3566  0.1848
   95MOL   C27645584   2.846   1.133   4.655 -0.1190 -0.2558 -0.0585
   95MOL   O27745585   2.897   1.026   4.613 -0.3313  0.3331  0.2135
   95MOL   H27845586   2.294   1.753   4.802 -0.5395  1.0745  1.1448
   95MOL   H27945587   2.163   1.680   4.882 -0.7333 -1.6936 -0.2273
   95MOL   H28045588   2.134   1.496   4.767  1.1365 -1.6785  0.2150
   95MOL   H28145589   2.304   1.496   4.791  1.2002  3.0650  2.0377
   95MOL   H28245590   2.294   1.588   4.537  2.5384 -1.6218  1.4368
   95MOL   H28345591   2.126   1.542   4.564  1.1020  4.0795  1.4757
   95MOL   H28445592   2.234   1.321   4.643 -0.4010 -1.8058 -1.2095
   95MOL   H28545593   2.261   1.337   4.466  0.2109  1.2514 -0.7412
   95MOL   H28645594   2.655   1.358   4.649  1.3999 -0.5261  0.1315
   95MOL   H28745595   2.704   1.289   4.499  2.1361  2.5481  1.0723
   95MOL   H28845596   2.667   1.154   4.767  1.9610 -0.7901  0.6495
   95MOL   H28945597   2.656   1.057   4.611 -1.1329  2.5993 -2.5155
   95MOL   O29045598   2.914   1.235   4.703  0.5055  0.0246 -0.2539
   95MOL   C29145599   3.061   1.237   4.693  0.3166 -0.7243  0.8469
   95MOL   C29245600   3.094   1.379   4.704 -0.9232  0.0048  0.1757
   95MOL   C29345601   3.044   1.448   4.577 -0.1116  0.1341 -0.1246
   95MOL   C29445602   3.084   1.598   4.560  0.0386  0.6614  0.8211
   95MOL   O29545603   3.075   1.626   4.421  0.3082 -0.1627 -0.0985
   95MOL   C29645604   3.168   1.590   4.342  0.5341 -0.7800  0.5129
   95MOL   O29745605   3.273   1.539   4.379  0.1977  0.0238 -0.0905
   95MOL   C29845606   3.131   1.622   4.198 -0.2901 -0.0626 -0.2626
   95MOL   C29945607   2.998   1.565   4.161 -0.7076  0.8603  0.2903
   95MOL   C30045608   3.029   1.435   4.088  0.1684  0.0754  0.5817
   95MOL   O30145609   3.027   1.438   3.962 -0.2849 -0.1812  0.1628
   95MOL   H30245610   3.110   1.179   4.772 -0.7737 -2.2697  0.4080
   95MOL   H30345611   3.097   1.190   4.601  0.0168  0.6567  0.0222
   95MOL   H30445612   3.202   1.391   4.706 -1.0244  1.0065 -0.4310
   95MOL   H30545613   3.049   1.422   4.794  0.5824  2.2895 -0.1451
   95MOL   H30645614   2.936   1.445   4.571 -0.0554 -0.9900 -0.6407
   95MOL   H30745615   3.074   1.388   4.491 -1.3352  1.3657 -1.4457
   95MOL   H30845616   3.020   1.664   4.618 -0.3998  0.2439  0.8114
   95MOL   H30945617   3.182   1.619   4.604 -0.0438  1.6697  0.5306
   95MOL   H31045618   3.211   1.570   4.146  0.2941 -0.1307  0.6994
   95MOL   H31145619   3.126   1.730   4.184 -1.2358 -0.3099 -1.9947
   95MOL   H31245620   2.929   1.532   4.239 -2.0044 -1.0372 -1.6053
   95MOL   H31345621   2.941   1.630   4.096 -0.0459  1.3789  0.2250
   95MOL   O31445622   3.056   1.325   4.168 -0.2589 -0.8829 -0.0395
   95MOL   C31545623   3.065   1.196   4.112  0.2145  0.0117  0.1444
   95MOL   C31645624   3.153   1.107   4.195 -0.3925 -0.2115 -0.9577
   95MOL   C31745625   3.110   1.081   4.344 -0.1029 -0.4285 -0.4165
   95MOL   C31845626   3.213   0.997   4.423  0.4089  0.7635 -0.0592
   95MOL   O31945627   3.318   1.082   4.456 -0.4055 -0.5471 -0.3783
   95MOL   C32045628   3.392   1.057   4.566 -0.2361 -0.2011  0.0773
   95MOL   O32145629   3.365   0.979   4.658 -0.3037 -0.0019 -0.2154
   95MOL   C32245630   3.513   1.143   4.554 -0.1185  0.4204 -0.3494
   95MOL   C32345631   3.490   1.283   4.622  0.3688 -0.0526 -0.1047
   95MOL   C32445632   3.518   1.278   4.771 -0.2089 -0.6673  0.6074
   95MOL   O32545633   3.633   1.251   4.806 -0.3426 -0.4487  0.0868
   95MOL   H32645634   2.967   1.152   4.092 -0.1301  0.9029 -0.1681
   95MOL   H32745635   3.111   1.207   4.014 -1.5453  2.6631 -0.4503
   95MOL   H32845636   3.252   1.151   4.205 -0.3670 -0.8011  1.6171
   95MOL   H32945637   3.173   1.018   4.134 -1.5603 -0.4842 -0.9545
   95MOL   H33045638   3.012   1.032   4.345 -0.6194  0.5941  0.1352
   95MOL   H33145639   3.083   1.175   4.391 -2.1017 -0.4241 -1.5180
   95MOL   H33245640   3.164   0.951   4.509 -1.5056  0.2468 -1.3793
   95MOL   H33345641   3.254   0.914   4.365 -1.6803  0.4827 -1.1811
   95MOL   H33445642   3.527   1.162   4.448 -0.8802  0.7802 -0.3861
   95MOL   H33545643   3.609   1.105   4.590 -0.3538  0.1800  0.0260
   95MOL   H33645644   3.568   1.348   4.582  0.3638 -0.1634 -0.2943
   95MOL   H33745645   3.394   1.322   4.590  0.9409  1.0949 -0.4623
   95MOL   O33845646   3.408   1.286   4.850 -0.5375  0.7574  0.6502
   95MOL   C33945647   3.413   1.250   4.988 -0.1466  0.3098 -0.6320
   95MOL   C34045648   3.445   1.101   5.030 -0.8829 -0.1659  0.3509
   95MOL   C34145649   3.327   1.000   5.013  0.6751 -0.3017 -0.1379
   95MOL   C34245650   3.363   0.853   5.056  0.4590  0.3091  0.1824
   95MOL   O34345651   3.371   0.844   5.200 -1.4308 -0.2108 -0.7422
   95MOL   C34445652   3.390   0.724   5.241 -0.8485  0.1973 -0.2620
   95MOL   O34545653   3.406   0.621   5.180  0.1761  0.4024 -0.2684
   95MOL   C34645654   3.404   0.723   5.392 -1.1754 -0.3469 -0.4585
   95MOL   C34745655   3.481   0.850   5.449 -0.2907  0.2306 -0.0123
   95MOL   C34845656   3.628   0.825   5.456  0.0439  0.2302 -0.0728
   95MOL   O34945657   3.683   0.759   5.540 -0.4101  0.4889  0.3083
   95MOL   H35045658   3.476   1.316   5.046 -1.9217 -0.3009  2.0607
   95MOL   H35145659   3.314   1.272   5.027 -0.8745 -3.3054 -0.2814
   95MOL   H35245660   3.449   1.122   5.137 -1.5674 -1.8689  0.7362
   95MOL   H35345661   3.547   1.073   5.004 -0.6692  0.7619  0.1857
   95MOL   H35445662   3.307   0.987   4.907 -0.0528  2.0284 -0.3059
   95MOL   H35545663   3.238   1.030   5.069  0.4745  1.6909 -1.4983
   95MOL   H35645664   3.285   0.783   5.026  1.4591 -0.0848 -1.5179
   95MOL   H35745665   3.452   0.832   4.998  0.4695  1.4554 -0.2225
   95MOL   H35845666   3.456   0.629   5.410 -0.3094  0.1078 -0.5534
   95MOL   H35945667   3.303   0.713   5.432 -1.3365  0.6291 -0.6034
   95MOL   H36045668   3.472   0.939   5.387 -1.1920 -0.9057 -1.5509
   95MOL   H36145669   3.442   0.873   5.548 -0.0792  0.6933 -0.0360
   95MOL   O36245670   3.686   0.881   5.356  0.0303  0.3235 -0.4226
   95MOL   C36345671   3.822   0.866   5.336 -0.2096 -0.0801  0.1153
   95MOL   C36445672   3.864   0.892   5.187 -0.1704 -0.7900 -0.3340
   95MOL   C36545673   3.842   1.036   5.141 -0.0605  0.0094  0.3514
   95MOL   C36645674   3.863   1.046   4.987  0.0480 -0.5821  0.7178
   95MOL   O36745675   3.781   0.962   4.920 -0.2780 -0.0646  0.2462
   95MOL   C36845676   3.798   0.940   4.792 -0.5319 -0.0948 -0.0627
   95MOL   O36945677   3.890   0.974   4.723  0.1557 -0.4512 -0.5287
   95MOL   C37045678   3.683   0.856   4.736  0.2304 -0.1229 -0.3694
   95MOL   C37145679   3.689   0.836   4.583 -0.4589 -0.1845 -0.2995
   95MOL   C37245680   3.623   0.706   4.538  0.1269  0.0475  0.3778
   95MOL   O37345681   3.692   0.612   4.503  0.5784  0.1122 -0.2398
   95MOL   H37445682   3.856   0.935   5.413 -0.5547 -1.0541  1.1575
   95MOL   H37545683   3.845   0.761   5.354 -1.8169 -0.9132 -2.3572
   95MOL   H37645684   3.801   0.816   5.140 -0.5067 -0.8283  0.1721
   95MOL   H37745685   3.965   0.852   5.179 -0.6857 -2.0793 -0.5419
   95MOL   H37845686   3.915   1.106   5.182  0.0255  0.3714 -0.4079
   95MOL   H37945687   3.750   1.084   5.176  0.1109 -0.0855  0.9348
   95MOL   H38045688   3.834   1.144   4.950  0.0318 -0.2538  1.5838
   95MOL   H38145689   3.968   1.033   4.960 -0.0936  1.0151 -0.7177
   95MOL   H38245690   3.588   0.907   4.752 -0.3701 -0.5039 -2.6267
   95MOL   H38345691   3.680   0.762   4.792 -1.2979 -0.7267 -1.4571
   95MOL   H38445692   3.649   0.924   4.533 -1.5849 -0.2789  0.4107
   95MOL   H38545693   3.792   0.831   4.547 -0.8389 -0.1726 -1.4038
   95MOL   O38645694   3.490   0.713   4.544  0.0835  0.1990 -0.0111
   95MOL   C38745695   3.408   0.602   4.501  0.8987  0.7231  0.5622
   95MOL   C38845696   3.283   0.594   4.581  0.2139 -0.6731  0.0149
   95MOL   C38945697   3.307   0.555   4.727 -0.0176 -0.0802  0.0440
   95MOL   C39045698   3.190   0.575   4.821 -0.1633 -0.3176 -0.6364
   95MOL   O39145699   3.129   0.704   4.821 -0.0118  0.1180 -0.2941
   95MOL   C39245700   3.035   0.736   4.910 -0.8098 -0.3244  0.2636
   95MOL   O39345701   3.022   0.673   5.017 -0.2021 -0.5978  0.7638
   95MOL   C39445702   2.951   0.860   4.867 -0.0056  0.9627  0.0448
   95MOL   C39545703   2.866   0.916   4.985  0.0543  0.2522  0.4442
   95MOL   C39645704   2.912   1.054   5.040 -0.1663  0.2481 -0.0543
   95MOL   O39745705   3.021   1.100   5.005  0.9318  0.1441  0.0125
   95MOL   H39845706   3.376   0.598   4.397  1.2870  0.2394  0.4603
   95MOL   H39945707   3.473   0.514   4.504  0.4959  0.4405  0.9841
   95MOL   H40045708   3.212   0.528   4.530 -0.2395  0.1806 -0.4603
   95MOL   H40145709   3.230   0.689   4.591  2.6658  0.6438  0.6888
   95MOL   H40245710   3.388   0.620   4.759 -0.8887  2.0941 -2.0427
   95MOL   H40345711   3.346   0.453   4.733  0.2622  0.1004  1.5042
   95MOL   H40445712   3.126   0.498   4.779 -0.8378  1.3949 -2.9111
   95MOL   H40545713   3.204   0.536   4.921 -0.1889 -0.1205 -0.5558
   95MOL   H40645714   2.883   0.816   4.794 -1.0174  1.9103  0.4105
   95MOL   H40745715   3.010   0.932   4.810  0.2177 -1.2796 -2.6946
   95MOL   H40845716   2.765   0.926   4.946 -0.6071 -0.2831  1.9669
   95MOL   H40945717   2.859   0.839   5.063  1.7049  0.4928  0.8386
   95MOL   O41045718   2.834   1.110   5.129  0.4542  0.1130  0.4016
   95MOL   C41145719   2.874   1.237   5.190 -0.2280 -0.3218 -0.3472
   95MOL   C41245720   2.809   1.348   5.115  0.9768 -0.2320 -0.4566
   95MOL   C41345721   2.656   1.330   5.112 -0.1604 -0.0196 -0.6967
   95MOL   C41445722   2.589   1.427   5.005  0.1133  0.0787  0.1461
   95MOL   O41545723   2.577   1.557   5.060  0.4963  0.3610 -0.3647
   95MOL   C41645724   2.542   1.651   4.980 -0.0281 -0.3258 -0.7281
   95MOL   O41745725   2.514   1.637   4.863  0.1503 -0.3594 -0.1165
   95MOL   C41845726   2.543   1.795   5.043 -0.0920  0.6248 -0.2406
   95MOL   C41945727   2.409   1.830   5.101 -0.3340 -0.5371  0.2496
   95MOL   C42045728   2.333   1.938   5.022  0.1952  0.0973  0.0460
   95MOL   O42145729   2.360   1.958   4.902 -0.1826  0.7116  0.5631
   95MOL   H42245730   2.828   1.234   5.289  0.4293 -3.0630 -0.0817
   95MOL   H42345731   2.982   1.243   5.205 -0.0919  3.2077 -2.2463
   95MOL   H42445732   2.856   1.345   5.017  1.0568  1.5913 -0.4957
   95MOL   H42545733   2.831   1.448   5.152  1.9922 -0.5816 -0.1068
   95MOL   H42645734   2.615   1.338   5.213  1.6657 -1.0304  0.1461
   95MOL   H42745735   2.631   1.228   5.082 -1.7406 -0.1949  1.0926
   95MOL   H42845736   2.654   1.430   4.917 -1.2283 -0.2074 -0.8797
   95MOL   H42945737   2.492   1.385   4.977  0.5504  0.6695 -2.3680
   95MOL   H43045738   2.578   1.871   4.973 -0.5455  2.7875  1.7929
   95MOL   H43145739   2.619   1.805   5.121  0.4207 -0.5857 -0.5622
   95MOL   H43245740   2.345   1.742   5.105  0.2035 -1.0434 -1.8689
   95MOL   H43345741   2.425   1.858   5.205 -0.2936 -0.6021  0.2608
   95MOL   O43445742   2.242   2.003   5.095 -0.3955 -0.6970 -0.3932
   95MOL   C43545743   2.152   2.096   5.028  0.5047  0.9450  0.0467
   95MOL   C43645744   2.016   2.023   5.040 -0.3859 -0.6430  0.4599
   95MOL   C43745745   1.969   2.004   5.185  0.0212  0.6109  0.2860
   95MOL   C43845746   1.819   1.964   5.184 -0.4976 -1.1672 -1.2149
   95MOL   O43945747   1.753   1.991   5.311  0.0413 -0.0529  0.1204
   95MOL   C44045748   1.722   2.113   5.354 -1.4964  0.1164  0.0311
   95MOL   O44145749   1.742   2.217   5.295  0.5655  0.0522 -0.9414
   95MOL   C44245750   1.656   2.104   5.486 -0.3845  0.0149 -0.2666
   95MOL   C44345751   1.668   2.233   5.569  0.8838  0.3468  0.0130
   95MOL   C44445752   1.539   2.294   5.613  0.7889  0.5337  0.0372
   95MOL   O44545753   1.523   2.322   5.730  1.1032 -0.1808 -0.2667
   95MOL   H44645754   2.144   2.192   5.080 -1.3826  0.7691  0.1201
   95MOL   H44745755   2.176   2.117   4.923 -4.1956 -1.1485 -1.5815
   95MOL   H44845756   2.026   1.928   4.988  3.1044 -0.1323  0.0681
   95MOL   H44945757   1.937   2.074   4.985 -0.6683  0.6015  1.9758
   95MOL   H45045758   1.979   2.095   5.243 -0.8111  0.8743  0.0169
   95MOL   H45145759   2.028   1.935   5.245 -1.9360 -1.0591  0.3487
   95MOL   H45245760   1.769   2.021   5.106  1.7919  0.0482 -1.8391
   95MOL   H45345761   1.805   1.858   5.162 -0.5945 -1.9988  2.5220
   95MOL   H45445762   1.711   2.032   5.547 -0.5814  0.7942  0.8615
   95MOL   H45545763   1.555   2.068   5.467  0.1042 -1.1277 -0.7712
   95MOL   H45645764   1.740   2.216   5.649  1.1829  1.9152  0.0807
   95MOL   H45745765   1.717   2.316   5.519  1.1709 -0.5779 -1.2722
   95MOL   O45845766   1.444   2.303   5.518  0.2475 -0.0305 -0.5826
   95MOL   C45945767   1.305   2.305   5.561  0.1656  0.1445 -0.7773
   95MOL   C46045768   1.262   2.461   5.567  0.3756  0.0339  0.4042
   95MOL   C46145769   1.263   2.530   5.429 -0.0117 -0.4868 -0.0060
   95MOL   C46245770   1.395   2.612   5.399  0.4752  0.3600 -0.6356
   95MOL   O46345771   1.382   2.679   5.273 -0.3228  0.1149  0.0328
   95MOL   C46445772   1.486   2.736   5.208 -0.5810 -0.4390 -0.4314
   95MOL   O46545773   1.598   2.724   5.249 -0.2356 -0.0556 -0.4885
   95MOL   C46645774   1.452   2.808   5.085 -0.1719  0.1239 -0.8874
   95MOL   C46745775   1.476   2.715   4.967 -0.1286  1.1597 -0.5847
   95MOL   C46845776   1.491   2.779   4.828  0.0722  0.5544 -0.3428
   95MOL   O46945777   1.395   2.832   4.780  0.1269 -0.2774  0.3074
   95MOL   H47045778   1.248   2.253   5.484 -0.0430  0.7839 -1.0525
   95MOL   H47145779   1.296   2.254   5.657 -2.7745 -0.7021 -1.4407
   95MOL   H47245780   1.310   2.532   5.636 -1.5862 -0.0624  1.8928
   95MOL   H47345781   1.160   2.475   5.601  0.4051  0.2574  0.4034
   95MOL   H47445782   1.185   2.606   5.432  0.5374  0.0939 -0.4366
   95MOL   H47545783   1.230   2.468   5.346  0.1042 -1.8287  0.9228
   95MOL   H47645784   1.432   2.676   5.479  1.1329 -1.6384  0.6892
   95MOL   H47745785   1.480   2.544   5.386 -1.6237 -2.1953 -1.3902
   95MOL   H47845786   1.513   2.897   5.083  0.9527 -0.5568  1.5352
   95MOL   H47945787   1.349   2.842   5.100 -0.0606 -0.4735  1.4879
   95MOL   H48045788   1.576   2.674   4.980 -0.2356  0.7937 -0.9110
   95MOL   H48145789   1.402   2.636   4.958  0.4461  0.5344  0.1080
   95MOL   H48245790   1.591   2.760   4.789  0.0238  2.2475 -1.3244
   96MOL     O145791   1.000   1.638   2.219  0.0592 -0.3303 -0.4099
   96MOL     C245792   1.059   1.509   2.245 -0.6922 -0.2690 -0.2374
   96MOL     C345793   1.023   1.452   2.393 -0.0835  0.0055 -0.3556
   96MOL     C445794   1.050   1.556   2.509 -1.2254 -0.0290  0.0561
   96MOL     C545795   1.024   1.492   2.644  0.2259  0.1935 -0.2068
   96MOL     O645796   1.053   1.578   2.759  0.2125 -0.5584  0.5128
   96MOL     C745797   0.958   1.674   2.787 -0.6732  0.0762  0.4895
   96MOL     O845798   0.849   1.686   2.733 -0.2358  0.0829  0.3414
   96MOL     C945799   0.993   1.772   2.898  0.2401 -0.0463 -0.1970
   96MOL    C1045800   0.876   1.871   2.943 -0.3274  0.3984  0.1721
   96MOL    C1145801   0.827   1.844   3.087  1.3006 -0.3260  0.0763
   96MOL    O1245802   0.718   1.790   3.108  0.6345  0.5377  0.1008
   96MOL    H1345803   1.027   1.444   2.164  1.2168 -0.4702 -0.8558
   96MOL    H1445804   1.168   1.517   2.236 -0.6570  1.0139  0.9684
   96MOL    H1545805   1.073   1.356   2.405  1.9705  0.9110 -1.3125
   96MOL    H1645806   0.915   1.438   2.399 -0.1630  1.1101  0.9638
   96MOL    H1745807   0.987   1.644   2.497 -0.4981  0.1754 -2.4584
   96MOL    H1845808   1.148   1.603   2.498  0.3310 -2.9613  0.8055
   96MOL    H1945809   0.923   1.454   2.652 -0.0644  0.6321 -1.6433
   96MOL    H2045810   1.088   1.406   2.662 -0.1052  0.1374  0.7252
   96MOL    H2145811   1.081   1.824   2.862 -0.1231  0.7389  0.0337
   96MOL    H2245812   1.030   1.730   2.992 -0.6366 -0.6940 -0.1314
   96MOL    H2345813   0.918   1.971   2.947  1.7029 -0.4875  2.3330
   96MOL    H2445814   0.786   1.875   2.883  1.7111 -2.6650 -3.3292
   96MOL    H2545815   1.050   1.695   2.275  0.7736  0.1448 -1.5282
   96MOL    O2645816   0.910   1.890   3.176 -0.0742  0.1628  0.3060
   96MOL    C2745817   0.871   1.889   3.308  0.0334  0.1657 -0.3924
   96MOL    C2845818   0.971   1.979   3.375 -0.1871 -0.4157 -0.5267
   96MOL    C2945819   0.959   1.988   3.529 -0.8462  0.3587 -0.0781
   96MOL    C3045820   1.056   2.104   3.585  0.4267  0.3219  0.9846
   96MOL    O3145821   1.196   2.062   3.565 -0.0193 -0.5770 -0.0008
   96MOL    C3245822   1.299   2.146   3.587 -0.1147  0.2320  0.8363
   96MOL    O3345823   1.294   2.269   3.603  0.4877  0.4897 -0.0651
   96MOL    C3445824   1.439   2.081   3.579 -0.3745  1.4123  0.6477
   96MOL    C3545825   1.543   2.150   3.673  0.1498  0.0366 -0.2685
   96MOL    C3645826   1.622   2.059   3.765  0.0378 -0.4838 -0.7333
   96MOL    O3745827   1.589   1.942   3.788  0.0975  0.0323 -0.1438
   96MOL    H3845828   0.767   1.920   3.315 -0.4991 -1.1103 -2.3195
   96MOL    H3945829   0.871   1.787   3.347  0.8273 -0.0258 -0.8814
   96MOL    H4045830   0.949   2.076   3.329  2.4917  0.7099  0.4363
   96MOL    H4145831   1.074   1.964   3.343 -0.0264 -0.6283  0.0888
   96MOL    H4245832   0.981   1.888   3.566 -1.4842 -0.0708 -0.8452
   96MOL    H4345833   0.858   2.012   3.560 -1.2863 -0.3798 -0.9248
   96MOL    H4445834   1.032   2.189   3.521  0.1163  0.7928  1.7315
   96MOL    H4545835   1.037   2.131   3.689 -0.4515 -0.4818  1.0391
   96MOL    H4645836   1.477   2.080   3.477  1.6650  1.3968  1.3742
   96MOL    H4745837   1.425   1.977   3.608 -0.9850  1.4064  0.3375
   96MOL    H4845838   1.612   2.208   3.611  1.6872 -2.9271 -1.4097
   96MOL    H4945839   1.504   2.215   3.752 -1.3896 -1.0341 -0.1287
   96MOL    O5045840   1.727   2.120   3.820 -0.3583 -0.5884 -0.6283
   96MOL    C5145841   1.810   2.054   3.916  0.4564 -0.1720 -0.5385
   96MOL    C5245842   1.883   2.167   3.990 -0.1271 -0.1340 -0.0697
   96MOL    C5345843   1.971   2.251   3.893  0.1109 -0.1698  0.3881
   96MOL    C5445844   2.014   2.388   3.934  0.5424  0.4180 -0.3020
   96MOL    O5545845   1.896   2.474   3.938  0.4043  0.5357  0.0020
   96MOL    C5645846   1.897   2.578   4.026  0.1607 -0.0389  0.9799
   96MOL    O5745847   1.994   2.624   4.087  0.0804  0.4338 -0.0579
   96MOL    C5845848   1.765   2.657   4.026 -0.3625  0.7421  0.5247
   96MOL    C5945849   1.650   2.570   4.073  0.6541  0.3662  0.3858
   96MOL    C6045850   1.567   2.497   3.972 -0.1476  0.2501  0.0787
   96MOL    O6145851   1.533   2.377   3.985  0.5316  0.2404  0.3679
   96MOL    H6245852   1.744   2.009   3.991  0.8647 -0.6909 -0.4895
   96MOL    H6345853   1.866   1.982   3.857  0.5557  0.2022 -0.9012
   96MOL    H6445854   1.950   2.116   4.060 -2.2479 -2.6885  0.2065
   96MOL    H6545855   1.817   2.234   4.045  2.8571  0.3536  3.0619
   96MOL    H6645856   1.931   2.253   3.791 -2.3383 -0.0354  1.3354
   96MOL    H6745857   2.061   2.192   3.879  0.8914  0.1209  3.7422
   96MOL    H6845858   2.056   2.388   4.034 -0.1411 -1.9554  0.0157
   96MOL    H6945859   2.092   2.420   3.864  1.5862  0.9876  1.1039
   96MOL    H7045860   1.753   2.679   3.920 -1.3625  0.8543  0.6573
   96MOL    H7145861   1.768   2.749   4.085  0.0914  0.9256  0.2142
   96MOL    H7245862   1.690   2.493   4.140  0.8010 -1.0505 -1.3194
   96MOL    H7345863   1.585   2.626   4.140 -0.9340 -0.0290 -0.8180
   96MOL    O7445864   1.524   2.578   3.864 -0.3416 -0.0544  0.1183
   96MOL    C7545865   1.457   2.521   3.748  0.5621 -0.9875 -0.0952
   96MOL    C7645866   1.405   2.638   3.661  0.0826  0.3466 -0.2627
   96MOL    C7745867   1.291   2.714   3.729 -0.3622 -0.0807  0.3622
   96MOL    C7845868   1.168   2.627   3.755  0.5357  0.2652 -0.1305
   96MOL    O7945869   1.100   2.603   3.632 -0.3224 -0.3127 -0.4505
   96MOL    C8045870   0.984   2.526   3.629 -0.0481  0.5546  0.4700
   96MOL    O8145871   0.924   2.463   3.712  0.2979  0.2412 -0.5750
   96MOL    C8245872   0.928   2.507   3.482  0.2016  0.1142 -0.7562
   96MOL    C8345873   1.028   2.533   3.369 -0.3189 -0.1648  0.4382
   96MOL    C8445874   1.019   2.432   3.253  0.7214 -0.2284  0.7580
   96MOL    O8545875   0.928   2.346   3.235  0.0623  0.4564  0.6622
   96MOL    H8645876   1.512   2.457   3.679  2.4407  1.7790 -1.2380
   96MOL    H8745877   1.385   2.454   3.796 -0.9199  0.6819  0.0594
   96MOL    H8845878   1.359   2.607   3.568  2.9507 -1.8974 -1.0302
   96MOL    H8945879   1.484   2.710   3.639  1.1821  0.5979  3.8800
   96MOL    H9045880   1.264   2.802   3.670 -1.7028 -0.0572  1.0106
   96MOL    H9145881   1.324   2.747   3.827  0.4357  0.3290 -0.0357
   96MOL    H9245882   1.190   2.532   3.803  1.7197 -0.1166 -1.3669
   96MOL    H9345883   1.092   2.679   3.813  1.3619  0.4572  0.7958
   96MOL    H9445884   0.847   2.580   3.478 -0.4291 -0.2418  2.8527
   96MOL    H9545885   0.884   2.407   3.473 -0.7729  0.4959 -0.3758
   96MOL    H9645886   1.039   2.636   3.338  0.2882 -0.1003  0.8612
   96MOL    H9745887   1.127   2.510   3.410 -0.7828 -1.9959  0.5981
   96MOL    O9845888   1.127   2.439   3.165  0.5953  0.5955  0.0344
   96MOL    C9945889   1.130   2.350   3.050 -0.2252 -0.1162  0.1008
   96MOL   C10045890   1.185   2.212   3.086  0.8769  0.0875 -0.1127
   96MOL   C10145891   1.315   2.213   3.168 -0.2000 -0.7638 -0.0665
   96MOL   C10245892   1.379   2.077   3.185 -0.6194 -0.4784  0.2587
   96MOL   O10345893   1.458   2.057   3.071  0.0496 -0.0136  0.1522
   96MOL   C10445894   1.421   1.971   2.970 -0.3585  0.1317 -0.8601
   96MOL   O10545895   1.329   1.887   2.963 -0.2174 -0.1599  0.0175
   96MOL   C10645896   1.516   1.996   2.859 -0.9740 -0.4355  0.3814
   96MOL   C10745897   1.518   2.151   2.816  0.2306  0.0573  0.2938
   96MOL   C10845898   1.534   2.169   2.672 -0.3280  0.2747 -0.0507
   96MOL   O10945899   1.446   2.179   2.593  0.4707 -0.4665  0.1452
   96MOL   H11045900   1.035   2.355   2.997  0.1939 -3.5042 -1.1166
   96MOL   H11145901   1.198   2.390   2.974 -0.0916 -0.9570 -0.2334
   96MOL   H11245902   1.210   2.156   2.996  1.0872 -2.2874  1.3557
   96MOL   H11345903   1.092   2.170   3.124  0.7017  1.1716  0.6575
   96MOL   H11445904   1.295   2.254   3.267 -0.3859 -1.9795  0.4112
   96MOL   H11545905   1.377   2.290   3.122 -1.1605  0.9472  1.4377
   96MOL   H11645906   1.434   2.099   3.277 -1.5564  1.2222  0.4265
   96MOL   H11745907   1.307   1.997   3.201 -1.2001  0.3490  1.8534
   96MOL   H11845908   1.483   1.941   2.770  0.0149  0.1969 -0.3879
   96MOL   H11945909   1.617   1.966   2.888  0.1916 -0.9464 -3.8770
   96MOL   H12045910   1.429   2.201   2.855 -1.0142 -0.8276 -1.3449
   96MOL   H12145911   1.598   2.211   2.860 -0.0295  0.1750  0.6080
   96MOL   O12245912   1.662   2.190   2.640  0.2712 -0.3934 -0.3012
   96MOL   C12345913   1.694   2.251   2.515  0.6507 -0.3168  0.1113
   96MOL   C12445914   1.844   2.281   2.495  0.1671 -0.3981 -0.3416
   96MOL   C12545915   1.929   2.153   2.491  0.3299  0.6082  0.4296
   96MOL   C12645916   2.069   2.186   2.448 -0.1859 -0.0160  0.0249
   96MOL   O12745917   2.161   2.079   2.454 -0.7218 -0.3326 -0.1447
   96MOL   C12845918   2.299   2.100   2.444  0.6696  0.1428  0.4024
   96MOL   O12945919   2.360   2.203   2.459 -0.3079  0.6317 -0.8597
   96MOL   C13045920   2.379   1.981   2.400  0.2549  0.1578  0.2671
   96MOL   C13145921   2.300   1.876   2.312 -0.3750  0.3651 -0.0032
   96MOL   C13245922   2.322   1.893   2.162  0.1978  0.1891 -0.5987
   96MOL   O13345923   2.296   1.998   2.103 -0.2066 -0.0780 -0.3880
   96MOL   H13445924   1.668   2.180   2.437  1.5192 -1.1500  0.5642
   96MOL   H13545925   1.639   2.344   2.504  1.7632  0.2850 -0.4934
   96MOL   H13645926   1.877   2.363   2.559  0.1811 -0.3864 -0.3635
   96MOL   H13745927   1.852   2.317   2.392 -1.4542  1.5200  0.1748
   96MOL   H13845928   1.882   2.094   2.412 -0.6438 -0.2619  1.6389
   96MOL   H13945929   1.928   2.094   2.583 -1.0715  0.5529  0.3857
   96MOL   H14045930   2.076   2.221   2.345 -2.4326 -2.1004 -0.9106
   96MOL   H14145931   2.117   2.260   2.512  0.3009 -1.2513  1.1105
   96MOL   H14245932   2.416   1.921   2.483 -1.2316 -2.1695 -0.7013
   96MOL   H14345933   2.464   2.026   2.349 -0.0104  0.7192  0.3168
   96MOL   H14445934   2.326   1.774   2.341 -0.5778  1.1945  3.2282
   96MOL   H14545935   2.196   1.865   2.340 -1.1454  0.3142 -2.7104
   96MOL   O14645936   2.367   1.784   2.099  0.3277 -0.1595  0.3404
   96MOL   C14745937   2.367   1.766   1.956  0.2609  0.8611 -0.5291
   96MOL   C14845938   2.456   1.638   1.938 -0.1402  0.1836  0.0271
   96MOL   C14945939   2.603   1.664   1.890 -0.2912  0.5007  0.7598
   96MOL   C15045940   2.631   1.727   1.753 -0.0585 -0.6161 -0.0349
   96MOL   O15145941   2.578   1.645   1.644  0.3204  0.1837  0.3162
   96MOL   C15245942   2.605   1.678   1.520 -0.0208 -0.3050  0.2740
   96MOL   O15345943   2.693   1.755   1.487 -0.2432 -0.0619 -0.4596
   96MOL   C15445944   2.509   1.612   1.424  0.5538 -0.2564  0.2278
   96MOL   C15545945   2.365   1.675   1.433 -0.0576 -0.0846  0.6059
   96MOL   C15645946   2.274   1.601   1.537  0.4949 -0.7413 -0.2594
   96MOL   O15745947   2.230   1.674   1.627 -0.0529 -0.3892  0.2204
   96MOL   H15845948   2.270   1.737   1.915 -0.2942  1.1444  0.5543
   96MOL   H15945949   2.399   1.855   1.901 -1.2770 -0.3803 -3.5069
   96MOL   H16045950   2.408   1.578   1.860 -1.7733  0.7841  0.5522
   96MOL   H16145951   2.444   1.578   2.028  0.3414  1.1950  0.7749
   96MOL   H16245952   2.663   1.573   1.894 -2.4614 -1.1457 -2.1237
   96MOL   H16345953   2.646   1.726   1.969 -0.2170  0.1806  0.9696
   96MOL   H16445954   2.595   1.830   1.741 -0.2762 -0.6664  0.1984
   96MOL   H16545955   2.738   1.739   1.734  0.0444 -1.6913 -0.1628
   96MOL   H16645956   2.512   1.504   1.437 -2.3367 -0.5961 -1.4777
   96MOL   H16745957   2.528   1.634   1.319 -1.1605  1.0866  0.1686
   96MOL   H16845958   2.372   1.781   1.458  2.3162  1.0192 -4.1784
   96MOL   H16945959   2.317   1.661   1.336  1.3355 -0.8993  0.0277
   96MOL   O17045960   2.261   1.470   1.531 -0.4046  0.4792 -0.1971
   96MOL   C17145961   2.179   1.399   1.631  0.4427  0.0648  0.0668
   96MOL   C17245962   2.159   1.257   1.580 -0.3479  0.7093  0.3698
   96MOL   C17345963   2.083   1.252   1.451  0.2816 -0.1277  0.2464
   96MOL   C17445964   2.049   1.107   1.404 -0.1601  0.4323  0.3348
   96MOL   O17545965   1.949   1.116   1.301  0.5874  0.2481  0.5147
   96MOL   C17645966   1.909   0.999   1.242 -0.2188  0.0281 -0.5254
   96MOL   O17745967   1.949   0.890   1.270  0.4195  0.2538  0.2474
   96MOL   C17845968   1.800   1.017   1.132 -0.2373 -0.5485  0.6949
   96MOL   C17945969   1.848   1.121   1.032 -0.6811 -0.6139  0.9615
   96MOL   C18045970   1.867   1.067   0.890  0.3120 -0.1007  0.2807
   96MOL   O18145971   1.980   1.053   0.850 -0.3981  0.5441  0.3756
   96MOL   H18245972   2.220   1.393   1.731 -1.3664 -2.3312  0.7016
   96MOL   H18345973   2.086   1.450   1.656  1.3463  0.4977  2.7065
   96MOL   H18445974   2.102   1.195   1.650 -1.8245 -0.1318 -1.5357
   96MOL   H18545975   2.254   1.208   1.557 -1.7520 -1.4982 -0.9342
   96MOL   H18645976   2.134   1.308   1.373  0.0785 -1.0559 -0.5663
   96MOL   H18745977   1.992   1.313   1.456  0.0715 -0.2983 -1.3289
   96MOL   H18845978   2.133   1.044   1.376 -0.9218 -0.9657  1.1002
   96MOL   H18945979   1.993   1.072   1.491 -1.6476 -0.2260 -0.8523
   96MOL   H19045980   1.711   1.064   1.174 -0.7518  0.0042 -0.9561
   96MOL   H19145981   1.753   0.928   1.089 -1.7777  0.0512  1.0966
   96MOL   H19245982   1.779   1.206   1.026 -0.2021 -0.2081  1.1139
   96MOL   H19345983   1.942   1.165   1.066  0.1622  0.2479 -2.3742
   96MOL   O19445984   1.746   1.054   0.828  0.7121 -0.5106 -0.3587
   96MOL   C19545985   1.735   1.011   0.697 -0.0552  1.0526  0.2025
   96MOL   C19645986   1.678   0.870   0.689  0.8719  0.1425  0.3160
   96MOL   C19745987   1.624   0.823   0.552 -0.8380 -0.2072 -0.2664
   96MOL   C19845988   1.735   0.821   0.449  0.1573 -0.0855 -0.0529
   96MOL   O19945989   1.828   0.709   0.466  0.4835 -0.0915 -0.6157
   96MOL   C20045990   1.916   0.681   0.371  0.1725  0.3704  0.0006
   96MOL   O20145991   1.923   0.747   0.265 -0.0156 -0.0736 -0.4185
   96MOL   C20245992   1.995   0.563   0.399 -0.3444  0.0862  0.0157
   96MOL   C20345993   2.095   0.594   0.511 -0.9428  0.0117 -0.4173
   96MOL   C20445994   2.226   0.652   0.451  0.4487 -0.4992  0.1158
   96MOL   O20545995   2.231   0.674   0.327  0.2830 -0.5014 -0.1216
   96MOL   H20645996   1.666   1.080   0.647 -0.9841  0.2506  0.3544
   96MOL   H20745997   1.829   1.025   0.644  0.8081 -2.6128  0.6028
   96MOL   H20845998   1.600   0.864   0.765  1.2531 -1.6595  0.5940
   96MOL   H20945999   1.745   0.787   0.713 -1.3944 -2.0728 -0.8011
   96MOL   H21046000   1.543   0.888   0.518 -1.4527  0.4486  2.3725
   96MOL   H21146001   1.588   0.721   0.564  0.2866 -0.8841 -2.3747
   96MOL   H21246002   1.699   0.822   0.346  1.0549 -0.3374 -0.3756
   96MOL   H21346003   1.793   0.914   0.456 -0.1782  0.1298 -0.1397
   96MOL   H21446004   2.044   0.514   0.315 -0.8862  2.6512 -1.8374
   96MOL   H21546005   1.915   0.496   0.428 -0.1580 -0.1317  0.0279
   96MOL   H21646006   2.051   0.662   0.584 -2.5078 -1.0719 -0.3394
   96MOL   H21746007   2.131   0.504   0.560 -0.2267  0.6096  0.1848
   96MOL   O21846008   2.331   0.662   0.535 -0.2489 -0.2906 -0.1125
   96MOL   C21946009   2.461   0.689   0.488  0.5771 -0.5349 -0.0251
   96MOL   C22046010   2.551   0.571   0.521 -0.0687 -0.0234 -0.8862
   96MOL   C22146011   2.554   0.545   0.673 -0.1074 -0.0147  0.2471
   96MOL   C22246012   2.641   0.414   0.689 -0.1033 -0.5244  0.2873
   96MOL   O22346013   2.774   0.438   0.654 -0.1974 -0.1572  0.7070
   96MOL   C22446014   2.869   0.352   0.683  0.1730 -0.4348  0.2767
   96MOL   O22546015   2.839   0.246   0.747 -0.1125  0.5573 -0.0632
   96MOL   C22646016   3.004   0.391   0.626 -0.1356  0.2589 -0.5474
   96MOL   C22746017   3.025   0.313   0.499 -0.5865  0.5013  1.0334
   96MOL   C22846018   3.109   0.188   0.518  0.0972  0.0808  0.5052
   96MOL   O22946019   3.225   0.194   0.564 -0.6292  0.2939  0.2056
   96MOL   H23046020   2.444   0.715   0.384  0.7519  1.2614  0.3730
   96MOL   H23146021   2.499   0.777   0.540  2.5449 -1.3345 -0.0448
   96MOL   H23246022   2.650   0.583   0.476  0.9998 -2.4060  0.7553
   96MOL   H23346023   2.499   0.487   0.475 -2.4448  0.5229  0.6956
   96MOL   H23446024   2.453   0.524   0.705 -0.5975 -0.2083 -1.3817
   96MOL   H23546025   2.585   0.636   0.725 -0.8968  1.1687 -1.3128
   96MOL   H23646026   2.645   0.381   0.793  0.6508 -1.4375 -0.0227
   96MOL   H23746027   2.589   0.345   0.623  2.4225 -0.2411 -2.0568
   96MOL   H23846028   3.079   0.362   0.700 -1.7167  2.0151  1.7907
   96MOL   H23946029   3.016   0.499   0.620 -0.3916  0.1925 -2.6979
   96MOL   H24046030   2.929   0.279   0.459  0.4061 -0.5352 -0.5384
   96MOL   H24146031   3.070   0.370   0.417  2.1474 -1.7626  0.8700
   96MOL   O24246032   3.058   0.075   0.475 -0.0080 -0.1557  0.2264
   96MOL   C24346033   3.116   7.823   0.501 -0.3197  0.0780 -0.3912
   96MOL   C24446034   3.040   7.716   0.412 -0.2131  0.0076 -0.8452
   96MOL   C24546035   3.055   7.725   0.260  0.0763 -0.4010  0.0084
   96MOL   C24646036   3.184   7.651   0.201  0.7540 -0.4690  0.0275
   96MOL   O24746037   3.299   7.710   0.256 -0.2276 -0.3292  0.0928
   96MOL   C24846038   3.413   7.657   0.236  0.3381 -0.1314  0.0595
   96MOL   O24946039   3.436   7.563   0.160  0.5620 -0.1261 -0.4343
   96MOL   C25046040   3.524   7.725   0.311 -0.0319 -0.0711  0.2312
   96MOL   C25146041   3.661   7.683   0.262  0.2806 -0.1164  0.1793
   96MOL   C25246042   3.736   7.561   0.323  0.4213  0.1623  0.3261
   96MOL   O25346043   3.826   7.504   0.261 -0.2372  0.4703  0.1899
   96MOL   H25446044   3.222   7.831   0.477 -0.1822 -0.2761  0.1122
   96MOL   H25546045   3.108   7.792   0.605 -1.7037 -1.0095 -0.8022
   96MOL   H25646046   2.935   7.723   0.442 -0.7270 -0.1852 -2.5373
   96MOL   H25746047   3.058   7.615   0.450 -0.6714  0.6510  1.1577
   96MOL   H25846048   3.063   7.831   0.237  1.8511 -0.7598 -1.1346
   96MOL   H25946049   2.969   7.684   0.208  0.3845 -1.0817  0.0266
   96MOL   H26046050   3.172   7.546   0.228 -1.8584  0.0624  1.1375
   96MOL   H26146051   3.184   7.662   0.092  0.3742  0.6939  0.1336
   96MOL   H26246052   3.509   7.707   0.417 -0.2713  0.8318  0.3595
   96MOL   H26346053   3.506   7.833   0.301 -0.6778 -0.2120 -0.1966
   96MOL   H26446054   3.655   7.666   0.155 -0.1119  0.4851  0.1058
   96MOL   H26546055   3.721   7.773   0.276 -1.6264  1.4877 -1.6812
   96MOL   O26646056   3.689   7.525   0.444 -0.0203  0.1857 -0.2507
   96MOL   C26746057   3.748   7.413   0.516  0.5539  0.5271  0.1289
   96MOL   C26846058   3.829   7.462   0.637  0.1158  0.2850  0.0643
   96MOL   C26946059   3.908   7.352   0.703  0.3231  0.3572 -0.5132
   96MOL   C27046060   3.826   7.219   0.727  0.4502  0.3825 -0.0599
   96MOL   O27146061   3.913   7.116   0.782 -0.6136  0.3192 -0.3955
   96MOL   C27246062   3.877   6.987   0.782 -0.1812  0.2237  0.3616
   96MOL   O27346063   3.759   6.944   0.775 -0.1419  0.1309  0.2753
   96MOL   C27446064   3.985   6.895   0.818  0.3075  0.1353 -0.2676
   96MOL   C27546065   3.979   6.754   0.746  0.3676  0.2880 -0.3105
   96MOL   C27646066   4.067   6.733   0.639 -0.4507 -0.4889 -0.0516
   96MOL   O27746067   4.034   6.662   0.535 -0.2941 -0.4590  0.0978
   96MOL   H27846068   3.672   7.341   0.545  1.4152 -0.9137 -1.0950
   96MOL   H27946069   3.818   7.351   0.460  0.2839 -1.5279  1.9908
   96MOL   H28046070   3.757   7.505   0.707 -0.3640  1.5887 -1.2170
   96MOL   H28146071   3.902   7.540   0.613  0.9737 -0.2436  0.9227
   96MOL   H28246072   3.949   7.399   0.792  2.1008  1.4606 -1.8990
   96MOL   H28346073   3.994   7.331   0.639  1.0657  1.1235  0.2240
   96MOL   H28446074   3.739   7.235   0.791 -1.7898 -1.2279 -2.5896
   96MOL   H28546075   3.786   7.197   0.628 -1.3691  1.3405  0.4469
   96MOL   H28646076   3.974   6.870   0.923  2.7392 -0.7194 -0.1793
   96MOL   H28746077   4.083   6.942   0.806  0.8970 -0.6835  1.2280
   96MOL   H28846078   3.998   6.677   0.820 -0.5423 -0.7083 -1.0993
   96MOL   H28946079   3.881   6.743   0.701  0.9211 -0.2984 -1.3951
   96MOL   O29046080   4.186   6.794   0.660  0.0080  0.3644  0.0941
   96MOL   C29146081   4.291   6.769   0.581  0.6339  0.2598  0.4316
   96MOL   C29246082   4.419   6.805   0.665  0.1741  0.1926  0.3037
   96MOL   C29346083   4.556   6.792   0.585 -0.5938 -0.7405 -0.0339
   96MOL   C29446084   4.604   6.643   0.556  0.0304 -0.5339 -0.3375
   96MOL   O29546085   4.646   6.572   0.676 -0.7526  1.2257  0.2602
   96MOL   C29646086   4.753   6.609   0.745 -0.6141  0.1701 -0.4172
   96MOL   O29746087   4.831   6.701   0.719  0.0118  0.1478 -0.6023
   96MOL   C29846088   4.787   6.510   0.858  0.2134 -0.3972  0.0751
   96MOL   C29946089   4.745   6.573   0.992 -0.2406  0.1054 -0.5131
   96MOL   C30046090   4.829   6.516   1.105 -0.3849 -0.5364 -0.0376
   96MOL   O30146091   4.793   6.417   1.172  0.6044  0.0450  0.1820
   96MOL   H30246092   4.298   6.670   0.537  1.2382 -0.3182  1.8022
   96MOL   H30346093   4.279   6.845   0.504 -1.8939 -0.4613  0.0536
   96MOL   H30446094   4.423   6.751   0.760 -0.1338  0.3998  0.4321
   96MOL   H30546095   4.414   6.909   0.695 -1.9251  0.3368 -0.4753
   96MOL   H30646096   4.629   6.851   0.640 -1.6833  1.5301 -0.9605
   96MOL   H30746097   4.539   6.844   0.490  1.4189 -2.3654 -1.3197
   96MOL   H30846098   4.518   6.604   0.501 -0.7068 -0.5198  0.7869
   96MOL   H30946099   4.687   6.635   0.486 -0.2169  1.2322 -0.8790
   96MOL   H31046100   4.892   6.483   0.855  0.6605  0.6567  3.8709
   96MOL   H31146101   4.723   6.422   0.847 -1.7180  0.9681  0.0355
   96MOL   H31246102   4.755   6.681   0.982  1.3327 -0.1529 -1.9098
   96MOL   H31346103   4.636   6.570   1.000 -0.1214  1.2369  1.8262
   96MOL   O31446104   4.950   6.567   1.114  0.2042 -0.8704  0.1057
   96MOL   C31546105   5.036   6.526   1.224  0.0813 -0.2396 -0.1581
   96MOL   C31646106   5.161   6.474   1.161 -0.5397  0.3956 -0.1776
   96MOL   C31746107   5.235   6.390   1.269  0.0237  0.0092 -0.1788
   96MOL   C31846108   5.346   6.299   1.209 -0.5008  0.3720 -0.2864
   96MOL   O31946109   5.350   6.174   1.281  0.6395 -0.1421  0.6352
   96MOL   C32046110   5.282   6.071   1.231  0.2019  0.0656 -0.0553
   96MOL   O32146111   5.207   6.075   1.132 -0.3448  0.3890 -1.0173
   96MOL   C32246112   5.294   5.948   1.314  0.7278 -0.2074 -0.3165
   96MOL   C32346113   5.246   5.821   1.251  0.7639 -0.1619 -0.1747
   96MOL   C32446114   5.350   5.710   1.255  0.0168 -0.2475  0.0624
   96MOL   O32546115   5.476   5.723   1.277 -0.1304  0.3343 -0.4226
   96MOL   H32646116   5.057   6.609   1.291 -1.0086 -0.9767  1.1134
   96MOL   H32746117   5.007   6.440   1.284 -1.4279 -1.0185 -1.9488
   96MOL   H32846118   5.226   6.555   1.128 -0.9122  1.7223  2.2327
   96MOL   H32946119   5.132   6.404   1.083 -2.0521  1.1496 -0.3010
   96MOL   H33046120   5.162   6.329   1.320  0.5722  2.1269  3.2857
   96MOL   H33146121   5.267   6.444   1.358  0.1295  0.3987 -0.4506
   96MOL   H33246122   5.331   6.296   1.101 -0.0399  0.3806 -0.3522
   96MOL   H33346123   5.440   6.354   1.216 -1.1718  1.6468 -1.1768
   96MOL   H33446124   5.267   5.966   1.419  0.6811  2.1040 -0.6873
   96MOL   H33546125   5.401   5.939   1.332  0.5807 -1.1653  0.1181
   96MOL   H33646126   5.155   5.796   1.306  0.4645  2.7291  0.7417
   96MOL   H33746127   5.217   5.839   1.148  1.9767 -1.5363 -0.7642
   96MOL   O33846128   5.289   5.592   1.253  0.3940  0.5388 -0.0181
   96MOL   C33946129   5.356   5.469   1.244 -0.0946  0.0747 -0.3219
   96MOL   C34046130   5.403   5.428   1.103  0.0719  0.0905 -0.2337
   96MOL   C34146131   5.469   5.286   1.084  0.1356 -0.7381 -0.0638
   96MOL   C34246132   5.538   5.249   0.954  0.4048 -0.1326 -0.6948
   96MOL   O34346133   5.561   5.107   0.966  0.6180  0.1986 -0.4913
   96MOL   C34446134   5.690   5.061   0.988 -0.3315 -0.6877 -0.4979
   96MOL   O34546135   5.790   5.133   0.997 -0.5372  0.3788  0.0002
   96MOL   C34646136   5.703   4.913   1.004  0.3789 -0.0082 -0.4252
   96MOL   C34746137   5.629   4.828   0.894  0.4010  0.0509  0.0037
   96MOL   C34846138   5.591   4.689   0.942 -0.2804 -0.2273 -0.2627
   96MOL   O34946139   5.601   4.646   1.060 -0.4677  0.7052 -0.3899
   96MOL   H35046140   5.423   5.446   1.327  0.7466  0.5357 -0.8766
   96MOL   H35146141   5.273   5.399   1.260 -0.9854  1.2109  0.0850
   96MOL   H35246142   5.480   5.502   1.080  0.4803 -0.7938 -1.7488
   96MOL   H35346143   5.322   5.457   1.037  0.7632  0.3338 -0.9874
   96MOL   H35446144   5.388   5.220   1.114  1.1914 -0.8268  2.7305
   96MOL   H35546145   5.538   5.272   1.167  0.7535  0.2707 -0.4026
   96MOL   H35646146   5.467   5.255   0.871  0.3434 -1.3633 -0.7430
   96MOL   H35746147   5.630   5.301   0.928 -0.2759  2.4446  1.8464
   96MOL   H35846148   5.695   4.887   1.109  0.3815  0.2187 -0.3691
   96MOL   H35946149   5.806   4.886   0.979  0.3233  0.5327 -1.2706
   96MOL   H36046150   5.532   4.874   0.874 -0.2112  0.4405  3.5999
   96MOL   H36146151   5.679   4.822   0.797  1.3020 -2.5671  0.5998
   96MOL   O36246152   5.524   4.622   0.839 -0.6665 -0.0658 -0.9709
   96MOL   C36346153   5.455   4.495   0.864 -0.5879 -0.6635  0.4637
   96MOL   C36446154   5.314   4.532   0.912 -0.6397 -0.5896 -0.8605
   96MOL   C36546155   5.282   4.563   1.060 -0.1251 -0.7605  0.2474
   96MOL   C36646156   5.302   4.444   1.152 -0.1298  0.4624  0.7593
   96MOL   O36746157   5.225   4.329   1.117 -0.3930  0.0746  0.0205
   96MOL   C36846158   5.110   4.304   1.186  0.5203  0.9303  0.0111
   96MOL   O36946159   5.086   4.357   1.296  0.1596  0.0852  0.5965
   96MOL   C37046160   5.012   4.204   1.120  0.0970  0.3996 -0.3878
   96MOL   C37146161   5.047   4.059   1.158 -0.1859 -0.2144  0.2694
   96MOL   C37246162   4.927   3.984   1.220 -0.5250 -0.1087  0.6284
   96MOL   O37346163   4.936   3.913   1.320 -0.6069  0.0867 -0.3949
   96MOL   H37446164   5.447   4.456   0.763 -0.2076  0.6813 -0.0999
   96MOL   H37546165   5.510   4.430   0.933  1.1596  1.0760  0.7570
   96MOL   H37646166   5.248   4.450   0.882  1.0338 -2.7200  1.1000
   96MOL   H37746167   5.274   4.618   0.858 -0.2909  1.3249  1.8656
   96MOL   H37846168   5.183   4.609   1.066 -0.6776 -1.7052 -1.3581
   96MOL   H37946169   5.359   4.632   1.096 -1.1422  0.3620  0.3020
   96MOL   H38046170   5.406   4.414   1.143 -0.2024  1.1178 -2.9973
   96MOL   H38146171   5.296   4.486   1.252 -0.7720  0.3895  0.7529
   96MOL   H38246172   5.006   4.217   1.012 -2.1305  0.5346 -0.2778
   96MOL   H38346173   4.913   4.228   1.160 -0.2455 -1.5758 -0.0023
   96MOL   H38446174   5.092   4.006   1.075 -3.1268 -0.3352 -1.2933
   96MOL   H38546175   5.114   4.067   1.244  0.6479  1.9603 -0.5327
   96MOL   O38646176   4.812   3.990   1.144  0.2371 -0.6906  0.0545
   96MOL   C38746177   4.697   3.918   1.180  1.2618  0.6596  0.1894
   96MOL   C38846178   4.571   3.995   1.151  0.4294 -0.1015 -0.1139
   96MOL   C38946179   4.444   3.912   1.133 -0.0910 -0.3642  0.6273
   96MOL   C39046180   4.339   4.009   1.082  0.0634 -0.0332  0.0944
   96MOL   O39146181   4.220   3.944   1.068 -0.1822  0.7058 -0.4840
   96MOL   C39246182   4.186   3.883   0.950  0.4995  0.3294 -0.3184
   96MOL   O39346183   4.257   3.876   0.853 -0.5454  0.1215  0.0049
   96MOL   C39446184   4.040   3.852   0.941 -0.1750  0.7230 -0.0835
   96MOL   C39546185   4.009   3.729   0.844 -0.0939 -0.3746 -0.2003
   96MOL   C39646186   3.860   3.696   0.847 -0.4245  0.2530  0.4303
   96MOL   O39746187   3.812   3.588   0.884  0.2504 -0.3827  0.2841
   96MOL   H39846188   4.699   3.822   1.129  0.3144 -0.7346  2.6860
   96MOL   H39946189   4.697   3.888   1.285 -0.4032  0.2317  0.0817
   96MOL   H40046190   4.594   4.049   1.059 -3.1779 -1.8764 -2.1941
   96MOL   H40146191   4.549   4.067   1.229 -0.9928  0.8123 -1.3431
   96MOL   H40246192   4.425   3.869   1.231  1.2278 -3.2700 -0.3360
   96MOL   H40346193   4.455   3.838   1.053 -2.4877  1.5880 -1.6199
   96MOL   H40446194   4.339   4.099   1.143 -1.4978 -0.1713  0.3165
   96MOL   H40546195   4.378   4.050   0.988  0.3255 -0.0779  0.1817
   96MOL   H40646196   3.991   3.942   0.904 -3.3218  0.0778  2.2714
   96MOL   H40746197   3.993   3.835   1.038 -2.3097  0.2941 -1.1711
   96MOL   H40846198   4.036   3.755   0.742  1.3176  0.4981  0.3870
   96MOL   H40946199   4.072   3.642   0.863  0.1297 -0.1795 -0.0425
   96MOL   O41046200   3.783   3.804   0.811  0.4285 -0.5942  0.0693
   96MOL   C41146201   3.645   3.792   0.794 -0.4190 -0.0260  0.2715
   96MOL   C41246202   3.591   3.903   0.704  0.2924 -0.1355 -0.1431
   96MOL   C41346203   3.645   3.893   0.563  0.0134  0.3212 -0.3789
   96MOL   C41446204   3.580   4.006   0.491 -0.3611 -0.3882  0.1151
   96MOL   O41546205   3.632   3.994   0.359  0.0327  0.2828  0.2774
   96MOL   C41646206   3.559   4.025   0.241  0.4552 -0.0386  0.0636
   96MOL   O41746207   3.455   4.087   0.235  0.1385 -0.4082 -0.2213
   96MOL   C41846208   3.628   3.988   0.108 -0.0260 -0.5060 -0.0096
   96MOL   C41946209   3.576   4.068   7.861 -0.9711 -0.7284  0.2461
   96MOL   C42046210   3.450   4.009   7.793  0.2759 -0.0436  0.3322
   96MOL   O42146211   3.361   4.080   7.743  0.1945 -0.4029 -0.5900
   96MOL   H42246212   3.615   3.701   0.742  0.7564 -0.5138  0.4170
   96MOL   H42346213   3.597   3.792   0.893 -1.5229  2.2491 -0.2219
   96MOL   H42446214   3.611   4.002   0.744  0.5506  0.8492 -2.6099
   96MOL   H42546215   3.484   3.882   0.704  0.4780 -1.1920  1.3848
   96MOL   H42646216   3.625   3.794   0.520 -3.1441  1.9719 -2.8870
   96MOL   H42746217   3.754   3.903   0.557 -0.1761  2.4200 -0.5046
   96MOL   H42846218   3.472   4.011   0.510 -0.5188 -1.1891 -0.5283
   96MOL   H42946219   3.615   4.098   0.536 -0.8445 -0.6454  1.0388
   96MOL   H43046220   3.608   3.884   0.080  0.2031 -0.8678  1.1154
   96MOL   H43146221   3.734   3.999   0.132 -0.2663 -1.6329  1.7179
   96MOL   H43246222   3.575   4.176   0.000 -0.4675 -0.4901 -1.4193
   96MOL   H43346223   3.646   4.053   7.778 -0.3598 -0.1419  0.6526
   96MOL   O43446224   3.442   3.875   7.799  0.2327  0.0505 -0.2841
   96MOL   C43546225   3.345   3.803   7.725 -0.7025 -0.4095 -0.6750
   96MOL   C43646226   3.364   3.646   7.749  0.6135  0.0331  0.2691
   96MOL   C43746227   3.326   3.593   0.008  0.2952 -0.1932 -0.3161
   96MOL   C43846228   3.428   3.604   0.122 -0.3677 -0.0353  0.5340
   96MOL   O43946229   3.368   3.551   0.237  0.6541  0.1520 -0.0976
   96MOL   C44046230   3.368   3.625   0.345  0.3453 -0.5180 -0.1405
   96MOL   O44146231   3.407   3.741   0.351 -0.0775 -0.1500 -0.1603
   96MOL   C44246232   3.320   3.538   0.457 -0.0671  0.3287 -0.0666
   96MOL   C44346233   3.411   3.538   0.578 -0.5961  0.1336 -0.1608
   96MOL   C44446234   3.382   3.427   0.681  0.0902 -0.1416 -0.5424
   96MOL   O44546235   3.274   3.422   0.750  0.0041 -0.4799 -0.5188
   96MOL   H44646236   3.250   3.845   7.756  0.1925  0.9335  0.2871
   96MOL   H44746237   3.367   3.821   7.619  3.3140  1.6779  0.4325
   96MOL   H44846238   3.466   3.613   7.729  1.0872  1.1361  0.8037
   96MOL   H44946239   3.311   3.614   7.660  2.1876 -0.4022 -0.5315
   96MOL   H45046240   3.291   3.491   7.866  1.2925 -0.3155 -1.7605
   96MOL   H45146241   3.234   3.640   0.041  1.0064  0.3420  0.9609
   96MOL   H45246242   3.514   3.542   0.101 -1.3736 -1.5953  0.9531
   96MOL   H45346243   3.463   3.708   0.124  0.6534 -0.3873  1.6108
   96MOL   H45446244   3.317   3.434   0.423  0.0114 -0.6101  2.6784
   96MOL   H45546245   3.218   3.563   0.488  0.4405  2.2056  0.1547
   96MOL   H45646246   3.513   3.518   0.544 -0.9052  0.7538 -1.5075
   96MOL   H45746247   3.415   3.635   0.627  3.1837  0.2813 -0.6081
   96MOL   O45846248   3.484   3.338   0.690  0.2913 -0.2546  0.3606
   96MOL   C45946249   3.490   3.234   0.788  0.0826  0.1823  0.3255
   96MOL   C46046250   3.623   3.157   0.790  0.3910 -0.3507  0.4029
   96MOL   C46146251   3.611   3.031   0.874  0.0052 -0.2124  0.4057
   96MOL   C46246252   3.604   3.054   1.027 -0.4730  0.0241  0.7477
   96MOL   O46346253   3.583   2.936   1.093 -0.5487  0.6786 -0.4963
   96MOL   C46446254   3.461   2.894   1.123 -0.7233 -0.6555 -0.0309
   96MOL   O46546255   3.353   2.946   1.070 -0.0289  0.8447 -0.2027
   96MOL   C46646256   3.454   2.778   1.225 -0.5132  0.2239  0.3629
   96MOL   C46746257   3.314   2.721   1.244  0.0744 -0.6969 -0.1159
   96MOL   C46846258   3.292   2.582   1.315  0.3158  0.1321 -0.7971
   96MOL   O46946259   3.376   2.495   1.313  0.2396 -0.1346 -0.2019
   96MOL   H47046260   3.476   3.284   0.884  1.0755 -0.0491  0.5995
   96MOL   H47146261   3.399   3.178   0.766  0.2135  0.4116 -0.8114
   96MOL   H47246262   3.699   3.220   0.837 -1.5691  1.5659  1.0652
   96MOL   H47346263   3.659   3.148   0.687  1.3732  2.2702  0.4899
   96MOL   H47446264   3.696   2.970   0.845  0.1294  0.0940  0.1225
   96MOL   H47546265   3.520   2.978   0.846  1.3325 -4.0673  3.0646
   96MOL   H47646266   3.687   3.113   1.067 -0.6655  0.6928  0.1798
   96MOL   H47746267   3.519   3.118   1.053  1.2640  2.4494  0.5881
   96MOL   H47846268   3.500   2.826   1.312  1.0638  2.2257 -1.4896
   96MOL   H47946269   3.523   2.703   1.186  0.5089  1.3024  0.0609
   96MOL   H48046270   3.264   2.801   1.299 -1.4744 -1.0043 -1.0729
   96MOL   H48146271   3.268   2.705   1.147  0.3641  0.3291 -0.4328
   96MOL   H48246272   3.208   2.585   1.385  1.5376 -0.1037  0.6987
   97MOL     O146273   7.064   7.068   1.104 -0.5840  0.3909 -0.3987
   97MOL     C246274   7.106   7.012   1.229  0.6947  0.1182 -0.5465
   97MOL     C346275   7.258   7.029   1.231 -0.0854 -0.0305  0.1401
   97MOL     C446276   7.305   7.178   1.251 -0.2520  0.0906 -0.1538
   97MOL     C546277   7.455   7.204   1.239  0.4601 -0.2948  0.1652
   97MOL     O646278   7.515   7.114   1.330  0.1387 -0.1844  0.2156
   97MOL     C746279   7.641   7.073   1.303 -0.0498  0.5326  0.4098
   97MOL     O846280   7.718   7.131   1.228  0.2988  0.0218  1.0192
   97MOL     C946281   7.699   6.961   1.399  0.6537  0.7409  0.3849
   97MOL    C1046282   7.818   6.891   1.339 -0.1166 -0.2665  0.4366
   97MOL    C1146283   7.777   6.772   1.244  0.4230 -0.3694  0.1394
   97MOL    O1246284   7.734   6.667   1.291 -0.3571  0.4786 -0.4747
   97MOL    H1346285   7.059   7.053   1.318 -1.4295  3.7182 -3.1764
   97MOL    H1446286   7.095   6.904   1.230 -0.6563  0.2504  2.0007
   97MOL    H1546287   7.292   6.986   1.137  0.9250 -1.0285  0.9546
   97MOL    H1646288   7.308   6.978   1.313 -1.3272 -0.3076  0.7338
   97MOL    H1746289   7.273   7.210   1.350 -0.8328 -1.4426  0.1808
   97MOL    H1846290   7.264   7.249   1.180 -1.6113  1.6042  2.0866
   97MOL    H1946291   7.485   7.187   1.136  2.2628  1.8294  0.3263
   97MOL    H2046292   7.483   7.308   1.249 -1.2326  0.2770 -0.7895
   97MOL    H2146293   7.621   6.887   1.415  0.6451  0.8918  1.0589
   97MOL    H2246294   7.721   7.004   1.497 -0.4687 -1.2886  1.5664
   97MOL    H2346295   0.011   6.960   1.288 -1.3071  0.0657 -0.7112
   97MOL    H2446296   7.874   6.842   1.419 -0.3607 -1.8616 -0.3327
   97MOL    H2546297   7.022   6.999   1.055  2.1414 -0.1122 -2.1410
   97MOL    O2646298   7.792   6.789   1.106  0.2471 -0.0586 -0.5525
   97MOL    C2746299   7.778   6.691   1.003 -0.7714 -0.3930  0.3935
   97MOL    C2846300   7.632   6.664   0.966 -0.0250 -0.6470 -0.1408
   97MOL    C2946301   7.547   6.772   0.888  0.4302 -0.1920 -0.3040
   97MOL    C3046302   7.619   6.824   0.765  0.1670  0.5915 -0.3641
   97MOL    O3146303   7.638   6.722   0.668 -0.0791  0.4440  0.7258
   97MOL    C3246304   7.753   6.673   0.627  0.2197 -0.2689 -0.1481
   97MOL    O3346305   7.863   6.730   0.642 -0.0837  0.5836  0.3639
   97MOL    C3446306   7.730   6.531   0.574 -0.4304  0.5555  0.3779
   97MOL    C3546307   7.638   6.546   0.451 -0.9426 -0.7348 -1.0701
   97MOL    C3646308   7.590   6.410   0.415 -0.3363  0.4684  0.2672
   97MOL    O3746309   7.656   6.312   0.445  0.0482 -0.2926 -0.3712
   97MOL    H3846310   7.834   6.727   0.917  1.2431 -1.6144  1.1546
   97MOL    H3946311   7.820   6.601   1.049  0.3858 -0.1024 -0.0926
   97MOL    H4046312   7.578   6.626   1.053 -0.8745  0.8490  0.0012
   97MOL    H4146313   7.629   6.576   0.902 -1.6579 -0.9722  0.3467
   97MOL    H4246314   7.517   6.854   0.953 -1.4939 -1.9309  1.0732
   97MOL    H4346315   7.449   6.729   0.864  0.6177 -0.7384 -0.0949
   97MOL    H4446316   7.566   6.912   0.729 -2.5812 -1.2517 -0.9577
   97MOL    H4546317   7.720   6.851   0.796 -0.2430 -0.7746  2.3203
   97MOL    H4646318   7.666   6.480   0.646  0.1888 -0.3013  0.3292
   97MOL    H4746319   7.822   6.478   0.551 -1.0088 -0.2651 -0.0552
   97MOL    H4846320   7.559   6.620   0.467 -0.0674  0.1952 -1.0188
   97MOL    H4946321   7.697   6.592   0.372 -0.5065  1.2733  0.3528
   97MOL    O5046322   7.476   6.412   0.349 -0.3030 -0.2157 -0.2245
   97MOL    C5146323   7.408   6.291   0.331 -1.1503  0.6412 -0.3989
   97MOL    C5246324   7.412   6.271   0.180 -0.0273  0.3255 -0.0596
   97MOL    C5346325   7.376   6.127   0.141  0.5119  0.2830 -0.3907
   97MOL    C5446326   7.404   6.097   7.868  0.0975  0.0671  0.4643
   97MOL    O5546327   7.327   5.983   7.829 -0.6021  1.0078 -0.3448
   97MOL    C5646328   7.197   5.984   7.806 -0.0530  0.5238  0.1320
   97MOL    O5746329   7.124   6.079   7.820  0.3565 -0.4870  0.4240
   97MOL    C5846330   7.141   5.845   7.769 -0.3496 -0.0118 -0.0499
   97MOL    C5946331   6.993   5.841   7.733  0.1382  0.8044  0.0870
   97MOL    C6046332   6.961   5.739   7.629  0.3520  0.0235 -0.2125
   97MOL    O6146333   6.913   5.778   7.520 -0.5424  0.0562 -0.1093
   97MOL    H6246334   7.453   6.212   0.391 -0.4103  3.0191  2.3050
   97MOL    H6346335   7.305   6.303   0.363 -1.0881  0.6512 -0.1986
   97MOL    H6446336   7.515   6.293   0.152  0.4705 -2.2437 -0.3848
   97MOL    H6546337   7.341   6.346   0.145  0.8714  1.8791  1.3530
   97MOL    H6646338   7.273   6.105   0.170  0.5213  0.7554  0.0016
   97MOL    H6746339   7.419   6.052   0.206 -0.0925 -0.5813 -0.9772
   97MOL    H6846340   7.367   6.170   7.797  0.8664  1.5716  1.5928
   97MOL    H6946341   7.511   6.081   7.855  0.2465  0.5278  1.1149
   97MOL    H7046342   7.177   5.768   7.837  0.0528 -1.6524 -2.0582
   97MOL    H7146343   7.194   5.824   7.676 -1.4495 -0.5661 -0.5681
   97MOL    H7246344   6.935   5.818   7.823 -0.1365  0.3426 -0.2058
   97MOL    H7346345   6.955   5.938   7.700  0.1004  1.0275  0.7702
   97MOL    O7446346   6.987   5.610   7.672  0.2118  0.6574  0.6225
   97MOL    C7546347   6.964   5.511   7.575 -0.8814 -0.5704 -0.3035
   97MOL    C7646348   6.852   5.424   7.625  0.1681 -0.0758 -0.1928
   97MOL    C7746349   6.774   5.342   7.519 -0.2752 -0.2182  0.4635
   97MOL    C7846350   6.671   5.250   7.587 -0.4892  0.4720 -0.2611
   97MOL    O7946351   6.623   5.163   7.486  0.0907 -0.1231  0.5396
   97MOL    C8046352   6.677   5.042   7.464  0.5550  0.4832 -0.7183
   97MOL    O8146353   6.753   4.982   7.539 -0.6869 -0.1989  0.3284
   97MOL    C8246354   6.638   4.984   7.334 -0.0976  0.4286  0.0369
   97MOL    C8346355   6.761   4.944   7.247  0.0026  0.8610  0.1748
   97MOL    C8446356   6.736   4.980   7.110 -0.1235 -0.2006  0.4438
   97MOL    O8546357   6.622   4.999   7.062 -0.5129  0.5914 -0.5649
   97MOL    H8646358   6.956   5.558   7.477 -0.0169  1.3347  0.5139
   97MOL    H8746359   7.059   5.456   7.571 -0.0255  0.8746  0.0153
   97MOL    H8846360   6.781   5.492   7.672  0.1645 -0.6141  0.5995
   97MOL    H8946361   6.899   5.379   7.713  1.1845  1.7866  0.2432
   97MOL    H9046362   6.843   5.284   7.459  0.8355  2.0666 -0.5245
   97MOL    H9146363   6.727   5.411   7.449  2.1752  0.7906 -0.2200
   97MOL    H9246364   6.720   5.198   7.669 -1.5517  0.5278  0.4153
   97MOL    H9346365   6.582   5.298   7.626 -0.5085  0.7796 -0.6794
   97MOL    H9446366   6.589   5.067   7.283  0.8155 -0.0101 -1.6034
   97MOL    H9546367   6.561   4.907   7.334  0.0971  0.1627 -2.7599
   97MOL    H9646368   6.852   4.997   7.275 -0.0851  1.3512 -0.4505
   97MOL    H9746369   6.768   4.835   7.254 -2.6937  0.4539 -2.5488
   97MOL    O9846370   6.849   4.997   7.043  0.2382  0.1227  0.3996
   97MOL    C9946371   6.846   5.018   6.902  0.4517  0.1885 -0.7785
   97MOL   C10046372   6.807   4.883   6.838  0.0977  0.0840  0.2459
   97MOL   C10146373   6.780   4.909   6.695 -0.1649 -0.3222 -0.5373
   97MOL   C10246374   6.714   4.791   6.638 -0.4531 -0.2615  0.2077
   97MOL   O10346375   6.580   4.764   6.674 -0.2960  0.1415 -0.1947
   97MOL   C10446376   6.481   4.816   6.600 -0.2273  0.0886 -0.1151
   97MOL   O10546377   6.501   4.868   6.489  0.2613 -0.3204  0.4214
   97MOL   C10646378   6.341   4.794   6.653 -0.2623 -0.4041 -0.1463
   97MOL   C10746379   6.234   4.870   6.578  0.5446 -0.8016  0.1981
   97MOL   C10846380   6.164   4.963   6.674  0.0015  0.3821 -0.0600
   97MOL   O10946381   6.042   4.947   6.700 -0.2230 -0.8934 -0.2323
   97MOL   H11046382   6.765   5.090   6.890  1.4832  1.5281  0.2626
   97MOL   H11146383   6.928   5.061   6.845 -0.7336  1.0044 -1.8796
   97MOL   H11246384   6.722   4.834   6.886 -0.0093 -1.0883 -1.0975
   97MOL   H11346385   6.888   4.810   6.842 -1.1496 -1.2822  0.9599
   97MOL   H11446386   6.877   4.932   6.650 -0.5947  0.0315 -1.2916
   97MOL   H11546387   6.723   4.994   6.657  0.4035 -0.1271 -0.9628
   97MOL   H11646388   6.718   4.799   6.529  1.9312  0.6450  0.3361
   97MOL   H11746389   6.778   4.709   6.672  1.6497  0.7079 -1.3332
   97MOL   H11846390   6.348   4.825   6.757  0.4195 -1.3136  0.0777
   97MOL   H11946391   6.317   4.688   6.653 -0.2646 -0.4137  1.9497
   97MOL   H12046392   6.267   4.934   6.497 -2.4803 -0.0394 -0.5137
   97MOL   H12146393   6.170   4.792   6.536 -0.0324 -0.7355  0.9297
   97MOL   O12246394   6.245   5.052   6.730 -0.1051 -0.0014 -0.3952
   97MOL   C12346395   6.189   5.151   6.814  0.1810  0.3776 -0.3450
   97MOL   C12446396   6.265   5.285   6.791 -0.0876 -0.1541  0.3265
   97MOL   C12546397   6.226   5.394   6.890 -0.0058  0.1327  0.2622
   97MOL   C12646398   6.257   5.538   6.828 -0.0279 -0.6638 -0.2342
   97MOL   O12746399   6.196   5.621   6.925  0.2146  0.2959 -0.0936
   97MOL   C12846400   6.274   5.674   7.032 -0.1549  0.4115 -0.1294
   97MOL   O12946401   6.392   5.681   7.045 -0.2965  0.2073 -0.2530
   97MOL   C13046402   6.189   5.737   7.142  0.2065 -0.4158 -0.1720
   97MOL   C13146403   6.073   5.834   7.101 -0.8173 -0.3040 -0.8057
   97MOL   C13246404   6.109   5.953   7.012  0.4149 -0.0243  0.4621
   97MOL   O13346405   6.061   5.978   6.902  0.8416 -0.0123  0.2988
   97MOL   H13446406   6.085   5.168   6.787  0.0276 -2.4632 -1.7883
   97MOL   H13546407   6.176   5.119   6.918  0.9508  0.6213 -0.1690
   97MOL   H13646408   6.239   5.321   6.692 -0.6541  2.1529  1.2917
   97MOL   H13746409   6.369   5.254   6.798 -0.2384 -0.9708 -0.7788
   97MOL   H13846410   6.267   5.375   6.989  0.5500 -1.0147 -0.1741
   97MOL   H13946411   6.120   5.386   6.914  0.2847 -2.6019  0.8782
   97MOL   H14046412   6.361   5.561   6.807 -0.3461  0.2336 -0.8546
   97MOL   H14146413   6.195   5.565   6.743 -1.6189 -2.1720  0.4194
   97MOL   H14246414   6.258   5.778   7.216  0.0187  0.5616 -0.5370
   97MOL   H14346415   6.141   5.652   7.192 -0.7368  1.8739  2.9660
   97MOL   H14446416   5.999   5.767   7.058  0.4774 -2.1146 -0.2715
   97MOL   H14546417   6.017   5.880   7.183  0.7721  1.8321 -0.8914
   97MOL   O14646418   6.207   6.028   7.056 -0.1484 -0.2414  0.2886
   97MOL   C14746419   6.229   6.157   6.998  0.2384 -0.4743 -0.2822
   97MOL   C14846420   6.375   6.200   7.027 -0.4417  0.7784 -0.1977
   97MOL   C14946421   6.405   6.351   6.991 -0.3823  0.1959 -0.2770
   97MOL   C15046422   6.414   6.395   6.847 -0.2592  0.0009  0.1243
   97MOL   O15146423   6.453   6.534   6.830 -0.0726 -0.2676 -0.0059
   97MOL   C15246424   6.581   6.578   6.861 -0.0269  0.2801  0.1746
   97MOL   O15346425   6.673   6.507   6.898 -0.2447 -0.6178  0.6788
   97MOL   C15446426   6.596   6.728   6.856  0.3712  0.3270 -0.9331
   97MOL   C15546427   6.526   6.811   6.968  0.0944 -0.8043 -1.3302
   97MOL   C15646428   6.518   6.747   7.109  0.4585 -0.2293 -0.9191
   97MOL   O15746429   6.416   6.767   7.181  0.6798 -0.0197 -0.3686
   97MOL   H15846430   6.222   6.159   6.889  2.4653 -0.0811 -0.4412
   97MOL   H15946431   6.149   6.220   7.038 -0.6977 -3.1071  2.1856
   97MOL   H16046432   6.434   6.131   6.966 -1.7942 -0.1447 -0.4908
   97MOL   H16146433   6.410   6.170   7.125  2.0454 -2.6745 -2.0102
   97MOL   H16246434   6.506   6.370   7.027 -0.6868  1.0619  0.1395
   97MOL   H16346435   6.332   6.411   7.046  0.1638  1.9615 -1.4353
   97MOL   H16446436   6.496   6.339   6.803  0.3656  1.6197 -0.8468
   97MOL   H16546437   6.330   6.366   6.784  0.0828  1.4172 -0.9974
   97MOL   H16646438   6.553   6.762   6.762 -1.4136  1.1766  0.1663
   97MOL   H16746439   6.700   6.760   6.864  0.1758  0.9322 -0.8456
   97MOL   H16846440   6.558   6.915   6.977  1.0290 -1.1402 -0.6188
   97MOL   H16946441   6.420   6.820   6.947 -0.2744 -0.5917  0.5480
   97MOL   O17046442   6.635   6.699   7.156  0.4590 -0.2952  0.3697
   97MOL   C17146443   6.649   6.652   7.287  0.5269 -0.1954 -0.0164
   97MOL   C17246444   6.791   6.652   7.346  0.3758 -0.5684  0.3761
   97MOL   C17346445   6.848   6.799   7.362  0.4795  0.6888 -0.4420
   97MOL   C17446446   6.976   6.792   7.443 -1.0537 -0.5048  0.0787
   97MOL   O17546447   6.956   6.732   7.565 -0.0923 -0.3933  0.1885
   97MOL   C17646448   7.060   6.691   7.639 -0.3184 -0.1083  0.6203
   97MOL   O17746449   7.176   6.696   7.602  0.3728 -0.2270 -0.5081
   97MOL   C17846450   7.022   6.633   7.773  0.1075 -0.0441 -0.3373
   97MOL   C17946451   7.090   6.507   7.807  0.4232  0.0083 -0.3615
   97MOL   C18046452   7.029   6.421   0.041  0.3659  0.2297  0.2614
   97MOL   O18146453   7.079   6.424   0.157 -0.0215  0.2306  0.5863
   97MOL   H18246454   6.598   6.717   7.357 -2.0333 -1.1005 -0.9706
   97MOL   H18346455   6.591   6.560   7.297 -2.3827  1.4215 -1.4818
   97MOL   H18446456   6.857   6.587   7.289  1.9668  1.2671  0.0579
   97MOL   H18546457   6.776   6.607   7.444 -0.8734  1.0825  0.9728
   97MOL   H18646458   6.770   6.860   7.408  0.1300 -1.7554  2.3341
   97MOL   H18746459   6.862   6.833   7.260 -2.2900  1.3882 -0.6260
   97MOL   H18846460   7.050   6.735   7.386 -0.2353  2.2250 -1.6342
   97MOL   H18946461   7.032   6.882   7.468 -0.1064 -0.5027 -1.9713
   97MOL   H19046462   6.916   6.608   7.769 -0.5379  2.2806  1.0420
   97MOL   H19146463   7.028   6.703   7.857  0.9697 -0.2487 -0.2211
   97MOL   H19246464   7.104   6.446   7.717 -0.9489  0.5390 -0.9520
   97MOL   H19346465   7.191   6.539   7.834  0.4593  0.0311 -0.5223
   97MOL   O19446466   6.915   6.362   7.874 -0.2882  0.4107 -0.0131
   97MOL   C19546467   6.847   6.273   0.086 -0.0575  0.1169  0.3020
   97MOL   C19646468   6.767   6.169   0.006 -0.4756  0.0020 -0.6988
   97MOL   C19746469   6.690   6.065   0.094 -0.6821  0.5785 -0.6736
   97MOL   C19846470   6.625   5.963   7.872 -0.2672 -0.2846  0.4621
   97MOL   O19946471   6.539   6.010   7.770  0.7247 -0.5046  0.4068
   97MOL   C20046472   6.410   6.006   7.782 -0.2440  0.1172 -0.1645
   97MOL   O20146473   6.348   5.970   0.004  0.0657  0.0309  0.4221
   97MOL   C20246474   6.343   6.054   7.656 -0.2251  0.0534 -0.7817
   97MOL   C20346475   6.333   6.206   7.651  0.6567  0.3874  0.5187
   97MOL   C20446476   6.419   6.268   7.539  0.9119 -0.6979 -0.2824
   97MOL   O20546477   6.373   6.322   7.436  0.5076 -0.2214 -0.2441
   97MOL   H20646478   6.921   6.228   0.153  1.8257  1.2998 -0.9324
   97MOL   H20746479   6.782   6.325   0.156 -0.4208  0.9638 -0.6602
   97MOL   H20846480   6.838   6.129   7.809  1.7477  2.2673  0.1329
   97MOL   H20946481   6.697   6.230   7.823  0.1629  0.4421 -1.0184
   97MOL   H21046482   6.610   6.110   0.152 -2.4172 -0.9647 -1.8053
   97MOL   H21146483   6.759   6.007   0.157 -0.6212  0.8278 -0.5123
   97MOL   H21246484   6.712   5.931   7.816 -0.5667  0.0532 -0.2060
   97MOL   H21346485   6.580   5.884   0.057 -3.7924  1.1537 -0.1441
   97MOL   H21446486   6.243   6.011   7.654 -0.0516 -0.3180 -1.2507
   97MOL   H21546487   6.400   6.023   7.569 -0.8911 -1.2266 -0.7696
   97MOL   H21646488   6.233   6.242   7.627  0.8428 -0.3571 -1.4721
   97MOL   H21746489   6.354   6.248   7.750  1.8494  1.0212  0.0047
   97MOL   O21846490   6.555   6.247   7.552  0.5820 -0.1756 -0.0928
   97MOL   C21946491   6.644   6.324   7.465 -0.2417  0.5376  0.1604
   97MOL   C22046492   6.787   6.315   7.506 -0.1770 -0.0541  0.3429
   97MOL   C22146493   6.833   6.166   7.496 -0.6148 -0.1022  0.0647
   97MOL   C22246494   6.986   6.152   7.510 -0.2176 -0.0348 -0.2276
   97MOL   O22346495   7.036   6.228   7.403  0.5422 -0.6947  0.1827
   97MOL   C22446496   7.157   6.279   7.422 -0.3530  0.8470 -0.0096
   97MOL   O22546497   7.221   6.258   7.527  0.3703 -0.0015 -0.4039
   97MOL   C22646498   7.210   6.374   7.315 -0.4009 -0.1186 -0.2777
   97MOL   C22746499   7.205   6.308   7.183 -0.7394 -0.4870  0.0024
   97MOL   C22846500   7.077   6.329   7.105 -0.3414 -0.2453 -0.0707
   97MOL   O22946501   6.990   6.415   7.138 -0.2514  0.3441 -0.6697
   97MOL   H23046502   6.631   6.276   7.368  0.8298  0.8233 -0.1286
   97MOL   H23146503   6.611   6.428   7.467 -0.9022  0.3308  0.1692
   97MOL   H23246504   6.792   6.333   7.614 -1.9296  0.8870  0.2868
   97MOL   H23346505   6.852   6.383   7.452  0.0234  1.8543  2.8717
   97MOL   H23446506   6.803   6.110   7.407 -0.9019 -1.3204  0.9114
   97MOL   H23546507   6.785   6.104   7.572 -3.0511  0.2712 -1.0940
   97MOL   H23646508   7.015   6.172   7.613  0.3919 -1.6395 -0.0736
   97MOL   H23746509   7.013   6.047   7.495 -1.2388 -0.6127  1.8135
   97MOL   H23846510   7.315   6.397   7.333 -0.1879  1.3782 -3.1399
   97MOL   H23946511   7.155   6.468   7.313 -0.9188 -0.4330 -1.5716
   97MOL   H24046512   7.289   6.338   7.120 -1.0345 -0.3087 -0.3030
   97MOL   H24146513   7.222   6.201   7.201 -0.8952 -1.4189 -4.7973
   97MOL   O24246514   7.076   6.246   7.003 -0.5618 -0.1861  0.1948
   97MOL   C24346515   6.962   6.243   6.919 -0.2073  0.2335 -0.3503
   97MOL   C24446516   6.891   6.111   6.950 -0.3141  0.6616  0.2938
   97MOL   C24546517   6.820   6.107   7.087 -0.1822 -0.1617 -0.5509
   97MOL   C24646518   6.761   5.971   7.115  0.4748  0.1133  0.0788
   97MOL   O24746519   6.713   5.961   7.245 -0.5491 -0.0648 -0.2091
   97MOL   C24846520   6.684   5.841   7.292  0.2239  0.7756 -0.3377
   97MOL   O24946521   6.707   5.739   7.232 -0.1992  0.7797  0.7386
   97MOL   C25046522   6.618   5.848   7.428 -0.5212 -0.4091  0.2471
   97MOL   C25146523   6.524   5.732   7.462 -0.5954 -0.3259  0.2036
   97MOL   C25246524   6.532   5.679   7.606  0.1282 -0.1221  1.1206
   97MOL   O25346525   6.624   5.705   7.684  0.9085 -0.5236  0.3947
   97MOL   H25446526   6.890   6.322   6.940 -0.8499 -0.0057 -1.6054
   97MOL   H25546527   6.996   6.244   6.816  0.2236 -0.1711 -0.2126
   97MOL   H25646528   6.962   6.029   6.937 -3.8416 -2.2974 -1.0595
   97MOL   H25746529   6.819   6.092   6.871 -1.2927 -0.5387  1.4456
   97MOL   H25846530   6.744   6.185   7.093 -2.4415 -2.3246 -0.1769
   97MOL   H25946531   6.891   6.126   7.167  2.1992  1.4086 -2.9582
   97MOL   H26046532   6.682   5.938   7.048 -0.5456 -0.9554  1.7628
   97MOL   H26146533   6.846   5.902   7.106  0.6439  0.2573  0.5539
   97MOL   H26246534   6.551   5.934   7.428 -1.7532 -1.2918  3.3055
   97MOL   H26346535   6.695   5.859   7.504 -0.0837 -1.3761 -0.0547
   97MOL   H26446536   6.423   5.768   7.442 -0.9720 -1.9268 -0.8336
   97MOL   H26546537   6.556   5.645   7.405 -1.2415 -1.7605  2.0108
   97MOL   O26646538   6.416   5.616   7.645 -0.2948  0.6005 -0.4660
   97MOL   C26746539   6.419   5.573   7.776  0.2912  0.5716  0.0234
   97MOL   C26846540   6.295   5.491   7.818 -0.0887 -0.3714  0.1093
   97MOL   C26946541   6.306   5.341   7.806 -0.4921  0.9055  0.2703
   97MOL   C27046542   6.172   5.271   7.800  0.1612 -0.3864 -0.0180
   97MOL   O27146543   6.086   5.307   0.035  0.7932 -0.0852 -0.6226
   97MOL   C27246544   5.957   5.337   0.015  0.5295 -0.0851  0.2638
   97MOL   O27346545   5.897   5.354   7.784 -0.8792 -0.4899 -0.2618
   97MOL   C27446546   5.872   5.342   0.144  0.2920 -0.2888 -0.5093
   97MOL   C27546547   5.733   5.278   0.147 -0.5756 -0.5071 -0.0022
   97MOL   C27646548   5.727   5.166   0.250  0.6473 -0.1893 -0.2121
   97MOL   O27746549   5.725   5.051   0.212  0.4450 -0.3527  0.3626
   97MOL   H27846550   6.505   5.508   7.788  0.1907  0.3931 -0.2334
   97MOL   H27946551   6.423   5.663   7.837  1.5200  0.0501  0.7340
   97MOL   H28046552   6.202   5.533   7.779 -0.3367 -0.2301  0.8470
   97MOL   H28146553   6.279   5.510   0.049  0.3117  0.5691  0.0075
   97MOL   H28246554   6.363   5.287   0.007  0.4340  2.6651  0.8476
   97MOL   H28346555   6.364   5.318   7.717 -4.1613 -2.3991 -1.4143
   97MOL   H28446556   6.122   5.286   7.704 -1.3814  0.3167  0.8766
   97MOL   H28546557   6.183   5.162   7.801 -0.7523 -0.5603 -2.5833
   97MOL   H28646558   5.856   5.446   0.173 -2.4833 -2.0199  4.9837
   97MOL   H28746559   5.929   5.307   0.230  1.5107  0.6619 -0.9063
   97MOL   H28846560   5.652   5.345   0.176 -0.9932 -0.4931 -1.1972
   97MOL   H28946561   5.712   5.248   0.044 -1.2775 -1.1033  0.3110
   97MOL   O29046562   5.720   5.206   0.375 -0.3588 -0.5315 -0.2612
   97MOL   C29146563   5.678   5.121   0.478 -0.7147  0.0771 -0.0849
   97MOL   C29246564   5.691   5.185   0.623  0.1166 -0.1339 -0.3784
   97MOL   C29346565   5.835   5.220   0.662 -0.5298  0.3728  0.3601
   97MOL   C29446566   5.915   5.312   0.561 -0.0288  0.0458  0.4417
   97MOL   O29546567   6.044   5.331   0.613  0.0641 -0.3977 -0.0609
   97MOL   C29646568   6.067   5.453   0.667 -0.0638 -0.5507 -0.2174
   97MOL   O29746569   5.994   5.549   0.678 -0.6841  0.2259 -0.3978
   97MOL   C29846570   6.213   5.465   0.709  0.1763  0.3300  0.5675
   97MOL   C29946571   6.266   5.347   0.788  0.4722  0.2221  0.2325
   97MOL   C30046572   6.381   5.269   0.720  0.8919  0.6670 -0.5133
   97MOL   O30146573   6.373   5.147   0.708 -0.1320 -0.2767  0.5088
   97MOL   H30246574   5.586   5.073   0.445  0.5201 -1.5793 -1.2115
   97MOL   H30346575   5.745   5.036   0.489 -1.9225 -0.6369  2.3259
   97MOL   H30446576   5.649   5.120   0.701  4.0693 -2.8287 -0.3436
   97MOL   H30546577   5.640   5.280   0.635  0.1737 -0.3117  1.4876
   97MOL   H30646578   5.887   5.127   0.684 -0.5434  0.3941  0.4843
   97MOL   H30746579   5.828   5.260   0.763 -1.0695  1.5347 -0.1264
   97MOL   H30846580   5.932   5.247   0.476 -2.3173 -1.7227  1.2937
   97MOL   H30946581   5.861   5.405   0.542  0.5801  0.3704  0.2510
   97MOL   H31046582   6.209   5.544   0.784 -0.7728  0.4258  0.4215
   97MOL   H31146583   6.277   5.491   0.624  0.5328 -0.4303  0.6036
   97MOL   H31246584   6.301   5.373   0.888  0.1676 -0.6320  0.5699
   97MOL   H31346585   6.187   5.280   0.823  0.4845 -0.3311 -0.7869
   97MOL   O31446586   6.490   5.343   0.678  0.1636 -0.0601 -0.0525
   97MOL   C31546587   6.585   5.280   0.593  0.0385 -0.0720 -0.2063
   97MOL   C31646588   6.724   5.343   0.580  0.9103 -0.6521 -0.0825
   97MOL   C31746589   6.808   5.340   0.706  0.4276  0.3013  0.0849
   97MOL   C31846590   6.851   5.203   0.756 -0.2233 -0.5892 -0.8676
   97MOL   O31946591   6.918   5.210   0.878  0.2478 -0.9499 -0.0170
   97MOL   C32046592   7.041   5.265   0.885  0.0599 -0.5465  0.8495
   97MOL   O32146593   7.110   5.294   0.792  0.5081  0.4517 -0.0063
   97MOL   C32246594   7.095   5.285   1.029  0.4614 -0.4346  0.5398
   97MOL   C32346595   7.247   5.278   1.047 -0.3977 -0.2581  0.1425
   97MOL   C32446596   7.289   5.176   1.160 -0.3395  0.0209 -0.0637
   97MOL   O32546597   7.366   5.083   1.133  0.3174 -0.0950 -0.2423
   97MOL   H32646598   6.594   5.179   0.632  1.7968 -0.4739 -1.5758
   97MOL   H32746599   6.535   5.278   0.496  0.5470  1.6455 -0.5330
   97MOL   H32846600   6.728   5.446   0.547 -0.4290 -0.8047 -0.7623
   97MOL   H32946601   6.767   5.270   0.511  0.8316  1.4101 -2.4012
   97MOL   H33046602   6.759   5.396   0.786 -0.3534  1.0654 -0.9302
   97MOL   H33146603   6.898   5.399   0.685  0.7263 -0.6040 -1.2317
   97MOL   H33246604   6.768   5.134   0.771  0.2097 -0.7226  0.9297
   97MOL   H33346605   6.915   5.154   0.682 -0.9430  0.7733 -2.4293
   97MOL   H33446606   7.045   5.212   1.091  3.2263 -3.2912 -0.4810
   97MOL   H33546607   7.075   5.390   1.050  3.4287  0.2921  0.0649
   97MOL   H33646608   7.301   5.237   0.962  0.7176  3.0566 -0.8346
   97MOL   H33746609   7.283   5.380   1.062  0.5122 -0.3076 -1.4919
   97MOL   O33846610   7.230   5.193   1.275  0.3274 -0.1113  0.3064
   97MOL   C33946611   7.261   5.101   1.374  1.2288 -0.9237  0.1190
   97MOL   C34046612   7.213   5.167   1.512 -0.0959 -1.0582 -0.4390
   97MOL   C34146613   7.066   5.158   1.548  0.1723  0.1464 -0.1908
   97MOL   C34246614   7.015   5.012   1.577  0.8265  0.2572  0.0429
   97MOL   O34346615   6.994   4.939   1.456 -0.3430  0.0993  0.5777
   97MOL   C34446616   6.886   4.950   1.379  0.3004 -0.2351 -0.1941
   97MOL   O34546617   6.791   5.024   1.406  0.0273  0.0763  0.1272
   97MOL   C34646618   6.888   4.864   1.252 -0.2535 -0.6097  0.3386
   97MOL   C34746619   6.998   4.910   1.154 -0.0754 -0.7325  0.3155
   97MOL   C34846620   7.050   4.806   1.053 -0.2344 -0.6208 -0.9159
   97MOL   O34946621   7.050   4.688   1.084  0.1040 -0.3248  0.2061
   97MOL   H35046622   7.228   5.000   1.352  0.7453 -1.1674  1.9117
   97MOL   H35146623   7.370   5.107   1.381  1.2677 -0.3266 -0.9176
   97MOL   H35246624   7.256   5.266   1.529 -0.6565 -1.3257  2.7905
   97MOL   H35346625   7.256   5.107   1.592  1.1182  0.2706 -0.0826
   97MOL   H35446626   7.015   5.203   1.463 -1.0266 -0.8732 -0.0179
   97MOL   H35546627   7.041   5.224   1.632 -0.6314 -0.0593 -0.2655
   97MOL   H35646628   7.093   4.962   1.635  0.8435 -1.9218 -1.7937
   97MOL   H35746629   6.925   5.018   1.639  0.6528 -2.2325  0.1117
   97MOL   H35846630   6.789   4.850   1.209  0.5873 -1.3114 -1.4202
   97MOL   H35946631   6.927   4.768   1.286 -0.3966 -1.2156 -1.1682
   97MOL   H36046632   6.950   4.990   1.097 -1.6781 -1.5713  0.4772
   97MOL   H36146633   7.088   4.958   1.194 -0.3923  0.2810 -0.1564
   97MOL   O36246634   7.112   4.862   0.942 -0.3175  0.5413  0.2343
   97MOL   C36346635   7.160   4.775   0.841  0.2428 -0.0380 -0.4422
   97MOL   C36446636   7.190   4.855   0.711 -0.2884  0.3994 -0.2460
   97MOL   C36546637   7.285   4.971   0.738 -0.2322 -0.4121  0.1114
   97MOL   C36646638   7.344   5.023   0.608  0.0391  0.0455 -0.6114
   97MOL   O36746639   7.239   5.080   0.531  0.1107  0.4501 -0.0265
   97MOL   C36846640   7.266   5.194   0.473  0.6573  0.0930 -0.0885
   97MOL   O36946641   7.371   5.258   0.472  0.3741 -0.8383 -0.4096
   97MOL   C37046642   7.142   5.258   0.417 -0.4093 -0.1705  0.6008
   97MOL   C37146643   7.131   5.205   0.267 -0.1276  0.6119  0.2273
   97MOL   C37246644   7.121   5.321   0.171  0.1034  0.4230  0.5628
   97MOL   O37346645   7.015   5.368   0.143 -0.2466  0.3969  0.7703
   97MOL   H37446646   7.246   4.722   0.883 -0.5776 -0.1298  1.1420
   97MOL   H37546647   7.086   4.697   0.821 -1.1336  1.2512 -0.4607
   97MOL   H37646648   7.101   4.892   0.658  1.1775  0.1180 -3.0165
   97MOL   H37746649   7.238   4.782   0.646 -0.3371  1.6171 -1.7013
   97MOL   H37846650   7.354   4.945   0.818 -0.2396 -0.7637  0.0039
   97MOL   H37946651   7.234   5.051   0.792 -2.5823 -2.2437  0.7151
   97MOL   H38046652   7.424   5.095   0.626 -0.6227  0.8592 -0.8709
   97MOL   H38146653   7.391   4.950   0.542  1.1876  0.0729  0.1647
   97MOL   H38246654   7.158   5.366   0.416 -0.2448 -0.1946  0.4671
   97MOL   H38346655   7.057   5.231   0.479  0.4287  1.3613  2.4445
   97MOL   H38446656   7.209   5.141   0.226  0.1770  3.0243 -3.2066
   97MOL   H38546657   7.040   5.144   0.263 -0.9524  1.9423 -2.7450
   97MOL   O38646658   7.245   5.368   0.135 -0.1648  0.3090 -0.2254
   97MOL   C38746659   7.254   5.499   0.077 -0.2808 -0.6196 -0.3690
   97MOL   C38846660   7.403   5.542   0.113  0.0627  0.3092 -0.3172
   97MOL   C38946661   7.436   5.690   0.088  0.4028  1.1029 -0.0362
   97MOL   C39046662   7.586   5.715   0.114  0.0764  0.1619  0.4863
   97MOL   O39146663   7.625   5.847   0.098 -0.2578 -0.2646 -0.5623
   97MOL   C39246664   7.744   5.884   0.049 -0.3732  0.3673  0.4018
   97MOL   O39346665   7.814   5.812   7.850  0.1624 -0.4511  0.4250
   97MOL   C39446666   7.763   6.034   0.072 -0.5144  0.0427  0.2570
   97MOL   C39546667   7.778   6.076   0.221  0.1562  0.3393  0.0247
   97MOL   C39646668   0.036   6.144   0.266 -0.7126 -0.6914 -0.4111
   97MOL   O39746669   0.134   6.071   0.279  0.2473  0.3557 -0.1394
   97MOL   H39846670   7.244   5.491   7.843 -1.0852  2.3833 -0.5469
   97MOL   H39946671   7.185   5.573   0.117  1.3928 -0.7760  2.9775
   97MOL   H40046672   7.473   5.475   0.063  1.2180 -0.5282  2.3780
   97MOL   H40146673   7.412   5.514   0.217 -2.1265 -1.9795 -0.7023
   97MOL   H40246674   7.369   5.749   0.151  0.6990 -0.1752  1.5335
   97MOL   H40346675   7.410   5.707   7.858  1.4644  0.1590 -0.4567
   97MOL   H40446676   7.623   5.701   0.216 -0.5427  0.9382  0.8197
   97MOL   H40546677   7.646   5.636   0.068  0.2916  0.2914  0.5473
   97MOL   H40646678   7.688   6.098   0.026  0.5525  0.6615 -0.6214
   97MOL   H40746679   7.857   6.056   0.022 -0.7589  1.0921  0.2472
   97MOL   H40846680   7.692   6.139   0.244  0.9893  0.2138  3.7752
   97MOL   H40946681   7.758   5.984   0.277 -1.0097  0.8603  0.4812
   97MOL   O41046682   0.024   6.274   0.285 -0.2724  0.1325  0.6711
   97MOL   C41146683   0.133   6.358   0.316  0.2891 -0.1925 -0.4125
   97MOL   C41246684   0.116   6.505   0.276  0.1646  0.0986 -0.6365
   97MOL   C41346685   0.106   6.520   0.127  0.1474  0.7272  0.3290
   97MOL   C41446686   0.242   6.508   0.067  0.4766 -0.5648  0.3455
   97MOL   O41546687   0.286   6.379   0.055 -0.8335 -0.3669 -0.3868
   97MOL   C41646688   0.409   6.360   0.032 -0.5661 -0.1259 -0.5620
   97MOL   O41746689   0.497   6.446   0.033 -0.0944  0.3948  0.0698
   97MOL   C41846690   0.435   6.213   7.871  0.1877  0.2424  0.0136
   97MOL   C41946691   0.332   6.162   7.763  0.0819 -0.0458 -0.4938
   97MOL   C42046692   0.346   6.020   7.719 -0.2745 -0.4000  0.1508
   97MOL   O42146693   0.443   5.988   7.652 -0.1063  0.3154  0.2520
   97MOL   H42246694   0.150   6.354   0.423 -1.9370 -1.1389 -0.0638
   97MOL   H42346695   0.221   6.313   0.270  0.6235  0.8144 -0.7723
   97MOL   H42446696   0.201   6.553   0.323  0.5180  0.8603 -2.0244
   97MOL   H42546697   0.022   6.544   0.315  1.1036  0.7481  0.9596
   97MOL   H42646698   0.069   6.619   0.102 -0.6701  0.2886 -0.2571
   97MOL   H42746699   0.028   6.455   0.085 -0.1355  0.1132  1.7597
   97MOL   H42846700   0.238   6.549   7.840  0.6130  0.4666  0.7510
   97MOL   H42946701   0.312   6.571   0.121 -1.2256  2.0604 -0.4084
   97MOL   H43046702   0.425   6.147   0.083 -1.2541 -0.5231 -0.7320
   97MOL   H43146703   0.540   6.215   7.841 -0.4877 -0.7758 -2.5266
   97MOL   H43246704   0.235   6.179   7.811  0.5639 -0.2830  0.5788
   97MOL   H43346705   0.324   6.229   7.678 -0.3094  0.7569  0.1706
   97MOL   O43446706   0.264   5.940   7.787  0.2355  0.6602  0.0940
   97MOL   C43546707   0.271   5.801   7.771  0.0866 -0.2570  0.2293
   97MOL   C43646708   0.256   5.719   0.025 -0.2670 -0.0194 -0.0331
   97MOL   C43746709   0.217   5.575   0.002 -0.5791 -0.0549  0.0390
   97MOL   C43846710   0.123   5.512   0.110 -0.3364  0.5247 -0.8845
   97MOL   O43946711   0.100   5.376   0.077 -0.3226 -0.8314  0.0471
   97MOL   C44046712   0.191   5.277   0.096 -0.0513 -0.0471  0.1640
   97MOL   O44146713   0.309   5.292   0.129  0.6674  0.4977  0.0845
   97MOL   C44246714   0.131   5.136   0.069  0.4402  0.7669 -0.5979
   97MOL   C44346715   0.051   5.084   0.186  0.2984  0.6623  0.2197
   97MOL   C44446716   0.143   5.053   0.304 -0.2434 -0.0149 -1.1657
   97MOL   O44546717   0.187   4.942   0.325 -0.5257  0.1744 -0.4853
   97MOL   H44646718   0.181   5.775   7.714  0.8201 -1.8689 -0.2140
   97MOL   H44746719   0.364   5.769   7.725 -0.3816 -0.7857 -0.3617
   97MOL   H44846720   0.181   5.771   0.086  0.0666 -0.2549  0.5831
   97MOL   H44946721   0.340   5.722   0.094  1.2162  1.0688 -1.8490
   97MOL   H45046722   0.312   5.522   0.011 -0.7949 -0.1885  1.7157
   97MOL   H45146723   0.182   5.558   7.775 -1.2008  3.3511 -0.3669
   97MOL   H45246724   0.173   5.519   0.207  2.3935 -2.2791 -2.0011
   97MOL   H45346725   0.034   5.572   0.127 -1.0381 -0.8573  0.4485
   97MOL   H45446726   0.212   5.074   0.031 -0.1309  0.5008 -1.4127
   97MOL   H45546727   0.064   5.140   7.858 -0.4679  2.2707  0.1643
   97MOL   H45646728   7.839   5.145   0.214  0.5773  1.4637 -0.6469
   97MOL   H45746729   0.003   4.987   0.167  1.0397 -0.0495  1.9507
   97MOL   O45846730   0.154   5.159   0.388  0.2330  0.3125 -0.6298
   97MOL   C45946731   0.214   5.139   0.513 -0.3677 -0.8381  0.6417
   97MOL   C46046732   0.360   5.197   0.500  0.1453  0.4394 -0.1904
   97MOL   C46146733   0.371   5.347   0.455 -0.6755  0.0761  0.1756
   97MOL   C46246734   0.510   5.378   0.395 -0.7384 -0.8798  0.5061
   97MOL   O46346735   0.537   5.519   0.374  0.6522  0.3867  0.5592
   97MOL   C46446736   0.668   5.556   0.354 -0.0525 -0.5456  0.1515
   97MOL   O46546737   0.775   5.491   0.373  0.4316 -0.1799  0.0144
   97MOL   C46646738   0.680   5.706   0.310 -0.2184  0.2924 -0.1630
   97MOL   C46746739   0.571   5.738   0.207  0.0401 -0.1369  0.0064
   97MOL   C46846740   0.628   5.759   0.070  0.6505 -0.6231 -0.4725
   97MOL   O46946741   0.673   5.659   0.012  0.1962 -0.0334 -0.0522
   97MOL   H47046742   0.159   5.187   0.593 -0.9924  0.3169 -0.4570
   97MOL   H47146743   0.218   5.035   0.545  1.5935 -0.9567  0.1198
   97MOL   H47246744   0.412   5.133   0.429  0.2864 -0.3917  0.6610
   97MOL   H47346745   0.419   5.193   0.591 -0.9833  1.2321  0.5872
   97MOL   H47446746   0.361   5.405   0.547 -0.6445  1.1030 -0.4621
   97MOL   H47546747   0.293   5.394   0.395 -0.7760  0.1651  0.3763
   97MOL   H47646748   0.581   5.343   0.470 -0.9617 -0.0733  1.1011
   97MOL   H47746749   0.516   5.341   0.293 -0.4538  0.6074 -0.0260
   97MOL   H47846750   0.779   5.727   0.271  1.1459 -1.0009  2.5039
   97MOL   H47946751   0.651   5.764   0.398  1.3364  0.6157  0.1501
   97MOL   H48046752   0.503   5.653   0.195 -1.4102  1.2106 -1.5644
   97MOL   H48146753   0.522   5.833   0.225  1.8249  1.1846 -1.8418
   97MOL   H48246754   0.599   5.852   0.022 -0.3290 -1.2605 -1.1269
   98MOL     O146755   1.908   4.633   0.126 -0.1627  0.5315 -0.2075
   98MOL     C246756   1.778   4.659   0.085  0.0433 -0.4257  0.1167
   98MOL     C346757   1.751   4.604   7.822  0.1372  0.8680 -0.3663
   98MOL     C446758   1.833   4.662   7.703  0.1339 -0.8101  0.0207
   98MOL     C546759   1.951   4.569   7.676  0.0047 -0.0293  0.5203
   98MOL     O646760   1.908   4.442   7.622  0.2315 -0.5086  0.2623
   98MOL     C746761   1.992   4.368   7.543 -0.4688  0.5835  0.7009
   98MOL     O846762   2.103   4.402   7.506 -0.6245 -0.1643 -0.4193
   98MOL     C946763   1.934   4.239   7.500 -0.3744  0.3074 -0.4301
   98MOL    C1046764   1.842   4.245   7.370 -0.8311  0.4856  0.1763
   98MOL    C1146765   1.737   4.135   7.367  0.0449 -0.3591 -0.8114
   98MOL    O1246766   1.711   4.073   7.470 -0.7435  0.1097  1.6269
   98MOL    H1346767   1.712   4.603   0.152  0.8200  0.1865  1.3958
   98MOL    H1446768   1.744   4.761   0.102  0.7899 -0.1262 -0.1840
   98MOL    H1546769   1.646   4.626   7.803 -0.0279  0.0653 -0.4165
   98MOL    H1646770   1.755   4.495   7.823 -0.7396  0.8178 -1.3392
   98MOL    H1746771   1.859   4.761   7.739 -1.9065 -0.2690  0.1006
   98MOL    H1846772   1.787   4.692   7.609  1.2291  2.8803  0.5865
   98MOL    H1946773   2.018   4.612   7.602  0.1734 -1.2412 -0.0327
   98MOL    H2046774   2.012   4.554   7.765  1.7376  2.0987 -0.2693
   98MOL    H2146775   1.873   4.213   7.587  0.7476  0.6031  0.4532
   98MOL    H2246776   2.006   4.157   7.500  0.3121  0.8508  2.0615
   98MOL    H2346777   1.799   4.344   7.351  0.7017  0.7556 -2.2613
   98MOL    H2446778   1.909   4.228   7.285 -2.4983 -1.0474 -0.8516
   98MOL    H2546779   1.927   4.542   0.107 -1.0199 -0.0891  1.7439
   98MOL    O2646780   1.681   4.109   7.249  0.1392  0.4539 -0.0365
   98MOL    C2746781   1.580   4.004   7.250 -0.7093  0.1251  0.3879
   98MOL    C2846782   1.485   4.065   7.139 -0.1065 -0.3065 -0.3070
   98MOL    C2946783   1.363   3.979   7.112 -0.1203 -0.1598  0.4138
   98MOL    C3046784   1.267   4.045   7.019 -0.0774 -0.4971  0.3512
   98MOL    O3146785   1.317   4.068   6.893 -0.3680 -0.6047  0.9210
   98MOL    C3246786   1.240   4.089   6.787 -0.6444 -0.4145  0.4021
   98MOL    O3346787   1.114   4.101   6.793 -0.1730 -0.5829  0.5663
   98MOL    C3446788   1.325   4.122   6.662 -0.2020  0.1486  0.4073
   98MOL    C3546789   1.451   4.031   6.631  0.0580  0.0887  1.1959
   98MOL    C3646790   1.578   4.107   6.662 -0.3886  0.1333  0.5951
   98MOL    O3746791   1.664   4.134   6.580 -0.2659  0.0361  0.1345
   98MOL    H3846792   1.606   3.908   7.206 -1.2444 -1.0551  2.5853
   98MOL    H3946793   1.527   4.001   7.346  0.3311 -1.6832  0.9088
   98MOL    H4046794   1.549   4.068   7.051 -1.2678 -1.3644 -1.2018
   98MOL    H4146795   1.456   4.168   7.159 -2.2552 -1.0811  0.7364
   98MOL    H4246796   1.309   3.960   7.204  0.4356  1.2092  1.0309
   98MOL    H4346797   1.397   3.892   7.056 -0.1575 -0.4113  0.7842
   98MOL    H4446798   1.170   3.995   7.012  0.5125 -1.4515 -1.4410
   98MOL    H4546799   1.237   4.138   7.067 -1.5300 -1.4030  1.2386
   98MOL    H4646800   1.363   4.224   6.654  1.0103 -0.4625 -2.0614
   98MOL    H4746801   1.266   4.107   6.572 -1.3198  1.7798  0.8381
   98MOL    H4846802   1.436   3.946   6.698 -0.2336  0.0075  1.0316
   98MOL    H4946803   1.453   3.990   6.529  0.4184 -1.5539  1.8367
   98MOL    O5046804   1.577   4.160   6.789  0.1985  0.2135  0.6740
   98MOL    C5146805   1.682   4.246   6.832  0.0082 -0.3573  0.4743
   98MOL    C5246806   1.801   4.162   6.871  0.0691  0.0680 -0.8170
   98MOL    C5346807   1.881   4.214   6.990  0.4366  0.3078  0.0407
   98MOL    C5446808   1.977   4.105   7.032 -0.3011  0.2256  0.4338
   98MOL    O5546809   2.069   4.062   6.933 -0.4187  0.7322  0.4946
   98MOL    C5646810   2.162   4.156   6.889  0.1127  0.0895 -0.0952
   98MOL    O5746811   2.189   4.268   6.941  0.2366  0.9819 -0.1193
   98MOL    C5846812   2.220   4.112   6.757  0.7853  0.0930  0.2290
   98MOL    C5946813   2.332   4.202   6.704 -0.0583 -0.1430  0.0879
   98MOL    C6046814   2.469   4.147   6.748 -0.5527 -0.1814  0.0421
   98MOL    O6146815   2.481   4.091   6.856 -0.2193 -0.1607  0.2571
   98MOL    H6246816   1.697   4.329   6.764 -0.1667  1.7025  2.8808
   98MOL    H6346817   1.634   4.292   6.918 -2.1853 -1.2589 -0.2470
   98MOL    H6446818   1.867   4.144   6.787 -1.4716 -2.8321 -1.4828
   98MOL    H6546819   1.767   4.064   6.907 -0.1019  0.8901  1.3432
   98MOL    H6646820   1.816   4.236   7.075 -0.3451 -1.1874 -0.1441
   98MOL    H6746821   1.938   4.306   6.980  0.5613  0.0507 -1.7246
   98MOL    H6846822   2.024   4.136   7.125  0.5742 -4.0090  1.5432
   98MOL    H6946823   1.923   4.013   7.056  2.5463 -1.4559  0.6509
   98MOL    H7046824   2.142   4.100   6.681  0.9774 -2.6236  0.4227
   98MOL    H7146825   2.264   4.017   6.784 -4.9203 -2.6410  0.7106
   98MOL    H7246826   2.323   4.207   6.596 -1.1594 -0.3735  0.1632
   98MOL    H7346827   2.304   4.304   6.732  0.1817  0.4637 -1.8007
   98MOL    O7446828   2.569   4.178   6.675  0.7189  0.9638 -0.8974
   98MOL    C7546829   2.695   4.127   6.698 -0.3506 -0.2505  0.4995
   98MOL    C7646830   2.804   4.218   6.650  0.5576 -0.7120  0.6461
   98MOL    C7746831   2.794   4.354   6.725  0.2176  0.0347  0.6021
   98MOL    C7846832   2.929   4.441   6.721  0.4637  0.1983  0.1963
   98MOL    O7946833   3.031   4.379   6.806  0.0962  0.4293  0.5979
   98MOL    C8046834   3.140   4.319   6.755  0.2389 -0.8065 -0.4279
   98MOL    O8146835   3.162   4.298   6.636  0.5171  0.0851  0.3373
   98MOL    C8246836   3.246   4.305   6.859 -0.7314  0.8188  0.5513
   98MOL    C8346837   3.349   4.198   6.814 -0.0017 -0.0795 -0.4945
   98MOL    C8446838   3.299   4.059   6.829 -1.0073  0.5819  0.3894
   98MOL    O8546839   3.229   4.019   6.927 -0.6861 -0.1155  0.1800
   98MOL    H8646840   2.724   4.106   6.801 -0.3796 -0.4688  0.4633
   98MOL    H8746841   2.709   4.036   6.639  1.5625 -0.5813  1.4112
   98MOL    H8846842   2.796   4.231   6.542  0.0732  2.0362  0.9960
   98MOL    H8946843   2.907   4.184   6.665  1.1704  0.1738 -1.3410
   98MOL    H9046844   2.771   4.350   6.832  2.4273  0.8559  1.1295
   98MOL    H9146845   2.713   4.413   6.681 -0.6212  0.8465  3.1171
   98MOL    H9246846   2.966   4.444   6.619  0.8425 -0.6000  0.3034
   98MOL    H9346847   2.904   4.539   6.760 -2.0377 -0.5557  0.6143
   98MOL    H9446848   3.201   4.272   6.953  0.8977 -4.5128 -0.4102
   98MOL    H9546849   3.287   4.402   6.887  1.6119  0.2303 -0.7049
   98MOL    H9646850   3.374   4.215   6.709  1.4276  0.9689 -0.0097
   98MOL    H9746851   3.443   4.207   6.869 -1.0752  1.1507  1.2024
   98MOL    O9846852   3.363   3.975   6.738  0.0425 -0.4860 -0.1366
   98MOL    C9946853   3.356   3.837   6.742  0.4149 -0.1224  0.0274
   98MOL   C10046854   3.469   3.782   6.828  0.0809  0.3889  0.8849
   98MOL   C10146855   3.594   3.777   6.743 -0.1461  0.0632  0.4532
   98MOL   C10246856   3.723   3.743   6.824  0.5096  1.0532 -0.7622
   98MOL   O10346857   3.843   3.762   6.749  0.4922  0.0125 -0.5655
   98MOL   C10446858   3.892   3.659   6.678 -0.4028 -0.4791  0.7657
   98MOL   O10546859   3.840   3.551   6.672  0.3403 -0.2518 -0.4335
   98MOL   C10646860   4.033   3.680   6.627 -0.0384 -0.8244 -0.4241
   98MOL   C10746861   4.072   3.609   6.495 -0.0293 -1.0699 -0.2328
   98MOL   C10846862   4.220   3.557   6.500  0.0733 -0.1699  0.3613
   98MOL   O10946863   4.294   3.583   6.592 -0.1094  0.4438  0.2382
   98MOL   H11046864   3.261   3.812   6.790 -0.6603 -1.0865 -2.5249
   98MOL   H11146865   3.352   3.784   6.647  1.6254  1.2975 -0.8271
   98MOL   H11246866   3.426   3.688   6.864 -0.5874  1.0485  1.8444
   98MOL   H11346867   3.487   3.840   6.918 -0.5534  1.2964  0.4405
   98MOL   H11446868   3.598   3.866   6.681 -1.0826 -0.3212 -0.1603
   98MOL   H11546869   3.576   3.697   6.670  0.5195  0.1895  0.1473
   98MOL   H11646870   3.732   3.815   6.904  1.2107 -0.5273  0.6050
   98MOL   H11746871   3.730   3.642   6.864 -2.2503  1.6001  1.3006
   98MOL   H11846872   4.101   3.663   6.710 -0.1071 -0.2598 -0.2454
   98MOL   H11946873   4.050   3.787   6.619 -2.1834 -0.2873  1.6696
   98MOL   H12046874   4.001   3.529   6.474 -1.3052 -0.6060  2.1787
   98MOL   H12146875   4.069   3.677   6.410  3.2738  1.6783  1.7242
   98MOL   O12246876   4.263   3.493   6.387  0.3072  0.5711  0.2538
   98MOL   C12346877   4.393   3.446   6.367  0.2221 -1.0103 -0.2704
   98MOL   C12446878   4.410   3.305   6.426  0.0459 -0.2046  0.0519
   98MOL   C12546879   4.540   3.233   6.375  0.2802  0.2559  0.0817
   98MOL   C12646880   4.532   3.077   6.371 -0.3774  0.1268  0.0180
   98MOL   O12746881   4.475   3.016   6.488  0.1916  0.0946  0.0167
   98MOL   C12846882   4.472   2.884   6.495  0.1595 -0.0890  0.0447
   98MOL   O12946883   4.520   2.805   6.411  0.1616 -0.0899 -0.7411
   98MOL   C13046884   4.408   2.841   6.626 -0.5430 -0.1494  1.1848
   98MOL   C13146885   4.452   2.706   6.683 -0.5542 -0.5785  0.2014
   98MOL   C13246886   4.344   2.594   6.673 -0.8805 -0.2673  0.0526
   98MOL   O13346887   4.238   2.618   6.619 -0.6490 -0.8590 -0.4276
   98MOL   H13446888   4.406   3.438   6.259 -0.0932  0.8753 -0.4694
   98MOL   H13546889   4.472   3.513   6.401  0.9631 -0.8754 -2.2285
   98MOL   H13646890   4.329   3.242   6.388 -0.6253  0.6034  0.1327
   98MOL   H13746891   4.376   3.312   6.529  2.7011  0.6268  0.9017
   98MOL   H13846892   4.637   3.264   6.415  0.2855  0.6783 -0.2515
   98MOL   H13946893   4.565   3.273   6.277  0.0914  2.0751  0.7408
   98MOL   H14046894   4.466   3.052   6.289  0.2336  0.6098 -0.6297
   98MOL   H14146895   4.634   3.039   6.370  0.6033  2.4592  2.6255
   98MOL   H14246896   4.299   2.843   6.619 -0.4235  0.8831 -0.5070
   98MOL   H14346897   4.441   2.920   6.693 -1.1551  1.0183  0.1239
   98MOL   H14446898   4.547   2.677   6.638  0.7801 -0.4713  2.8774
   98MOL   H14546899   4.474   2.715   6.789 -0.2421  1.2044 -0.0025
   98MOL   O14646900   4.379   2.484   6.734  0.9560  0.3141  0.0178
   98MOL   C14746901   4.280   2.387   6.751  0.3654 -0.7518  0.7137
   98MOL   C14846902   4.333   2.257   6.814  0.1195 -0.3148  0.1655
   98MOL   C14946903   4.429   2.176   6.729  0.0754  0.0602  0.3952
   98MOL   C15046904   4.442   2.035   6.788 -0.1706 -0.0714 -0.6092
   98MOL   O15146905   4.502   2.045   6.915  0.2825 -0.2257 -0.1905
   98MOL   C15246906   4.460   1.969   7.016  0.0298 -0.3900  0.0836
   98MOL   O15346907   4.375   1.887   7.007 -0.2037  0.1916  0.0625
   98MOL   C15446908   4.520   1.997   7.153  0.6740  0.6895  0.5599
   98MOL   C15546909   4.480   2.133   7.204  0.1600  0.1228 -0.2421
   98MOL   C15646910   4.607   2.221   7.226  0.1927  0.4595 -0.1684
   98MOL   O15746911   4.686   2.187   7.317  0.0286  0.2385  0.1345
   98MOL   H15846912   4.208   2.428   6.822  0.8261  2.3939 -0.5681
   98MOL   H15946913   4.239   2.368   6.652 -0.5803  1.1712  0.7101
   98MOL   H16046914   4.247   2.194   6.833 -0.7621  0.5449 -0.8588
   98MOL   H16146915   4.372   2.282   6.912 -0.7282 -0.4652  0.5417
   98MOL   H16246916   4.518   2.239   6.720  0.1153 -0.0657 -0.1247
   98MOL   H16346917   4.387   2.159   6.630 -0.9426 -0.3515  0.8993
   98MOL   H16446918   4.344   1.987   6.798  0.9747 -2.7068 -1.4367
   98MOL   H16546919   4.495   1.966   6.722  1.3655  1.6502 -1.2206
   98MOL   H16646920   4.625   1.984   7.127  0.2472  0.5698 -1.2011
   98MOL   H16746921   4.496   1.926   7.232 -1.0503 -0.4975 -0.9806
   98MOL   H16846922   4.409   2.180   7.136  0.4820 -0.2938 -0.8619
   98MOL   H16946923   4.421   2.124   7.296 -1.1244 -0.6415 -1.1179
   98MOL   O17046924   4.619   2.324   7.140 -0.6255  0.8767 -0.1550
   98MOL   C17146925   4.748   2.378   7.126  0.4074  0.7398  0.4819
   98MOL   C17246926   4.747   2.466   6.996  0.6268 -0.3096  0.3308
   98MOL   C17346927   4.723   2.389   6.864  0.3106 -0.2074 -0.5076
   98MOL   C17446928   4.845   2.304   6.831 -0.3748  0.2507  0.2149
   98MOL   O17546929   4.956   2.394   6.804  0.3169  0.2196  0.1293
   98MOL   C17646930   5.057   2.359   6.724 -0.4491 -0.5115 -0.0880
   98MOL   O17746931   5.081   2.245   6.687  0.0740  0.1032  0.8804
   98MOL   C17846932   5.146   2.479   6.678 -0.1110 -0.0098  0.2564
   98MOL   C17946933   5.191   2.465   6.536 -0.2387  1.3522 -0.3381
   98MOL   C18046934   5.282   2.580   6.499  0.3707  0.2524 -0.0836
   98MOL   O18146935   5.356   2.642   6.580  0.7219  0.1566  0.2155
   98MOL   H18246936   4.782   2.438   7.210  2.4875 -1.1521  1.0631
   98MOL   H18346937   4.827   2.303   7.117  1.7160  1.9713  1.5523
   98MOL   H18446938   4.840   2.522   7.006  0.0102  0.8999 -0.6973
   98MOL   H18546939   4.659   2.529   7.002  1.6595  1.3723 -1.6962
   98MOL   H18646940   4.686   2.452   6.783 -0.5588  0.8320  0.6636
   98MOL   H18746941   4.640   2.321   6.885 -0.4372  0.1494 -2.2008
   98MOL   H18846942   4.886   2.242   6.911  1.3725  0.9373 -0.1394
   98MOL   H18946943   4.826   2.242   6.744 -2.3445  0.9432  0.1119
   98MOL   H19046944   5.238   2.479   6.738 -1.2221 -1.0805  1.9926
   98MOL   H19146945   5.100   2.577   6.689 -1.0505 -0.4631  0.3438
   98MOL   H19246946   5.237   2.368   6.518 -0.1404  1.4702 -0.7214
   98MOL   H19346947   5.103   2.467   6.473 -0.3507 -1.2794 -0.2994
   98MOL   O19446948   5.264   2.621   6.378 -0.2378 -0.3236 -0.3259
   98MOL   C19546949   5.287   2.757   6.342 -0.1475  0.1957 -0.5370
   98MOL   C19646950   5.263   2.771   6.188  0.0453  1.2511 -0.0520
   98MOL   C19746951   5.384   2.724   6.110  0.4331  0.5189  0.3087
   98MOL   C19846952   5.414   2.573   6.119 -0.2658  0.3167 -0.2231
   98MOL   O19946953   5.514   2.540   6.018  0.0577 -0.6570 -0.0510
   98MOL   C20046954   5.483   2.532   5.888 -0.0145 -0.3344  0.6915
   98MOL   O20146955   5.378   2.552   5.834  0.6847  0.1021  0.8165
   98MOL   C20246956   5.611   2.523   5.805  0.5033 -0.0469  0.2635
   98MOL   C20346957   5.705   2.645   5.828  0.0575 -0.0620  0.2444
   98MOL   C20446958   5.824   2.613   5.917  0.6289  0.0763  1.0908
   98MOL   O20546959   5.917   2.540   5.884 -0.0824 -0.4749 -0.5884
   98MOL   H20646960   5.238   2.827   6.410 -0.8206 -1.4021  0.6732
   98MOL   H20746961   5.392   2.776   6.367 -0.5829 -0.5906  2.0831
   98MOL   H20846962   5.240   2.875   6.165 -2.4997  0.6121 -0.5170
   98MOL   H20946963   5.175   2.719   6.150 -0.2827  0.7875  1.3124
   98MOL   H21046964   5.475   2.775   6.141 -0.0324  0.8850  1.0916
   98MOL   H21146965   5.368   2.754   6.006 -4.7337 -1.7269  0.2943
   98MOL   H21246966   5.456   2.540   6.214 -0.5108  0.8320  0.0670
   98MOL   H21346967   5.319   2.524   6.102 -0.4123  0.4879  0.1029
   98MOL   H21446968   5.581   2.506   5.701  2.6539 -1.2178 -0.2007
   98MOL   H21546969   5.659   2.429   5.833  0.0577 -0.4203 -0.2040
   98MOL   H21646970   5.736   2.684   5.731 -0.2772 -1.9838 -0.6672
   98MOL   H21746971   5.645   2.727   5.867 -2.4667 -0.6606 -2.2068
   98MOL   O21846972   5.825   2.684   6.034 -0.0298  0.3396  0.2359
   98MOL   C21946973   5.926   2.652   6.130 -0.4771 -0.1725  0.2986
   98MOL   C22046974   5.865   2.573   6.247 -0.9439 -0.0787 -0.1481
   98MOL   C22146975   5.750   2.644   6.312 -0.1469 -0.2292 -0.1116
   98MOL   C22246976   5.789   2.780   6.380 -0.4877  0.2992  0.2587
   98MOL   O22346977   5.794   2.879   6.277 -0.2509 -0.1042  0.6403
   98MOL   C22446978   5.684   2.954   6.247  1.0400  0.5726 -0.1667
   98MOL   O22546979   5.580   2.938   6.308 -0.3732  0.0815 -0.7471
   98MOL   C22646980   5.704   3.057   6.141 -0.0761  0.8655  0.0492
   98MOL   C22746981   5.572   3.131   6.108 -0.4511  0.7704  0.0629
   98MOL   C22846982   5.515   3.069   5.978  0.5180 -0.0735  0.0703
   98MOL   O22946983   5.552   2.962   5.934 -0.5130  0.3563 -0.3775
   98MOL   H23046984   6.023   2.611   6.101 -0.8092 -3.2329  3.1226
   98MOL   H23146985   5.954   2.751   6.166 -3.5825  0.5430  0.9063
   98MOL   H23246986   5.943   2.555   6.321 -1.0682  3.5526  0.9942
   98MOL   H23346987   5.825   2.478   6.213 -0.2484  0.0062 -1.2127
   98MOL   H23446988   5.721   2.579   6.395 -0.4467 -1.4995 -1.1912
   98MOL   H23546989   5.665   2.656   6.245 -0.5431  1.8021  0.7194
   98MOL   H23646990   5.722   2.809   6.461 -1.4899 -0.3104 -0.3620
   98MOL   H23746991   5.887   2.777   6.429 -0.6411  0.5182  0.5861
   98MOL   H23846992   5.754   3.012   6.056  0.5287  1.2397  0.2018
   98MOL   H23946993   5.769   3.123   6.198  1.1853 -2.2002  2.2946
   98MOL   H24046994   5.497   3.114   6.185 -0.8874 -2.4505 -0.9855
   98MOL   H24146995   5.591   3.239   6.110  1.0168  0.5272 -0.5890
   98MOL   O24246996   5.416   3.149   5.926  0.4804  0.2463  0.2718
   98MOL   C24346997   5.350   3.106   5.808 -0.5868  0.3862  0.7040
   98MOL   C24446998   5.246   2.990   5.838  0.4682 -0.5691 -0.5871
   98MOL   C24546999   5.263   2.859   5.759  0.4196 -0.2106 -0.0836
   98MOL   C24647000   5.150   2.754   5.775  0.0641  0.2638 -0.6689
   98MOL   O24747001   5.025   2.809   5.733  0.6585 -0.3291  0.2591
   98MOL   C24847002   4.919   2.733   5.704  0.1342 -0.0841  0.2535
   98MOL   O24947003   4.919   2.609   5.697 -0.2274  0.1360  0.5293
   98MOL   C25047004   4.792   2.822   5.688  0.1916  0.2692 -0.4572
   98MOL   C25147005   4.663   2.738   5.700  0.0615  0.3253  0.5659
   98MOL   C25247006   4.632   2.724   5.846  0.6650  0.2790 -0.1182
   98MOL   O25347007   4.612   2.611   5.892 -0.3133 -0.3570  0.1528
   98MOL   H25447008   5.302   3.193   5.765  1.6533  1.6030  0.6013
   98MOL   H25547009   5.436   3.080   5.746 -0.0889 -0.5253  1.7564
   98MOL   H25647010   5.147   3.031   5.818  1.2756  2.2216  0.9089
   98MOL   H25747011   5.238   2.963   5.943 -1.8034 -0.6196 -0.7392
   98MOL   H25847012   5.355   2.815   5.795  0.7678 -0.1024 -0.8249
   98MOL   H25947013   5.268   2.881   5.652 -1.2289  1.8488  0.2140
   98MOL   H26047014   5.178   2.663   5.724  2.4684  0.4525  0.2135
   98MOL   H26147015   5.153   2.733   5.882  0.7085 -1.0169 -0.9328
   98MOL   H26247016   4.800   2.873   5.592 -1.7191  0.7117 -0.3996
   98MOL   H26347017   4.795   2.906   5.757 -1.1232  0.1151 -0.1924
   98MOL   H26447018   4.572   2.778   5.655 -0.5843 -4.6039 -2.8971
   98MOL   H26547019   4.681   2.644   5.649  1.8814 -0.1554  2.0332
   98MOL   O26647020   4.634   2.846   5.910  0.0675  0.5520  0.5125
   98MOL   C26747021   4.604   2.868   6.044 -0.3175  0.3514 -0.2442
   98MOL   C26847022   4.719   2.824   6.129 -0.4621  0.1619 -0.6064
   98MOL   C26947023   4.857   2.862   6.095  0.6398 -0.0540 -0.5241
   98MOL   C27047024   4.892   3.008   6.145  0.0700  0.7080 -0.1930
   98MOL   O27147025   4.820   3.104   6.069  0.2614 -0.7561 -0.6428
   98MOL   C27247026   4.888   3.173   5.980  0.6308  0.7266 -0.1415
   98MOL   O27347027   5.007   3.175   5.964 -0.2458 -0.4153  0.1329
   98MOL   C27447028   4.791   3.245   5.893 -0.3174 -0.5006  0.1281
   98MOL   C27547029   4.740   3.368   5.968 -1.0963 -0.2699  0.8565
   98MOL   C27647030   4.595   3.381   5.949 -0.4389  0.4391 -0.1726
   98MOL   O27747031   4.507   3.361   6.032 -0.2334 -0.1380  0.0020
   98MOL   H27847032   4.588   2.975   6.049  0.6508  0.6162 -2.1202
   98MOL   H27947033   4.505   2.829   6.068 -0.5994  0.5416 -1.0846
   98MOL   H28047034   4.712   2.716   6.132  0.8457  0.1165  1.2722
   98MOL   H28147035   4.712   2.834   6.237  2.3074 -2.6042 -0.0980
   98MOL   H28247036   4.876   2.843   5.989 -1.1782  2.5807 -1.4071
   98MOL   H28347037   4.920   2.793   6.151  1.0392  1.1714  0.5592
   98MOL   H28447038   4.868   3.033   6.248  0.5755  0.5823 -0.0409
   98MOL   H28547039   5.001   3.011   6.137  0.1951  0.0648  1.1678
   98MOL   H28647040   4.720   3.164   5.878  2.1150 -2.8004  0.4894
   98MOL   H28747041   4.832   3.274   5.796 -1.1840 -0.9313 -0.3682
   98MOL   H28847042   4.752   3.364   6.076  0.8287 -0.1834  0.6615
   98MOL   H28947043   4.801   3.451   5.930  0.4127 -1.0131  1.6146
   98MOL   O29047044   4.570   3.413   5.826  0.3909  0.2900 -0.7707
   98MOL   C29147045   4.438   3.449   5.792  0.5918 -0.6353 -0.8340
   98MOL   C29247046   4.438   3.503   5.645 -0.1424 -0.0373  0.1625
   98MOL   C29347047   4.312   3.577   5.613 -0.2952  0.0645  0.4217
   98MOL   C29447048   4.182   3.501   5.651 -0.7686  0.3808  0.1469
   98MOL   O29547049   4.063   3.564   5.607  0.3984 -0.8146 -0.2470
   98MOL   C29647050   4.012   3.670   5.673 -0.9628 -0.1269 -0.8703
   98MOL   O29747051   4.061   3.735   5.766 -1.0227  0.3205 -0.3367
   98MOL   C29847052   3.877   3.703   5.612 -0.5345  0.1450 -0.3334
   98MOL   C29947053   3.762   3.603   5.648  0.0231  0.1289  0.7455
   98MOL   C30047054   3.667   3.662   5.755  0.2748 -0.3245 -0.4167
   98MOL   O30147055   3.550   3.693   5.724  0.3199  0.5293 -0.3722
   98MOL   H30247056   4.364   3.373   5.815  2.8454 -1.9337  2.4080
   98MOL   H30347057   4.417   3.533   5.858  1.2111 -0.3835 -0.9502
   98MOL   H30447058   4.443   3.407   5.594 -2.3992  0.3605 -0.8565
   98MOL   H30547059   4.525   3.564   5.621 -0.8292  0.7603 -0.3326
   98MOL   H30647060   4.307   3.589   5.505 -3.4948  0.3103  0.5527
   98MOL   H30747061   4.322   3.676   5.656 -3.8337 -0.4629  2.6356
   98MOL   H30847062   4.196   3.416   5.584 -0.7477 -0.7343  1.5534
   98MOL   H30947063   4.177   3.462   5.752  0.2450 -0.8695 -0.2689
   98MOL   H31047064   3.886   3.699   5.504  1.8859  0.6633 -0.1816
   98MOL   H31147065   3.847   3.804   5.643  3.7388  1.3853  0.1067
   98MOL   H31247066   3.696   3.581   5.564  2.0049  1.7415 -1.3293
   98MOL   H31347067   3.803   3.507   5.677 -0.5820 -0.5296 -0.5109
   98MOL   O31447068   3.732   3.674   5.870  0.0990  0.0668 -0.0561
   98MOL   C31547069   3.671   3.730   5.986  0.5687 -0.0118  0.2933
   98MOL   C31647070   3.700   3.887   5.995  0.2461  0.3944 -0.0169
   98MOL   C31747071   3.845   3.932   6.027 -0.0110  0.7538  0.3934
   98MOL   C31847072   3.900   3.886   6.170  0.0524 -0.4515  0.4116
   98MOL   O31947073   4.030   3.937   6.186  0.6522 -0.0214  0.5856
   98MOL   C32047074   4.086   3.945   6.313 -0.1386  0.3761  0.1053
   98MOL   O32147075   4.022   3.926   6.414  0.5716  0.3022  0.1983
   98MOL   C32247076   4.236   3.978   6.308 -0.1425 -0.0008 -0.2358
   98MOL   C32347077   4.312   3.952   6.437 -0.5919  0.8152 -0.4403
   98MOL   C32447078   4.461   3.975   6.423 -0.6529  0.3890 -0.1239
   98MOL   O32547079   4.522   4.060   6.483 -0.0650 -0.4330 -0.0719
   98MOL   H32647080   3.564   3.714   5.999  0.3063  0.8102 -0.7862
   98MOL   H32747081   3.709   3.671   6.069  0.1104  1.4441  1.5590
   98MOL   H32847082   3.632   3.931   6.068 -0.8613 -1.9910  0.4301
   98MOL   H32947083   3.669   3.927   5.898  1.2584  1.3105  0.0370
   98MOL   H33047084   3.836   4.040   6.018  0.5014  0.8197  0.6923
   98MOL   H33147085   3.915   3.899   5.950  0.5611  2.3465  0.2113
   98MOL   H33247086   3.830   3.920   6.247  0.1405  1.0259 -0.1507
   98MOL   H33347087   3.900   3.778   6.182 -1.7420 -0.5024  0.1385
   98MOL   H33447088   4.258   4.078   6.272 -1.1453 -0.0974 -1.1503
   98MOL   H33547089   4.271   3.918   6.224 -1.2291 -0.1357 -0.6111
   98MOL   H33647090   4.273   4.005   6.524 -0.6981  2.3190 -1.3850
   98MOL   H33747091   4.302   3.852   6.479 -2.8865  1.4879  0.6975
   98MOL   O33847092   4.515   3.877   6.344  0.3635  0.1331 -0.2114
   98MOL   C33947093   4.657   3.868   6.328  0.4004  0.0334 -0.4495
   98MOL   C34047094   4.710   3.732   6.292 -0.8390 -0.0571 -0.3352
   98MOL   C34147095   4.857   3.745   6.263 -0.6776 -0.8246  0.6445
   98MOL   C34247096   4.927   3.624   6.195 -0.4539 -0.3481  0.2330
   98MOL   O34347097   4.981   3.549   6.303  0.3412 -0.0544  0.1959
   98MOL   C34447098   4.911   3.464   6.378  0.9700  0.1621 -0.4833
   98MOL   O34547099   4.797   3.435   6.354  0.1001 -0.7233  0.4335
   98MOL   C34647100   4.976   3.418   6.514  0.1574 -0.1624  0.4395
   98MOL   C34747101   4.979   3.264   6.513 -0.1640  0.0619 -0.0943
   98MOL   C34847102   5.086   3.204   6.418 -0.5052 -0.2109  0.0878
   98MOL   O34947103   5.088   3.083   6.388 -0.1552  0.2512 -0.6058
   98MOL   H35047104   4.670   3.947   6.254 -0.7005  2.1157  1.4959
   98MOL   H35147105   4.701   3.885   6.426 -0.1438 -0.8807 -0.0386
   98MOL   H35247106   4.655   3.689   6.208  0.5728  0.0913 -1.3493
   98MOL   H35347107   4.686   3.652   6.362 -1.2084 -1.3675 -1.9425
   98MOL   H35447108   4.913   3.785   6.347 -2.6328  0.4296  1.3795
   98MOL   H35547109   4.862   3.820   6.184  0.1172 -1.8847 -0.3500
   98MOL   H35647110   4.873   3.561   6.124 -0.5135  0.4623 -0.4489
   98MOL   H35747111   5.011   3.664   6.139 -0.3250  0.7477  1.1768
   98MOL   H35847112   4.931   3.445   6.609 -0.2887 -1.4477  0.6031
   98MOL   H35947113   5.081   3.448   6.504  0.7056 -2.2109 -0.1769
   98MOL   H36047114   4.995   3.217   6.610 -1.8389  0.0593  0.1931
   98MOL   H36147115   4.883   3.224   6.481 -0.5338 -0.5206  1.6850
   98MOL   O36247116   5.166   3.298   6.365  0.6327  0.2940  0.8316
   98MOL   C36347117   5.260   3.263   6.262 -0.0496 -0.1911 -0.3474
   98MOL   C36447118   5.297   3.396   6.186  0.3765  0.5710 -0.9112
   98MOL   C36547119   5.204   3.407   6.057  0.7356  0.0497 -0.7371
   98MOL   C36647120   5.250   3.522   5.968  0.1415  0.1086  0.3818
   98MOL   O36747121   5.374   3.499   5.916 -0.5665  0.2455 -0.2859
   98MOL   C36847122   5.488   3.547   5.960 -0.0724  0.8523 -0.5951
   98MOL   O36947123   5.496   3.615   6.064  0.5132 -0.9445  0.3628
   98MOL   C37047124   5.610   3.522   5.868 -0.0667 -0.9368 -0.6132
   98MOL   C37147125   5.638   3.378   5.827  0.2955  0.8875  0.3326
   98MOL   C37247126   5.628   3.360   5.676 -0.1708  0.0471 -0.2938
   98MOL   O37347127   5.734   3.357   5.610  0.2947  0.5377 -0.1642
   98MOL   H37447128   5.347   3.226   6.316 -1.2636 -0.0845  1.7631
   98MOL   H37547129   5.218   3.190   6.193  0.0114  1.1452 -1.8221
   98MOL   H37647130   5.403   3.385   6.164  0.3786  0.0772 -0.6490
   98MOL   H37747131   5.284   3.485   6.249 -1.2130 -0.2926  0.0171
   98MOL   H37847132   5.098   3.414   6.081  0.5562 -0.8583 -1.2591
   98MOL   H37947133   5.206   3.312   6.004 -2.4340  0.2074 -1.1838
   98MOL   H38047134   5.192   3.511   5.877 -0.0642  1.8290  0.3021
   98MOL   H38147135   5.225   3.620   6.008  0.9610  1.5004 -2.4484
   98MOL   H38247136   5.701   3.563   5.912  0.4103 -0.1377 -2.3186
   98MOL   H38347137   5.588   3.589   5.785  0.2020  0.3248  0.3100
   98MOL   H38447138   5.731   3.342   5.871  0.2970 -0.5875 -0.8083
   98MOL   H38547139   5.562   3.319   5.879  0.0647  1.0616  0.1941
   98MOL   O38647140   5.509   3.369   5.635 -0.4083  0.5238  0.2380
   98MOL   C38747141   5.476   3.385   5.489 -0.4190 -0.2840  0.3083
   98MOL   C38847142   5.334   3.435   5.476 -0.0370 -0.1539  0.5569
   98MOL   C38947143   5.304   3.583   5.502 -0.9310 -0.1052  0.0007
   98MOL   C39047144   5.157   3.613   5.465 -0.4744  0.2887 -0.2583
   98MOL   O39147145   5.064   3.532   5.531 -0.3338 -0.2280  0.1833
   98MOL   C39247146   4.943   3.575   5.554 -0.2171  0.6304  0.6536
   98MOL   O39347147   4.896   3.677   5.502  0.9660  0.0885 -0.6818
   98MOL   C39447148   4.857   3.466   5.621  0.1204 -0.2134 -0.2845
   98MOL   C39547149   4.756   3.401   5.519 -1.0617  0.4801 -0.2796
   98MOL   C39647150   4.776   3.253   5.513  0.1366  0.3927 -0.5756
   98MOL   O39747151   4.706   3.178   5.570  0.2255  0.0616  0.1692
   98MOL   H39847152   5.546   3.460   5.452 -1.3078  1.3185  1.7999
   98MOL   H39947153   5.485   3.288   5.440 -0.1877 -0.0268 -0.1582
   98MOL   H40047154   5.276   3.388   5.556 -1.6287 -2.1045 -1.6872
   98MOL   H40147155   5.292   3.405   5.380  0.0262  1.4215  0.0248
   98MOL   H40247156   5.359   3.647   5.433 -0.8060 -0.1330  0.0730
   98MOL   H40347157   5.327   3.614   5.604 -0.7747  1.0167 -0.3654
   98MOL   H40447158   5.140   3.717   5.494 -2.7099 -1.1957  4.2116
   98MOL   H40547159   5.155   3.603   5.356  0.9219  0.4574 -0.3088
   98MOL   H40647160   4.797   3.509   5.701  1.9487 -2.1764  2.2330
   98MOL   H40747161   4.927   3.389   5.653  1.9293  1.9209  0.9766
   98MOL   H40847162   4.658   3.425   5.562 -0.7005  0.6012  0.4911
   98MOL   H40947163   4.769   3.444   5.420  0.6646  0.5943 -0.0210
   98MOL   O41047164   4.888   3.217   5.439 -0.0745 -0.5916 -0.2162
   98MOL   C41147165   4.918   3.080   5.420  0.2088  0.2145  0.1673
   98MOL   C41247166   5.051   3.044   5.492  0.0774 -0.0179  0.3019
   98MOL   C41347167   5.157   3.138   5.441  0.4076 -0.4621 -0.3035
   98MOL   C41447168   5.226   3.085   5.311 -0.3980 -0.1873 -0.4291
   98MOL   O41547169   5.325   3.172   5.268  0.0445  0.1157 -0.0992
   98MOL   C41647170   5.356   3.183   5.144  0.1400  0.3504  0.1827
   98MOL   O41747171   5.304   3.119   5.049 -0.9470 -0.0877 -0.3990
   98MOL   C41847172   5.490   3.262   5.122  0.3682  0.1618  0.5115
   98MOL   C41947173   5.607   3.168   5.137  0.3189  0.5822 -0.1876
   98MOL   C42047174   5.713   3.216   5.229  0.4369 -0.0385 -0.1681
   98MOL   O42147175   5.717   3.332   5.265 -0.7329  0.5768  0.4298
   98MOL   H42247176   4.845   3.013   5.465 -0.9798  0.1212 -1.8435
   98MOL   H42347177   4.931   3.057   5.315  0.9579 -2.2482  0.7656
   98MOL   H42447178   5.087   2.941   5.486 -0.9418 -0.2757 -1.9897
   98MOL   H42547179   5.041   3.050   5.600  1.2557  1.6686  0.3264
   98MOL   H42647180   5.238   3.135   5.513 -0.4385  0.3730  0.6847
   98MOL   H42747181   5.122   3.240   5.429 -0.0395 -0.6159 -0.3105
   98MOL   H42847182   5.277   2.995   5.347  0.9597 -0.0162 -1.9091
   98MOL   H42947183   5.163   3.048   5.230 -0.6303  2.1391 -1.3195
   98MOL   H43047184   5.492   3.336   5.202 -2.4066  0.4905  0.3377
   98MOL   H43147185   5.478   3.306   5.023  1.3753 -1.3810 -0.3194
   98MOL   H43247186   5.577   3.071   5.176  0.1804  0.3391 -0.8862
   98MOL   H43347187   5.649   3.135   5.041  1.7891  0.5480  0.4505
   98MOL   O43447188   5.807   3.122   5.241 -0.0160 -0.4854 -0.3485
   98MOL   C43547189   5.927   3.148   5.306 -0.2463  0.0311  0.4092
   98MOL   C43647190   6.047   3.178   5.207  0.1461 -0.0288 -0.3428
   98MOL   C43747191   6.167   3.233   5.282 -0.7219 -0.2787 -0.0031
   98MOL   C43847192   6.256   3.322   5.179  0.1783 -0.3520  0.1654
   98MOL   O43947193   6.294   3.247   5.063  0.3858 -0.2981  0.0402
   98MOL   C44047194   6.399   3.177   5.069 -0.1173 -0.3738 -0.4031
   98MOL   O44147195   6.458   3.139   5.170  0.2424  0.0948 -0.1050
   98MOL   C44247196   6.445   3.132   4.933  0.5473  0.0572  0.6234
   98MOL   C44347197   6.541   3.236   4.872  0.0462 -0.1198 -0.2664
   98MOL   C44447198   6.673   3.176   4.833  0.1210 -0.2011 -0.1253
   98MOL   O44547199   6.760   3.179   4.917 -0.8295 -0.6441  0.4850
   98MOL   H44647200   5.912   3.235   5.369 -0.9762 -0.5293  1.0199
   98MOL   H44747201   5.945   3.057   5.364  1.0970  0.8222  1.2414
   98MOL   H44847202   6.019   3.261   5.142  3.7169  0.2716 -1.5922
   98MOL   H44947203   6.073   3.092   5.146 -0.9993 -0.1147 -0.7210
   98MOL   H45047204   6.232   3.157   5.326  0.7743  2.4889  2.7271
   98MOL   H45147205   6.150   3.293   5.371  0.2511  1.1989 -0.7931
   98MOL   H45247206   6.189   3.392   5.129  1.3716  0.7545  0.1025
   98MOL   H45347207   6.333   3.383   5.225 -0.5143 -0.0074  0.8719
   98MOL   H45447208   6.363   3.114   4.864  1.3694  2.2634 -1.0022
   98MOL   H45547209   6.499   3.039   4.955 -0.6930 -0.4902  1.3630
   98MOL   H45647210   6.490   3.269   4.781  0.2179  0.4972 -0.1477
   98MOL   H45747211   6.556   3.328   4.929  3.0467 -1.0803  0.6036
   98MOL   O45847212   6.673   3.121   4.713  0.1025  0.9377  0.1040
   98MOL   C45947213   6.798   3.075   4.661 -0.8141  0.7836  0.5534
   98MOL   C46047214   6.818   3.102   4.514 -0.1037 -0.9961  0.3055
   98MOL   C46147215   6.814   3.259   4.475 -0.5892 -0.7120 -0.2063
   98MOL   C46247216   6.830   3.268   4.324  0.3942 -0.0170 -0.4629
   98MOL   O46347217   6.814   3.397   4.271  0.1347  0.0404 -1.0349
   98MOL   C46447218   6.871   3.431   4.151  0.1686  0.2732  0.2866
   98MOL   O46547219   6.926   3.355   4.076 -0.4286  0.7269  0.3095
   98MOL   C46647220   6.835   3.571   4.106 -0.5780 -0.0041  0.8020
   98MOL   C46747221   6.783   3.582   3.965 -0.2053 -0.3640  0.0668
   98MOL   C46847222   6.648   3.648   3.945  0.2947  0.1599 -0.6990
   98MOL   O46947223   6.585   3.710   4.038  0.1095  0.2696  0.5681
   98MOL   H47047224   6.881   3.111   4.721 -0.5458  1.9837 -0.5086
   98MOL   H47147225   6.801   2.966   4.667  1.2745  0.7298 -0.8385
   98MOL   H47247226   6.748   3.041   4.457  0.0664  0.0935 -1.0892
   98MOL   H47347227   6.911   3.053   4.486  0.6882  0.6932 -0.0738
   98MOL   H47447228   6.885   3.327   4.523 -1.4438  0.9721 -1.3126
   98MOL   H47547229   6.714   3.296   4.497  0.3068  1.1215  0.9065
   98MOL   H47647230   6.934   3.239   4.312  0.4020  0.4871 -1.6729
   98MOL   H47747231   6.760   3.193   4.287  3.5866 -2.0916 -2.5420
   98MOL   H47847232   6.922   3.632   4.129 -1.0095  1.4833 -1.4173
   98MOL   H47947233   6.759   3.617   4.170  0.3005  0.6544  1.3779
   98MOL   H48047234   6.856   3.632   3.903  0.3226 -0.6062  0.4872
   98MOL   H48147235   6.777   3.484   3.918 -0.0610  0.5127 -1.7866
   98MOL   H48247236   6.606   3.650   3.844  2.7181 -0.0590 -1.7546
   99MOL     O147237   5.414   4.135   0.822  0.6392  0.0425  0.0647
   99MOL     C247238   5.302   4.052   0.828  0.0555  0.1708 -0.6361
   99MOL     C347239   5.339   3.908   0.852 -0.0455  1.0234 -0.4233
   99MOL     C447240   5.403   3.892   0.992 -0.5945  0.0914 -0.3500
   99MOL     C547241   5.387   3.762   1.056 -0.6623  0.2288  0.2380
   99MOL     O647242   5.242   3.740   1.066  0.0983 -0.2454  0.0092
   99MOL     C747243   5.201   3.617   1.090  0.0518 -1.2177 -0.6618
   99MOL     O847244   5.267   3.515   1.089  0.2805  0.1515 -0.2495
   99MOL     C947245   5.050   3.615   1.117  0.2943  0.0991  0.2175
   99MOL    C1047246   4.971   3.680   1.006 -0.4133  0.0361  0.0465
   99MOL    C1147247   4.972   3.608   0.876  0.5129  1.0466  0.7544
   99MOL    O1247248   4.901   3.511   0.859  0.5849 -0.1565 -0.9378
   99MOL    H1347249   5.229   4.094   0.896 -0.4878 -2.0416  0.1905
   99MOL    H1447250   5.244   4.048   0.736 -0.8821 -1.5113  0.0067
   99MOL    H1547251   5.407   3.872   0.774 -2.0180 -1.4354 -1.0842
   99MOL    H1647252   5.247   3.849   0.851  0.6762 -0.3275  3.4887
   99MOL    H1747253   5.364   3.966   1.062  1.3758  1.2698 -0.4405
   99MOL    H1847254   5.508   3.917   0.979 -0.2205 -1.1941  0.1317
   99MOL    H1947255   5.438   3.686   0.997  0.0718  1.2200 -0.4165
   99MOL    H2047256   5.439   3.758   1.151 -1.5291 -1.5618  0.6582
   99MOL    H2147257   5.031   3.647   1.219 -0.8555 -0.0607  0.0606
   99MOL    H2247258   5.024   3.510   1.101  1.9488 -0.4087  0.7023
   99MOL    H2347259   4.867   3.672   1.037  0.4036 -1.1937  2.6043
   99MOL    H2447260   4.977   3.789   0.998 -0.8430 -0.0265 -1.2838
   99MOL    H2547261   5.452   4.153   0.907 -0.3050 -1.8797  0.9029
   99MOL    O2647262   5.055   3.656   0.790 -0.1678 -0.4739 -0.2063
   99MOL    C2747263   5.075   3.602   0.655  0.1468  0.4824 -0.6260
   99MOL    C2847264   5.200   3.513   0.650  0.4217  0.2987 -0.0950
   99MOL    C2947265   5.330   3.581   0.690 -0.1464  0.2178  0.4861
   99MOL    C3047266   5.460   3.501   0.670  0.0125 -0.3508  0.9617
   99MOL    O3147267   5.484   3.476   0.534 -0.0006 -0.0008  0.2717
   99MOL    C3247268   5.596   3.452   0.482 -0.6020 -0.0144 -0.3906
   99MOL    O3347269   5.704   3.456   0.544  0.3061  0.2865  0.4529
   99MOL    C3447270   5.596   3.403   0.336 -0.6164  0.0964  0.2369
   99MOL    C3547271   5.500   3.279   0.313  0.0873 -0.5131 -0.0905
   99MOL    C3647272   5.364   3.329   0.261  0.0615 -0.2523 -0.2690
   99MOL    O3747273   5.320   3.441   0.286 -0.4111 -0.0968  0.4345
   99MOL    H3847274   4.990   3.546   0.617  0.5420 -1.0476  0.6775
   99MOL    H3947275   5.088   3.684   0.584  1.0096  1.5297  0.7150
   99MOL    H4047276   5.211   3.476   0.548 -2.4076  0.1051 -0.3786
   99MOL    H4147277   5.187   3.427   0.716 -0.1824  0.8292  0.4785
   99MOL    H4247278   5.311   3.609   0.794  2.2355  1.0406  0.7239
   99MOL    H4347279   5.332   3.679   0.644 -0.2783 -0.1285 -0.2581
   99MOL    H4447280   5.544   3.555   0.713  2.8627 -2.9946 -1.0935
   99MOL    H4547281   5.465   3.411   0.731  1.0858 -0.3685  0.8493
   99MOL    H4647282   5.700   3.386   0.308 -1.0471  0.0346 -1.3665
   99MOL    H4747283   5.562   3.473   0.260 -2.3562 -1.7556 -0.7340
   99MOL    H4847284   5.554   3.217   0.241 -0.7489 -1.4029  0.0474
   99MOL    H4947285   5.489   3.217   0.402 -2.7534  1.0098  0.6643
   99MOL    O5047286   5.297   3.248   0.181  0.1454 -0.5389  0.6111
   99MOL    C5147287   5.172   3.281   0.122 -0.3262 -0.5330 -0.5072
   99MOL    C5247288   5.162   3.227   7.852  0.6312  0.1036  0.5283
   99MOL    C5347289   5.021   3.250   7.780 -0.0691 -0.0468  0.1659
   99MOL    C5447290   5.002   3.177   7.650 -0.1017  0.1844 -0.1525
   99MOL    O5547291   5.012   3.036   7.679 -0.2624 -0.2733  0.4822
   99MOL    C5647292   4.994   2.952   7.580  0.7290  0.2476  0.0070
   99MOL    O5747293   4.975   2.985   7.466  0.0185 -0.7841  0.3167
   99MOL    C5847294   4.980   2.808   7.628 -0.9885  0.0924 -0.0797
   99MOL    C5947295   4.837   2.786   7.685  0.0942  0.0245  0.7927
   99MOL    C6047296   4.758   2.690   7.583  0.6135 -0.6667  0.4006
   99MOL    O6147297   4.688   2.733   7.491  0.4835 -0.3571  0.3778
   99MOL    H6247298   5.083   3.245   0.173 -0.4740 -3.1434 -2.5025
   99MOL    H6347299   5.164   3.390   0.117 -3.1035 -0.5918  1.5996
   99MOL    H6447300   5.191   3.122   7.862  0.3259  0.0540  0.9068
   99MOL    H6547301   5.242   3.259   7.786 -0.2488  2.1250  0.3960
   99MOL    H6647302   5.007   3.357   7.764  0.7299 -0.2246 -1.8377
   99MOL    H6747303   4.928   3.231   7.834  0.8902 -0.8054  1.6044
   99MOL    H6847304   4.906   3.202   7.604 -0.7838  0.7400  1.5461
   99MOL    H6947305   5.088   3.207   7.589 -0.2472  0.1014 -0.4013
   99MOL    H7047306   5.057   2.785   7.701 -0.7379 -0.5850 -0.5437
   99MOL    H7147307   5.015   2.741   7.549  2.1685  1.0343  0.4275
   99MOL    H7247308   4.843   2.738   7.783 -4.2913 -0.8820  0.7143
   99MOL    H7347309   4.769   2.871   7.687 -0.1316  0.1271 -4.5050
   99MOL    O7447310   4.783   2.552   7.608  0.2048  0.0180  0.1281
   99MOL    C7547311   4.723   2.449   7.515 -0.1851 -0.3367  0.1084
   99MOL    C7647312   4.581   2.408   7.564  0.4018 -0.1928 -0.5277
   99MOL    C7747313   4.587   2.359   7.709 -0.5124  0.2464 -0.2905
   99MOL    C7847314   4.449   2.338   7.768  0.1731 -0.6414 -0.1126
   99MOL    O7947315   4.458   2.275   0.018  0.1655 -0.3371  0.4443
   99MOL    C8047316   4.348   2.246   0.080 -0.0941 -0.0902  0.4075
   99MOL    O8147317   4.230   2.275   0.042  0.4746  0.0088 -0.4289
   99MOL    C8247318   4.371   2.191   0.219  0.7986 -0.6166 -1.0603
   99MOL    C8347319   4.462   2.067   0.219  0.0241  0.0055 -0.5666
   99MOL    C8447320   4.389   1.959   0.301 -0.2800  0.2576  0.0799
   99MOL    O8547321   4.444   1.907   0.395 -0.1634  0.2136 -0.4130
   99MOL    H8647322   4.718   2.484   7.412  1.1511  1.3414  0.5932
   99MOL    H8747323   4.789   2.362   7.511 -0.1745 -0.4095  1.7395
   99MOL    H8847324   4.541   2.333   7.496 -0.9597  0.8866 -0.9494
   99MOL    H8947325   4.519   2.498   7.570  0.6138 -0.0241 -0.8653
   99MOL    H9047326   4.639   2.429   7.775  0.0620  0.1190 -0.6030
   99MOL    H9147327   4.625   2.257   7.704  2.0098  1.2733 -3.0153
   99MOL    H9247328   4.389   2.428   7.760  0.4088 -0.4484  0.2749
   99MOL    H9347329   4.407   2.270   7.694  0.0659 -0.1423 -0.5084
   99MOL    H9447330   4.275   2.172   0.267  0.5393  1.7981 -0.5660
   99MOL    H9547331   4.405   2.285   0.263 -1.0700 -0.2419 -0.3369
   99MOL    H9647332   4.468   2.027   0.118 -1.0912  0.6109 -0.8903
   99MOL    H9747333   4.558   2.093   0.263 -2.2314  0.2487  4.5696
   99MOL    O9847334   4.268   1.934   0.265 -0.2183 -0.0792  0.4769
   99MOL    C9947335   4.198   1.821   0.315 -0.4082 -0.5467  0.8512
   99MOL   C10047336   4.156   1.730   0.196 -0.4001  1.0899  0.0232
   99MOL   C10147337   4.273   1.658   0.142 -0.6086  0.7372  0.8051
   99MOL   C10247338   4.241   1.562   0.028 -0.3459 -0.1270  0.4772
   99MOL   O10347339   4.352   1.492   7.848  0.1312 -0.3509  0.7520
   99MOL   C10447340   4.361   1.476   7.717  0.5221 -0.4321  0.0868
   99MOL   O10547341   4.276   1.507   7.634  0.2214 -0.4670  0.3923
   99MOL   C10647342   4.501   1.416   7.685  0.3468 -0.2084 -0.0375
   99MOL   C10747343   4.507   1.389   7.529  0.0009 -0.3471 -0.1491
   99MOL   C10847344   4.653   1.402   7.485  0.3231 -0.7501  0.6765
   99MOL   O10947345   4.714   1.509   7.481  0.1876  0.0249 -0.1296
   99MOL   H11047346   4.253   1.771   0.395  0.6217 -0.3868  0.2524
   99MOL   H11147347   4.107   1.869   0.350 -0.5805  0.9396 -1.5359
   99MOL   H11247348   4.110   1.776   0.109 -0.2924 -0.6160 -0.9453
   99MOL   H11347349   4.081   1.658   0.228  0.2187  1.3051  2.0564
   99MOL   H11447350   4.329   1.606   0.220 -1.2213 -1.9635 -0.5155
   99MOL   H11547351   4.335   1.729   0.088  0.0213 -0.5907 -0.2239
   99MOL   H11647352   4.170   1.488   0.065  0.8163 -1.6037 -0.2275
   99MOL   H11747353   4.193   1.617   7.821  0.1569  0.3864  0.5247
   99MOL   H11847354   4.511   1.324   7.744 -0.8954  0.2946  0.9877
   99MOL   H11947355   4.581   1.486   7.708  0.4508 -0.2265 -0.3404
   99MOL   H12047356   4.477   1.291   7.491  1.6242 -1.5024  1.4342
   99MOL   H12147357   4.453   1.466   7.475 -1.9989 -0.0137  2.2635
   99MOL   O12247358   4.707   1.290   7.444 -0.1623  0.0117  0.3603
   99MOL   C12347359   4.827   1.291   7.374  0.7510 -0.1374  0.1462
   99MOL   C12447360   4.816   1.230   7.232 -0.2795 -0.2634 -0.4067
   99MOL   C12547361   4.756   1.326   7.122 -0.4215  0.9985 -0.4551
   99MOL   C12647362   4.703   1.243   6.998 -0.0390  0.4253 -0.3427
   99MOL   O12747363   4.812   1.172   6.941 -0.0541  0.1830 -0.5314
   99MOL   C12847364   4.903   1.237   6.860 -0.6305 -0.0016  0.2753
   99MOL   O12947365   4.895   1.362   6.838  0.2392 -0.0318 -0.9625
   99MOL   C13047366   5.024   1.162   6.798 -0.0519 -0.6983  0.2556
   99MOL   C13147367   5.108   1.083   6.895 -0.6087  0.1259 -0.0469
   99MOL   C13247368   5.227   1.162   6.932 -0.4310 -0.6161 -0.8956
   99MOL   O13347369   5.235   1.285   6.948 -0.1484  1.2047 -0.5235
   99MOL   H13447370   4.875   1.389   7.370  0.0737  0.2999  2.0982
   99MOL   H13547371   4.887   1.222   7.433  0.0513 -1.3182 -0.4990
   99MOL   H13647372   4.753   1.141   7.235  2.0589 -1.9293  1.5821
   99MOL   H13747373   4.919   1.197   7.218  0.1593  1.2107 -0.7538
   99MOL   H13847374   4.831   1.403   7.104  1.8130 -0.9138  0.3978
   99MOL   H13947375   4.672   1.386   7.157  0.3062  2.6643 -1.4798
   99MOL   H14047376   4.627   1.172   7.029  0.2374  0.1393 -0.3228
   99MOL   H14147377   4.667   1.312   6.922 -0.3647  1.7355  0.9861
   99MOL   H14247378   5.082   1.226   6.732 -1.5375 -1.7467 -2.1692
   99MOL   H14347379   4.989   1.082   6.732 -1.5262 -1.9222  2.4346
   99MOL   H14447380   5.041   1.047   6.973 -1.5527 -2.0994 -1.8036
   99MOL   H14547381   5.141   0.992   6.844 -1.0232  0.8385 -1.6372
   99MOL   O14647382   5.330   1.083   6.949  0.4912 -0.0060  0.4582
   99MOL   C14747383   5.437   1.119   7.034 -0.3355 -0.7068 -0.2140
   99MOL   C14847384   5.572   1.063   6.997  0.4101 -0.4222  0.1840
   99MOL   C14947385   5.575   0.921   7.050 -0.7481 -0.5910  0.7507
   99MOL   C15047386   5.708   0.857   7.014  0.0572  0.0007 -0.1023
   99MOL   O15147387   5.823   0.938   7.043 -0.2752  0.1588  0.2268
   99MOL   C15247388   5.859   0.960   7.164  0.6402  0.1357 -0.7393
   99MOL   O15347389   5.794   0.926   7.265 -0.0787  0.4282  0.3036
   99MOL   C15447390   5.987   1.042   7.176 -0.2306  0.7644 -0.4813
   99MOL   C15547391   5.964   1.190   7.170  0.4018 -0.2813 -0.6452
   99MOL   C15647392   6.017   1.257   7.045  0.4132  0.2143  0.1355
   99MOL   O15747393   5.941   1.332   6.987  0.2218  0.1306  0.0721
   99MOL   H15847394   5.447   1.228   7.038 -2.2193 -0.5357  0.5992
   99MOL   H15947395   5.407   1.088   7.134  1.8383  0.8774  0.9787
   99MOL   H16047396   5.647   1.125   7.046 -0.7763  1.9946 -0.9840
   99MOL   H16147397   5.583   1.071   6.889 -0.4717 -0.5402  0.0783
   99MOL   H16247398   5.492   0.869   7.001 -1.8108  0.4453  1.4025
   99MOL   H16347399   5.549   0.920   7.156  0.0577 -0.3346  0.9563
   99MOL   H16447400   5.717   0.756   7.055 -1.7460 -0.3756 -0.5927
   99MOL   H16547401   5.715   0.840   6.907  0.7974  0.0065 -0.0605
   99MOL   H16647402   6.062   0.996   7.111  1.3990 -0.9157  2.4390
   99MOL   H16747403   6.007   1.014   7.280 -1.9249 -0.4202 -0.4524
   99MOL   H16847404   5.860   1.215   7.190  1.2315  2.4661  0.4847
   99MOL   H16947405   6.022   1.229   7.254  0.2441  1.5913 -1.3856
   99MOL   O17047406   6.150   1.231   7.021  0.2288 -0.1382 -0.0402
   99MOL   C17147407   6.223   1.321   6.942 -0.5197  0.0261 -0.0807
   99MOL   C17247408   6.345   1.237   6.887 -0.5613  0.5198 -0.2840
   99MOL   C17347409   6.317   1.095   6.835 -0.2980  0.2432  0.9265
   99MOL   C17447410   6.443   1.005   6.804 -1.1259 -0.2614  0.9075
   99MOL   O17547411   6.534   1.074   6.720  0.0794 -0.8536 -0.0058
   99MOL   C17647412   6.587   1.015   6.607  0.1058 -0.6208 -0.3439
   99MOL   O17747413   6.573   0.900   6.569  0.4245 -0.3880 -0.0633
   99MOL   C17847414   6.665   1.107   6.520 -1.1762  0.3447  0.1196
   99MOL   C17947415   6.587   1.140   6.388 -0.1179  0.1005  0.6811
   99MOL   C18047416   6.519   1.273   6.398 -0.4242  0.5353  0.3809
   99MOL   O18147417   6.571   1.375   6.354  0.3294 -0.3568 -0.3087
   99MOL   H18247418   6.159   1.356   6.861  0.8836 -2.1535 -2.1865
   99MOL   H18347419   6.264   1.406   6.996  0.3051 -0.6508  0.3682
   99MOL   H18447420   6.421   1.228   6.965 -0.2685 -1.4515 -0.7949
   99MOL   H18547421   6.397   1.299   6.814  2.2445 -4.4663 -2.7691
   99MOL   H18647422   6.256   1.107   6.746  0.1029 -1.8059  0.3352
   99MOL   H18747423   6.264   1.042   6.914 -0.9421  0.5052  0.6674
   99MOL   H18847424   6.489   0.989   6.902 -2.1379 -1.3180  1.2281
   99MOL   H18947425   6.414   0.909   6.762 -0.0184  0.3356 -1.2644
   99MOL   H19047426   6.751   1.050   6.483 -0.9234  2.6708 -3.0831
   99MOL   H19147427   6.699   1.201   6.562  1.0409 -0.4575  0.1861
   99MOL   H19247428   6.650   1.138   6.299 -1.5474 -1.4794 -0.3307
   99MOL   H19347429   6.518   1.059   6.362  0.3494 -0.0868  0.0133
   99MOL   O19447430   6.398   1.261   6.453 -0.0663 -0.2763 -0.6058
   99MOL   C19547431   6.307   1.372   6.451  0.3141  0.0379  0.8291
   99MOL   C19647432   6.206   1.357   6.336  0.0199 -0.1983  0.2746
   99MOL   C19747433   6.098   1.463   6.333  0.2824  0.0855 -0.1744
   99MOL   C19847434   5.999   1.471   6.451  0.3648 -0.2795  0.5174
   99MOL   O19947435   5.937   1.605   6.445 -0.2900 -0.1601  0.1405
   99MOL   C20047436   5.830   1.624   6.364 -0.4745 -0.1293 -0.6870
   99MOL   O20147437   5.789   1.541   6.287  0.5028  0.0120  0.6110
   99MOL   C20247438   5.746   1.752   6.405 -0.3782  0.6817  0.0569
   99MOL   C20347439   5.638   1.718   6.518  0.0545 -0.4832 -0.2247
   99MOL   C20447440   5.491   1.742   6.463 -0.0552  0.6297  0.1297
   99MOL   O20547441   5.465   1.786   6.349 -0.1499 -0.1597  0.3773
   99MOL   H20647442   6.248   1.369   6.543  0.3553 -0.1507  0.8479
   99MOL   H20747443   6.351   1.472   6.444 -0.1218  0.1225 -0.8498
   99MOL   H20847444   6.157   1.260   6.340 -0.6239  0.1280  0.5759
   99MOL   H20947445   6.264   1.367   6.245  3.6197  1.9408  2.6790
   99MOL   H21047446   6.039   1.453   6.242  0.0010 -2.7294  0.2963
   99MOL   H21147447   6.146   1.560   6.318  2.9646 -1.0153  1.0752
   99MOL   H21247448   5.923   1.394   6.438  1.0521 -1.1188  1.4803
   99MOL   H21347449   6.049   1.461   6.547 -1.6383  1.0489  1.7287
   99MOL   H21447450   5.695   1.795   6.319  1.2957  0.8864 -0.8588
   99MOL   H21547451   5.816   1.829   6.437 -0.0378  0.9143 -1.2382
   99MOL   H21647452   5.657   1.617   6.554 -0.6638 -0.4301  0.3187
   99MOL   H21747453   5.655   1.781   6.605 -1.0444  0.4948 -0.7010
   99MOL   O21847454   5.389   1.705   6.551 -0.2068 -0.7954  0.4496
   99MOL   C21947455   5.257   1.719   6.497  0.2406 -0.0455 -0.3813
   99MOL   C22047456   5.160   1.657   6.600  0.3376 -0.4004 -0.3318
   99MOL   C22147457   5.175   1.501   6.602 -0.5631 -0.3065  0.2021
   99MOL   C22247458   5.108   1.430   6.487  0.7271  0.3675 -0.8796
   99MOL   O22347459   4.971   1.472   6.487 -1.0858 -0.2567 -0.0105
   99MOL   C22447460   4.865   1.388   6.510 -0.0148 -0.0393 -0.5953
   99MOL   O22547461   4.871   1.266   6.527  0.7426  0.1082 -0.0443
   99MOL   C22647462   4.732   1.464   6.506  0.0132  0.1186  0.2757
   99MOL   C22747463   4.617   1.365   6.536  0.7015  0.1289  0.3864
   99MOL   C22847464   4.479   1.395   6.481  0.3094  0.1022  0.2494
   99MOL   O22947465   4.379   1.399   6.559  0.1182 -0.2698 -0.3843
   99MOL   H23047466   5.228   1.823   6.483 -1.8021 -0.4964  0.2374
   99MOL   H23147467   5.258   1.672   6.398 -0.0191  0.3877 -0.5892
   99MOL   H23247468   5.059   1.695   6.583  0.4773  0.5593  0.8859
   99MOL   H23347469   5.192   1.691   6.699 -2.7494  0.1083  0.5310
   99MOL   H23447470   5.130   1.462   6.693  0.0743  2.2614  1.6590
   99MOL   H23547471   5.282   1.478   6.605 -0.9993 -2.6580 -1.1869
   99MOL   H23647472   5.159   1.468   6.398  1.2871 -1.4330 -1.3638
   99MOL   H23747473   5.116   1.323   6.509 -0.5047  0.5741  0.7151
   99MOL   H23847474   4.716   1.485   6.400 -1.4254  1.0574  0.6691
   99MOL   H23947475   4.740   1.559   6.558  0.3323  0.5978 -0.6404
   99MOL   H24047476   4.642   1.266   6.496  1.6910 -0.1879  1.7339
   99MOL   H24147477   4.597   1.356   6.643  1.9268  0.7460  0.6776
   99MOL   O24247478   4.476   1.409   6.348 -0.2165  0.1467  0.2763
   99MOL   C24347479   4.350   1.449   6.287  0.0964  0.0258 -0.0286
   99MOL   C24447480   4.364   1.433   6.132  0.2657 -0.1748 -0.4644
   99MOL   C24547481   4.464   1.514   6.061 -0.5627 -0.1836  0.2657
   99MOL   C24647482   4.608   1.447   6.059 -0.4620  1.1519  0.7147
   99MOL   O24747483   4.710   1.527   5.992 -0.3276  0.0007  0.6809
   99MOL   C24847484   4.749   1.640   6.054  0.2604  0.4489 -0.1604
   99MOL   O24947485   4.710   1.679   6.162  0.2180  0.1922 -0.0613
   99MOL   C25047486   4.859   1.704   5.979 -0.9027  0.1935 -0.5406
   99MOL   C25147487   4.908   1.836   6.048 -0.5691  0.3866  0.1803
   99MOL   C25247488   5.054   1.819   6.091  0.6659  0.2695 -0.4241
   99MOL   O25347489   5.091   1.799   6.206 -0.0632  0.2215  0.4568
   99MOL   H25447490   4.262   1.403   6.331  0.7516 -1.6979 -0.4707
   99MOL   H25547491   4.348   1.556   6.304  1.1967  0.1811 -0.7816
   99MOL   H25647492   4.270   1.463   6.086 -1.3157 -2.7324  0.9521
   99MOL   H25747493   4.381   1.327   6.110  1.0697 -0.0848 -0.2888
   99MOL   H25847494   4.459   1.611   6.111  3.0372  0.4192 -0.4339
   99MOL   H25947495   4.422   1.530   5.961 -1.8836 -0.3609  0.7842
   99MOL   H26047496   4.646   1.414   6.155 -0.1186  0.1794  0.2509
   99MOL   H26147497   4.588   1.357   6.000 -2.0259  0.2434  2.5744
   99MOL   H26247498   4.822   1.750   5.888  0.7678  0.0630 -1.2792
   99MOL   H26347499   4.942   1.634   5.974 -0.1548  0.8645  1.6092
   99MOL   H26447500   4.916   1.916   5.975  0.1963  1.2878  1.2275
   99MOL   H26547501   4.848   1.864   6.135  0.9374 -1.1944  1.7866
   99MOL   O26647502   5.140   1.832   5.988 -0.3520 -0.1797 -0.4763
   99MOL   C26747503   5.284   1.825   6.015 -0.3972 -0.3540 -0.6474
   99MOL   C26847504   5.364   1.941   5.955  0.3427 -0.0693  0.4550
   99MOL   C26947505   5.331   2.074   6.011  0.8769 -0.2428 -0.3162
   99MOL   C27047506   5.388   2.191   5.934  0.2402  0.0389 -0.2317
   99MOL   O27147507   5.529   2.201   5.961 -0.1153 -0.0742  0.5801
   99MOL   C27247508   5.617   2.148   5.868  0.5344  0.2344  0.9539
   99MOL   O27347509   5.589   2.080   5.767  0.4696 -0.0048  0.6161
   99MOL   C27447510   5.762   2.187   5.907 -0.5839 -0.4585 -0.2082
   99MOL   C27547511   5.839   2.228   5.782  0.1520 -0.2968  0.2193
   99MOL   C27647512   5.951   2.121   5.753 -0.2230  0.1120 -0.2770
   99MOL   O27747513   6.044   2.099   5.827 -0.5492  0.3686 -0.2440
   99MOL   H27847514   5.310   1.827   6.121 -2.8005 -2.0446  0.0361
   99MOL   H27947515   5.315   1.729   5.974  2.0175  1.0384 -2.1408
   99MOL   H28047516   5.365   1.936   5.847  1.1295 -0.7666  0.4878
   99MOL   H28147517   5.470   1.923   5.973  0.3428 -0.2172  0.3076
   99MOL   H28247518   5.338   2.074   6.120  0.7024 -1.4766 -0.3012
   99MOL   H28347519   5.226   2.090   5.984  1.0790 -0.6700 -1.3800
   99MOL   H28447520   5.377   2.178   5.826  2.7520  1.7919 -0.7427
   99MOL   H28547521   5.349   2.290   5.959  0.2340 -0.5155  2.0514
   99MOL   H28647522   5.813   2.113   5.968  0.9599  1.2099  0.5786
   99MOL   H28747523   5.760   2.269   5.979  0.3856  0.4796 -1.2368
   99MOL   H28847524   5.787   2.260   5.692  2.7326  0.4947 -1.0397
   99MOL   H28947525   5.901   2.313   5.812 -0.1339  0.6452 -1.7354
   99MOL   O29047526   5.911   2.039   5.653 -0.7929 -0.1486  0.2614
   99MOL   C29147527   5.968   1.915   5.643 -0.0428 -0.1330  0.7987
   99MOL   C29247528   5.915   1.834   5.523  0.7450 -0.2180 -0.3887
   99MOL   C29347529   5.977   1.695   5.532 -0.5345  0.0013 -0.4259
   99MOL   C29447530   6.122   1.675   5.472  0.7626 -0.3194 -0.0697
   99MOL   O29547531   6.137   1.531   5.456 -0.5281  0.0541 -0.5157
   99MOL   C29647532   6.248   1.471   5.481  0.7393  0.2124 -0.3858
   99MOL   O29747533   6.350   1.531   5.532 -0.3797  0.0096 -0.1386
   99MOL   C29847534   6.252   1.321   5.456 -0.6300 -0.2552 -0.6181
   99MOL   C29947535   6.387   1.257   5.503 -0.2980  0.4815 -0.1437
   99MOL   C30047536   6.366   1.107   5.504  0.1994  0.5196  0.6586
   99MOL   O30147537   6.288   1.048   5.427 -0.9520 -0.0961 -0.1313
   99MOL   H30247538   6.073   1.937   5.624  0.0337 -0.3335  0.9860
   99MOL   H30347539   5.948   1.860   5.735  1.2319 -0.8172  0.6742
   99MOL   H30447540   5.938   1.871   5.423  0.0106  1.6486  0.1136
   99MOL   H30547541   5.809   1.837   5.548  0.5692 -0.0774 -1.1303
   99MOL   H30647542   5.904   1.625   5.493 -0.4998 -0.2729 -0.0052
   99MOL   H30747543   5.990   1.664   5.636  0.0131 -0.9822 -0.7790
   99MOL   H30847544   6.122   1.722   5.374  1.4389 -1.0767 -0.4405
   99MOL   H30947545   6.192   1.722   5.540 -0.7568  1.5169  0.2759
   99MOL   H31047546   6.234   1.303   5.351 -0.7476 -0.5065 -0.5535
   99MOL   H31147547   6.175   1.263   5.507 -0.6854  0.4677  0.1437
   99MOL   H31247548   6.464   1.291   5.434 -0.3484 -1.5694 -1.2184
   99MOL   H31347549   6.403   1.288   5.607 -2.8026  0.8412  0.1677
   99MOL   O31447550   6.445   1.046   5.596  0.3084  0.2055  0.0330
   99MOL   C31547551   6.473   0.908   5.616  0.0442 -0.0125  0.1473
   99MOL   C31647552   6.625   0.877   5.592 -0.3123  0.2999  0.4322
   99MOL   C31747553   6.668   0.736   5.609  0.1988  0.2394 -0.0289
   99MOL   C31847554   6.651   0.682   5.753  0.0682  0.3579 -0.4375
   99MOL   O31947555   6.699   0.775   5.851  0.1048 -0.1707  0.0255
   99MOL   C32047556   6.825   0.782   5.878  0.4282  0.0781 -0.3218
   99MOL   O32147557   6.920   0.725   5.821 -0.1857  0.0285 -0.0347
   99MOL   C32247558   6.836   0.869   6.003 -0.2754 -0.1192  0.0110
   99MOL   C32347559   6.787   1.015   5.966 -0.4108 -0.1322 -0.3317
   99MOL   C32447560   6.643   1.029   6.013  0.6443  0.7321 -0.5665
   99MOL   O32547561   6.591   0.954   6.100  0.5253 -0.5457  0.2320
   99MOL   H32647562   6.460   0.883   5.721 -0.4755 -3.4331 -0.6890
   99MOL   H32747563   6.407   0.839   5.564 -0.3615  1.7299 -1.7120
   99MOL   H32847564   6.687   0.939   5.657 -0.8356  3.4480 -1.9524
   99MOL   H32947565   6.660   0.902   5.492 -1.7515 -1.8034 -0.6283
   99MOL   H33047566   6.773   0.739   5.580 -0.4671  1.2224 -2.4811
   99MOL   H33147567   6.631   0.666   5.534  2.3530 -0.5596 -0.3766
   99MOL   H33247568   6.543   0.672   5.762  0.0997 -0.9777 -1.4237
   99MOL   H33347569   6.680   0.581   5.780 -0.6643 -0.1035 -1.3582
   99MOL   H33447570   6.941   0.882   6.029 -0.3721 -2.4938  1.7119
   99MOL   H33547571   6.796   0.828   6.095  0.6448  0.1223  0.5175
   99MOL   H33647572   6.857   1.087   6.010 -0.1285 -1.0642  0.7487
   99MOL   H33747573   6.789   1.032   5.858 -1.9448  2.0098 -0.0407
   99MOL   O33847574   6.576   1.112   5.932 -0.7763 -1.1545 -0.2230
   99MOL   C33947575   6.446   1.144   5.962 -0.1804 -0.1437  0.0401
   99MOL   C34047576   6.417   1.292   5.925 -0.1660 -0.4697 -0.4380
   99MOL   C34147577   6.509   1.385   5.999  0.1660  0.1046 -0.2317
   99MOL   C34247578   6.471   1.532   5.978 -0.3469 -0.6051 -0.4742
   99MOL   O34347579   6.538   1.610   6.076  0.2696  0.5268  0.1364
   99MOL   C34447580   6.473   1.649   6.185 -0.6551 -0.1333  0.4867
   99MOL   O34547581   6.354   1.636   6.217 -0.4790  0.1460  0.5392
   99MOL   C34647582   6.557   1.727   6.289 -0.4104  0.2730  0.4562
   99MOL   C34747583   6.603   1.867   6.246  0.3761 -0.4221  0.4691
   99MOL   C34847584   6.527   1.978   6.314  0.0128 -0.6353  0.3012
   99MOL   O34947585   6.538   2.017   6.431 -0.0179 -0.1737  0.2294
   99MOL   H35047586   6.377   1.078   5.910 -0.2964 -0.6062  0.7745
   99MOL   H35147587   6.422   1.138   6.069  0.2675 -3.2475  0.0189
   99MOL   H35247588   6.310   1.312   5.932  0.3309  1.9684  0.6739
   99MOL   H35347589   6.435   1.287   5.818  1.5886 -1.6114 -0.1063
   99MOL   H35447590   6.609   1.364   5.962 -0.0510 -0.3861 -0.5444
   99MOL   H35547591   6.515   1.371   6.107 -0.1562 -0.5547 -0.2940
   99MOL   H35647592   6.490   1.578   5.881  0.4581  2.5571  1.1024
   99MOL   H35747593   6.365   1.554   5.971 -0.1981  1.1738  1.9862
   99MOL   H35847594   6.643   1.666   6.317 -0.9455 -1.2195 -1.0503
   99MOL   H35947595   6.509   1.742   6.385 -0.8438  0.9531  0.1407
   99MOL   H36047596   6.706   1.898   6.266 -0.2072  2.2904 -0.4893
   99MOL   H36147597   6.595   1.884   6.139  0.7456  1.1097  0.6671
   99MOL   O36247598   6.438   2.031   6.224  0.3526 -0.0264  0.2101
   99MOL   C36347599   6.376   2.152   6.248 -0.2548 -0.7747  0.1639
   99MOL   C36447600   6.319   2.202   6.117  0.2553 -0.0394 -0.2543
   99MOL   C36547601   6.232   2.322   6.142  0.1087 -0.1771  0.4655
   99MOL   C36647602   6.174   2.369   6.011  0.0781  0.2308 -0.4074
   99MOL   O36747603   6.288   2.422   5.930  0.0658  0.4550  0.2436
   99MOL   C36847604   6.320   2.548   5.933  0.3805 -0.2153  1.1275
   99MOL   O36947605   6.266   2.642   5.994  0.2382 -0.3730 -0.3268
   99MOL   C37047606   6.455   2.568   5.862 -0.8418 -0.4413  0.5736
   99MOL   C37147607   6.570   2.473   5.915 -0.1409  0.0452 -0.0494
   99MOL   C37247608   6.695   2.547   5.962 -0.3670 -0.5717 -0.3173
   99MOL   O37347609   6.801   2.551   5.895  0.9427 -0.2229  0.1170
   99MOL   H37447610   6.294   2.137   6.318 -1.9537  0.4033 -1.5310
   99MOL   H37547611   6.436   2.226   6.302 -0.1476 -0.4560 -0.3832
   99MOL   H37647612   6.263   2.117   6.077 -0.9063  0.6216 -0.0458
   99MOL   H37747613   6.405   2.224   6.053  0.1797 -2.6894 -1.3350
   99MOL   H37847614   6.286   2.404   6.190  0.2651 -0.0454  0.0679
   99MOL   H37947615   6.141   2.303   6.199  0.0934 -0.1120  0.4610
   99MOL   H38047616   6.120   2.286   5.964  3.0099 -1.5269 -0.7633
   99MOL   H38147617   6.096   2.443   6.030 -1.2075 -0.4596 -2.7822
   99MOL   H38247618   6.487   2.671   5.879 -1.1457  0.5050 -3.8656
   99MOL   H38347619   6.450   2.565   5.753  1.9511 -0.1702  0.3965
   99MOL   H38447620   6.537   2.416   6.002  1.2432  0.6145  0.8712
   99MOL   H38547621   6.590   2.402   5.835 -1.3522 -2.2009  1.6039
   99MOL   O38647622   6.675   2.599   6.078 -0.8959 -0.2055  0.1729
   99MOL   C38747623   6.792   2.645   6.147  0.0179 -0.3535  0.3400
   99MOL   C38847624   6.755   2.719   6.274  0.1127 -0.1743 -0.6370
   99MOL   C38947625   6.682   2.853   6.248 -0.0610 -0.7453 -0.3555
   99MOL   C39047626   6.679   2.953   6.371  0.6021 -0.4001  0.0328
   99MOL   O39147627   6.629   2.868   6.469 -0.3241 -0.1223 -0.2948
   99MOL   C39247628   6.595   2.909   6.588 -0.0194 -0.3719 -0.3032
   99MOL   O39347629   6.573   3.023   6.614  0.3500  0.4359  0.2299
   99MOL   C39447630   6.577   2.789   6.683  1.0366  1.0215 -0.1181
   99MOL   C39547631   6.490   2.839   6.803 -0.0665  0.2596 -0.0148
   99MOL   C39647632   6.389   2.731   6.866  0.2356  0.1759 -0.8544
   99MOL   O39747633   6.397   2.608   6.841 -0.4651 -0.1515  0.5238
   99MOL   H39847634   6.858   2.563   6.175 -1.4160 -1.0850  1.6354
   99MOL   H39947635   6.849   2.711   6.081  0.9555  0.2650  1.7416
   99MOL   H40047636   6.844   2.739   6.335 -1.0425  2.1213  0.3285
   99MOL   H40147637   6.706   2.645   6.338 -0.4680 -1.0278 -2.0585
   99MOL   H40247638   6.583   2.845   6.202  0.0875 -0.6290 -0.6959
   99MOL   H40347639   6.730   2.902   6.163  2.5486 -2.6909 -0.0483
   99MOL   H40447640   6.778   2.984   6.404 -0.2036  2.6468 -0.1648
   99MOL   H40547641   6.621   3.044   6.350 -2.3670 -1.2381  4.0048
   99MOL   H40647642   6.671   2.748   6.721  0.6167 -1.6013 -1.7584
   99MOL   H40747643   6.531   2.702   6.637 -0.2581  1.0001  1.1782
   99MOL   H40847644   6.557   2.885   6.876 -1.0914  0.8740  0.5423
   99MOL   H40947645   6.429   2.918   6.760  1.7947 -0.0434 -3.3913
   99MOL   O41047646   6.305   2.782   6.958 -0.7788  0.1040 -0.2130
   99MOL   C41147647   6.193   2.705   6.995 -0.9675 -0.4538 -0.5249
   99MOL   C41247648   6.140   2.750   7.128  0.0518  0.0330 -0.1126
   99MOL   C41347649   6.010   2.675   7.160  1.3127  0.2170  0.2035
   99MOL   C41447650   5.939   2.742   7.276  0.5511  0.3314 -0.5882
   99MOL   O41547651   5.816   2.676   7.292  0.1055  0.1022  0.7699
   99MOL   C41647652   5.718   2.727   7.378  0.4763  0.0908 -0.0267
   99MOL   O41747653   5.731   2.834   7.441 -0.2814  0.2128 -1.1880
   99MOL   C41847654   5.581   2.658   7.356 -0.3690 -0.1598 -0.1608
   99MOL   C41947655   5.585   2.500   7.344  0.3744  0.2720  0.0453
   99MOL   C42047656   5.452   2.439   7.381 -0.3981 -0.0273 -0.3122
   99MOL   O42147657   5.396   2.353   7.313 -0.0869  0.2267 -0.1329
   99MOL   H42247658   6.112   2.726   6.924 -2.0226 -2.1808  0.1369
   99MOL   H42347659   6.203   2.597   6.986  0.0817 -0.4434  0.4887
   99MOL   H42447660   6.116   2.856   7.118 -0.6003  0.0346  1.3295
   99MOL   H42547661   6.213   2.727   7.205 -0.5202 -1.0696  0.1210
   99MOL   H42647662   6.036   2.572   7.185  0.0274 -0.1945 -0.1048
   99MOL   H42747663   5.931   2.679   7.085  0.6691  1.3109  0.9099
   99MOL   H42847664   6.008   2.731   7.360 -1.2164 -2.4140  0.5759
   99MOL   H42947665   5.907   2.841   7.245 -1.4826 -0.4839 -1.1388
   99MOL   H43047666   5.529   2.694   7.267  2.1668 -0.1018 -1.6448
   99MOL   H43147667   5.520   2.692   7.440  1.7720 -0.7031  1.6654
   99MOL   H43247668   5.602   2.465   7.242 -1.4110  0.7859 -0.4417
   99MOL   H43347669   5.655   2.453   7.414  0.9971 -0.4114 -1.0272
   99MOL   O43447670   5.403   2.485   7.498  0.2772 -0.1992  0.3287
   99MOL   C43547671   5.270   2.444   7.529  0.2765 -0.2193 -0.2732
   99MOL   C43647672   5.224   2.488   7.671 -0.1320 -0.7957 -0.3658
   99MOL   C43747673   5.099   2.411   7.711  0.4698 -0.3213  1.1056
   99MOL   C43847674   5.056   2.453   7.846  0.7268  0.3246 -0.1261
   99MOL   O43947675   4.962   2.347   0.013  0.2240 -0.2925 -0.2796
   99MOL   C44047676   4.865   2.382   0.095 -0.2583  0.6329  0.1112
   99MOL   O44147677   4.846   2.496   0.144 -0.4435 -0.6362 -0.0787
   99MOL   C44247678   4.783   2.257   0.134  0.0996 -0.2555  0.0877
   99MOL   C44347679   4.862   2.147   0.201 -0.4259 -0.1586 -0.1749
   99MOL   C44447680   4.900   2.036   0.105 -0.3115  0.6571  0.2037
   99MOL   O44547681   5.016   2.007   0.075  0.5151  0.1935 -0.2565
   99MOL   H44647682   5.195   2.477   7.458 -1.2590 -3.0239 -0.0191
   99MOL   H44747683   5.275   2.335   7.525 -0.0708 -0.3333  1.5757
   99MOL   H44847684   5.215   2.596   7.681 -0.8945 -0.8395 -0.5188
   99MOL   H44947685   5.298   2.462   7.746  0.7626 -0.7651 -1.2275
   99MOL   H45047686   5.132   2.307   7.701 -0.6121 -0.4513 -1.4076
   99MOL   H45147687   5.029   2.430   7.630  1.5821 -2.7556 -0.4986
   99MOL   H45247688   5.149   2.463   0.027  2.2176 -2.7763 -1.8700
   99MOL   H45347689   5.013   2.552   7.838  3.4973  1.6073  0.2782
   99MOL   H45447690   4.737   2.217   0.044 -0.3720  1.8369 -0.6297
   99MOL   H45547691   4.698   2.293   0.193 -1.4793 -2.7461 -0.5837
   99MOL   H45647692   4.949   2.187   0.253 -1.6380  0.4350  1.4172
   99MOL   H45747693   4.812   2.108   0.290 -1.3620 -0.0228 -0.6425
   99MOL   O45847694   4.784   1.974   0.065 -0.3131 -0.0065  0.0529
   99MOL   C45947695   4.787   1.850   0.006 -0.3036 -0.1447 -1.1076
   99MOL   C46047696   4.651   1.825   7.824 -0.8154  0.2941  0.2559
   99MOL   C46147697   4.601   1.933   7.732 -0.2802 -0.1540  0.4108
   99MOL   C46247698   4.666   1.936   7.592  0.1320  0.0739  0.1797
   99MOL   O46347699   4.780   2.016   7.597 -0.5810 -0.4582 -0.1575
   99MOL   C46447700   4.875   2.010   7.504  0.2729 -0.5515  0.0252
   99MOL   O46547701   4.868   1.942   7.402 -0.0751  0.6802  0.2318
   99MOL   C46647702   4.984   2.110   7.537 -0.1308  1.1569 -0.9160
   99MOL   C46747703   5.094   2.107   7.432  0.1514  0.3511 -0.3786
   99MOL   C46847704   5.062   2.199   7.313  0.1859  0.0440 -0.2222
   99MOL   O46947705   5.010   2.309   7.326  0.1604 -0.0446 -0.5603
   99MOL   H47047706   4.864   1.863   7.805  0.0916 -2.7484 -1.1682
   99MOL   H47147707   4.817   1.767   0.069 -0.4945  0.3664 -0.3337
   99MOL   H47247708   4.584   1.807   0.034  0.1476 -0.9027  0.7709
   99MOL   H47347709   4.654   1.726   7.778  0.6560 -0.7340  2.4695
   99MOL   H47447710   4.615   2.033   7.772  1.3106  0.1027 -0.7242
   99MOL   H47547711   4.496   1.907   7.722  0.0410 -0.5174 -2.6820
   99MOL   H47647712   4.700   1.835   7.571  0.1326 -0.0105  0.5755
   99MOL   H47747713   4.597   1.968   7.513  0.3476  1.3380  0.5012
   99MOL   H47847714   5.027   2.102   7.637 -0.4516 -3.1504 -1.0179
   99MOL   H47947715   4.930   2.203   7.547 -0.4416  0.9106 -0.3085
   99MOL   H48047716   5.192   2.131   7.475  0.6669 -0.4517 -1.0891
   99MOL   H48147717   5.120   2.005   7.404  1.3213 -0.0621  2.0759
   99MOL   H48247718   5.091   2.178   7.210  1.9380 -0.7112  0.4153
  100MOL     O147719   1.951   5.711   4.297 -0.2426 -0.8187 -0.0790
  100MOL     C247720   1.933   5.833   4.227 -0.4684  0.6101  0.5993
  100MOL     C347721   2.045   5.939   4.245  0.1102 -0.0419 -0.0895
  100MOL     C447722   2.007   6.053   4.151 -0.3503 -0.6238  0.6849
  100MOL     C547723   2.130   6.137   4.128  0.5608 -0.3639  0.3844
  100MOL     O647724   2.159   6.208   4.246  0.2713 -0.1961  0.4356
  100MOL     C747725   2.227   6.320   4.245 -0.6416 -0.2373  0.2693
  100MOL     O847726   2.258   6.385   4.146 -0.0011 -0.4006  0.8429
  100MOL     C947727   2.253   6.374   4.383 -0.1189 -0.1920 -1.1923
  100MOL    C1047728   2.339   6.292   4.482 -1.1780  0.1398  0.6942
  100MOL    C1147729   2.260   6.198   4.572 -0.3814 -0.0457 -0.2771
  100MOL    O1247730   2.145   6.159   4.545  0.2157  0.1697  0.3414
  100MOL    H1347731   1.930   5.804   4.122 -0.9451 -1.5362  1.1957
  100MOL    H1447732   1.833   5.866   4.255 -0.4832  3.0466 -2.0634
  100MOL    H1547733   2.148   5.904   4.241  0.9612  1.8986  3.0211
  100MOL    H1647734   2.048   5.981   4.346  1.0795 -0.4505  0.0495
  100MOL    H1747735   1.927   6.120   4.183  0.5630  1.6447 -1.6521
  100MOL    H1847736   1.958   6.017   4.061 -0.0229 -0.2502  0.3593
  100MOL    H1947737   2.221   6.080   4.111  1.0016  0.6840 -0.8931
  100MOL    H2047738   2.116   6.206   4.044  1.5848 -0.8371 -0.1819
  100MOL    H2147739   2.160   6.388   4.437  0.3887  1.3921 -0.7198
  100MOL    H2247740   2.296   6.474   4.375 -1.1877  0.6068  2.2653
  100MOL    H2347741   2.415   6.235   4.429  0.1893  1.4348  1.2397
  100MOL    H2447742   2.401   6.362   4.538  0.5948 -0.4393 -0.4970
  100MOL    H2547743   1.866   5.669   4.301 -0.5391 -0.4760 -2.0188
  100MOL    O2647744   2.323   6.164   4.689 -0.5964 -0.4143  0.4550
  100MOL    C2747745   2.286   6.056   4.770  0.0858  0.3057  0.5991
  100MOL    C2847746   2.330   6.075   4.920  0.2752 -0.6547  0.5261
  100MOL    C2947747   2.479   6.064   4.929 -0.5450 -0.0721 -0.5057
  100MOL    C3047748   2.537   6.109   5.058  0.7993 -0.3979 -0.6694
  100MOL    O3147749   2.492   6.242   5.099 -0.6810 -0.9820 -0.2701
  100MOL    C3247750   2.560   6.350   5.057 -0.0110  0.5046 -0.2266
  100MOL    O3347751   2.652   6.353   4.980 -0.1145  0.2246  0.6344
  100MOL    C3447752   2.509   6.486   5.117  0.3939 -0.4049 -0.2844
  100MOL    C3547753   2.537   6.500   5.267  0.1607  0.9347  0.4277
  100MOL    C3647754   2.603   6.631   5.294 -0.3757 -0.8544  0.0096
  100MOL    O3747755   2.706   6.647   5.360  0.6190  0.4583 -0.3124
  100MOL    H3847756   2.179   6.045   4.781  0.2147 -0.0759  1.5222
  100MOL    H3947757   2.318   5.959   4.730 -0.3389 -0.7606  2.8128
  100MOL    H4047758   2.281   6.000   4.981 -2.4240  1.0586  0.5294
  100MOL    H4147759   2.298   6.177   4.938  0.2958  0.1796 -3.6185
  100MOL    H4247760   2.525   6.111   4.841  0.5807  0.5491  0.3984
  100MOL    H4347761   2.514   5.961   4.923 -0.7400 -0.1437 -0.4093
  100MOL    H4447762   2.504   6.042   5.138  1.3196  1.4603  1.1502
  100MOL    H4547763   2.646   6.109   5.048  0.8454 -0.8619 -0.1991
  100MOL    H4647764   2.405   6.485   5.086 -0.5466 -0.1789  2.6984
  100MOL    H4747765   2.569   6.561   5.066  0.2392  0.8452  1.3246
  100MOL    H4847766   2.445   6.487   5.324 -0.3016 -0.4188 -0.6062
  100MOL    H4947767   2.605   6.422   5.300  1.0816  0.5574 -2.2782
  100MOL    O5047768   2.531   6.741   5.247  0.3067 -0.4782  0.5120
  100MOL    C5147769   2.574   6.881   5.242  0.3343 -0.5331 -0.2604
  100MOL    C5247770   2.522   6.943   5.110 -0.2811  0.6303  0.2510
  100MOL    C5347771   2.596   6.897   4.983 -0.2594  0.5125  0.7781
  100MOL    C5447772   2.543   6.968   4.861  0.6642  0.5991 -0.0306
  100MOL    O5547773   2.572   7.107   4.863  0.5983  0.4606 -0.1814
  100MOL    C5647774   2.700   7.154   4.847 -0.8919  0.2480  0.7592
  100MOL    O5747775   2.804   7.088   4.841  0.5724  0.4114  0.1823
  100MOL    C5847776   2.704   7.304   4.844 -0.7989 -0.3879 -0.7632
  100MOL    C5947777   2.733   7.370   4.982 -0.0802 -0.0415  0.1805
  100MOL    C6047778   2.611   7.399   5.066  0.0147  0.0954 -0.6627
  100MOL    O6147779   2.581   7.334   5.164  0.4963 -0.1841 -0.5783
  100MOL    H6247780   2.527   6.932   5.326  2.0255 -2.1117  1.7078
  100MOL    H6347781   2.682   6.886   5.253  0.1775  0.5867  0.8320
  100MOL    H6447782   2.520   7.052   5.121 -1.3877  0.6478  0.0037
  100MOL    H6547783   2.414   6.933   5.104 -0.2064 -0.3582  0.4989
  100MOL    H6647784   2.584   6.791   4.965 -1.3713  0.5283  1.3407
  100MOL    H6747785   2.704   6.913   4.980  0.0285 -1.4782  0.4438
  100MOL    H6847786   2.578   6.913   4.774 -1.7169 -1.8111  0.4870
  100MOL    H6947787   2.436   6.950   4.854  0.4397  0.7978  2.4485
  100MOL    H7047788   2.618   7.345   4.792  0.0839  0.0903 -1.8620
  100MOL    H7147789   2.790   7.331   4.783  0.8124 -1.2806  1.0679
  100MOL    H7247790   2.803   7.315   5.045  1.6193  1.6015 -0.2244
  100MOL    H7347791   2.770   7.471   4.963 -0.6118  0.1692  0.2696
  100MOL    O7447792   2.536   7.507   5.019  0.0502  0.1935 -0.7067
  100MOL    C7547793   2.404   7.525   5.067  0.0956  0.4505 -0.2240
  100MOL    C7647794   2.416   7.617   5.189  0.0223 -0.6247  0.8329
  100MOL    C7747795   2.285   7.636   5.269  0.1555  0.5345 -0.1700
  100MOL    C7847796   2.198   7.750   5.205 -0.3929 -0.6308 -0.0574
  100MOL    O7947797   2.179   7.726   5.068 -0.0335  0.0908 -0.0038
  100MOL    C8047798   2.081   7.788   4.999 -0.1531 -0.2034  0.3807
  100MOL    O8147799   2.008   7.872   5.045 -1.2149  0.2532  0.4125
  100MOL    C8247800   2.090   7.761   4.848 -0.4443 -0.0660 -0.4607
  100MOL    C8347801   2.090   7.609   4.827 -0.1721 -0.2089 -0.1759
  100MOL    C8447802   1.971   7.557   4.749 -0.0027  0.5577 -0.5598
  100MOL    O8547803   1.981   7.512   4.637  0.4511 -0.1847  0.5686
  100MOL    H8647804   2.353   7.575   4.984  3.6492 -0.3094 -2.9582
  100MOL    H8747805   2.368   7.424   5.085  0.0771  0.6575  0.9207
  100MOL    H8847806   2.460   7.706   5.145 -0.9700 -1.4260 -1.8126
  100MOL    H8947807   2.488   7.571   5.258  0.6640  0.1732  0.7115
  100MOL    H9047808   2.305   7.672   5.370 -1.5127 -1.0107  0.7361
  100MOL    H9147809   2.229   7.545   5.290  0.4798  0.0520 -1.3773
  100MOL    H9247810   2.106   7.760   5.262 -0.7588 -2.7302 -0.2440
  100MOL    H9347811   2.247   7.847   5.211  0.2850 -1.0448  1.3231
  100MOL    H9447812   2.188   7.807   4.832  0.9984 -2.6509  0.6224
  100MOL    H9547813   2.013   7.820   4.799 -0.6734 -2.2885 -2.8824
  100MOL    H9647814   2.182   7.571   4.784 -1.2698 -1.9768 -1.0317
  100MOL    H9747815   2.096   7.552   4.919 -0.3902 -0.5694 -0.3831
  100MOL    O9847816   1.860   7.575   4.823  0.4586 -0.1391  0.0417
  100MOL    C9947817   1.743   7.528   4.776 -0.0568 -0.2449 -0.2635
  100MOL   C10047818   1.693   7.616   4.654 -0.1553 -0.1043 -0.5661
  100MOL   C10147819   1.722   7.767   4.653  0.3264 -0.0527  0.1098
  100MOL   C10247820   1.642   7.865   4.738  0.1511 -0.3624 -0.1601
  100MOL   O10347821   1.675   7.854   4.870  0.0532 -0.3570  0.1203
  100MOL   C10447822   1.596   7.793   4.958 -0.0410 -0.1317 -0.6904
  100MOL   O10547823   1.505   7.718   4.936  0.1786  0.0392 -0.0496
  100MOL   C10647824   1.648   7.812   5.099 -0.4969  0.1830 -0.4206
  100MOL   C10747825   1.544   7.796   5.207  0.3009 -0.3246  0.6355
  100MOL   C10847826   1.541   7.656   5.266 -0.0367 -0.5106 -0.1757
  100MOL   O10947827   1.627   7.574   5.240  0.1078 -0.1739  0.0095
  100MOL   H11047828   1.752   7.426   4.739 -1.5075 -0.9391  1.2165
  100MOL   H11147829   1.668   7.523   4.855  1.3420 -0.2660  1.0804
  100MOL   H11247830   1.585   7.607   4.642  0.2937 -1.9948 -3.8184
  100MOL   H11347831   1.743   7.565   4.572  1.9962 -0.7278  1.1019
  100MOL   H11447832   1.722   7.789   4.546  1.0141 -1.7078 -0.2441
  100MOL   H11547833   1.828   7.778   4.676 -0.2470 -0.3686  3.1141
  100MOL   H11647834   1.661   0.089   4.696  1.7401  0.7049  2.8783
  100MOL   H11747835   1.539   7.831   4.724  0.2926  1.0058 -5.2851
  100MOL   H11847836   1.693   0.037   5.095  1.5639 -0.7336 -0.6186
  100MOL   H11947837   1.737   7.754   5.124  1.4109  2.6359 -1.1787
  100MOL   H12047838   1.553   7.862   5.294 -0.0404 -1.1229  1.2800
  100MOL   H12147839   1.444   7.819   5.170  0.2031 -0.5103  0.7830
  100MOL   O12247840   1.425   7.630   5.335  0.5705  0.7591 -0.2783
  100MOL   C12347841   1.411   7.516   5.413  0.5461 -0.5026 -0.1426
  100MOL   C12447842   1.478   7.543   5.548 -0.2744 -0.3316  1.0123
  100MOL   C12547843   1.537   7.404   5.594 -0.2328  0.3590  0.6436
  100MOL   C12647844   1.639   7.405   5.709  0.3134  0.5855 -0.6136
  100MOL   O12747845   1.749   7.488   5.684 -0.3664  0.3286  0.0067
  100MOL   C12847846   1.847   7.427   5.610 -0.7680 -0.0162 -1.0210
  100MOL   O12947847   1.857   7.309   5.573 -0.1829 -0.1020  0.9127
  100MOL   C13047848   1.952   7.526   5.577 -0.0370 -0.3054 -0.2438
  100MOL   C13147849   1.912   7.602   5.453  0.4146  0.1084  0.0111
  100MOL   C13247850   1.883   7.751   5.502  0.1176 -0.3355  0.0273
  100MOL   O13347851   1.944   7.843   5.456  0.0300  0.3226  0.0750
  100MOL   H13447852   1.309   7.479   5.426  0.3452  0.5554  1.4724
  100MOL   H13547853   1.460   7.433   5.361 -0.6720 -1.1174 -0.3233
  100MOL   H13647854   1.399   7.589   5.607 -1.5633  1.1742 -1.8043
  100MOL   H13747855   1.548   7.627   5.546 -2.4237  1.5206  1.5163
  100MOL   H13847856   1.590   7.362   5.509  4.4948  1.2042  3.0570
  100MOL   H13947857   1.452   7.339   5.613  0.7875 -0.4662  2.4273
  100MOL   H14047858   1.592   7.441   5.800  0.3912  0.3824 -0.4940
  100MOL   H14147859   1.670   7.304   5.736 -0.1221  1.0227  1.6116
  100MOL   H14247860   2.050   7.479   5.572 -0.2257 -0.6199 -1.1376
  100MOL   H14347861   1.951   7.593   5.663  0.7908 -0.6651  0.0455
  100MOL   H14447862   1.998   7.590   5.387  1.1587 -2.6988  1.3654
  100MOL   H14547863   1.819   7.566   5.409  0.6600 -0.8055  0.2344
  100MOL   O14647864   1.787   7.760   5.589  0.4353 -0.3090 -0.3483
  100MOL   C14747865   1.749   0.011   5.637 -0.3332 -0.1355 -0.0263
  100MOL   C14847866   1.818   0.033   5.776  0.6916 -0.4617 -0.2626
  100MOL   C14947867   1.772   7.804   5.882 -0.7537 -0.4809  0.2638
  100MOL   C15047868   1.852   7.831   6.017  0.5416 -0.0573  0.9072
  100MOL   O15147869   1.816   0.086   6.065 -0.2999  0.0044  0.8697
  100MOL   C15247870   1.843   0.123   6.194  0.9013  0.6460 -0.6890
  100MOL   O15347871   1.916   0.056   6.275  0.6390  0.3137  0.6216
  100MOL   C15447872   1.761   0.246   6.237  0.4284 -0.1162  0.1290
  100MOL   C15547873   1.603   0.203   6.231  0.1154 -0.8593  0.1672
  100MOL   C15647874   1.526   0.298   6.136 -0.7488 -0.8284  0.0875
  100MOL   O15747875   1.446   0.260   6.052 -0.1656 -0.3462  0.5906
  100MOL   H15847876   1.770   0.089   5.564 -2.8386  0.9831  0.4004
  100MOL   H15947877   1.641   0.013   5.645 -0.5063 -2.5576 -1.2127
  100MOL   H16047878   1.766   0.119   5.818  0.0125 -1.9763  2.1008
  100MOL   H16147879   1.927   0.038   5.768  0.6531 -2.4739 -2.9564
  100MOL   H16247880   1.801   7.700   5.862  1.6519  0.0811  0.6672
  100MOL   H16347881   1.664   7.802   5.896 -0.5415 -2.4453  1.8884
  100MOL   H16447882   1.834   7.764   6.101 -1.2581 -2.0159 -0.9763
  100MOL   H16547883   1.961   7.829   6.007  0.4935 -0.0048  0.3559
  100MOL   H16647884   1.789   0.330   6.174 -1.5610 -0.3752 -1.1468
  100MOL   H16747885   1.792   0.265   6.340  0.7467 -0.5925  0.1218
  100MOL   H16847886   1.585   0.098   6.208 -2.8738  0.3408 -3.5506
  100MOL   H16947887   1.571   0.216   6.335 -1.1578 -1.0815 -0.1880
  100MOL   O17047888   1.545   0.430   6.165  0.2380 -0.5594  0.6263
  100MOL   C17147889   1.512   0.535   6.070 -0.3717  0.2386  0.7424
  100MOL   C17247890   1.414   0.643   6.113  0.6719 -0.3004  0.7341
  100MOL   C17347891   1.280   0.587   6.162  0.0425  0.8161 -0.5106
  100MOL   C17447892   1.165   0.681   6.204  0.0885 -0.2036 -0.4848
  100MOL   O17547893   1.146   0.789   6.115 -0.9881  0.2718 -0.0934
  100MOL   C17647894   1.030   0.859   6.118 -0.5118 -0.2971 -0.1182
  100MOL   O17747895   0.935   0.846   6.189  0.2875  0.0480  0.3994
  100MOL   C17847896   1.039   0.975   6.019  0.1826  0.8922 -0.0495
  100MOL   C17947897   1.159   1.064   6.042 -0.7140  0.2299  0.7710
  100MOL   C18047898   1.136   1.184   6.133  0.4977  0.0619  0.3686
  100MOL   O18147899   1.171   1.302   6.103 -0.1436  0.3460 -0.3561
  100MOL   H18247900   1.603   0.577   6.028 -0.6514 -1.1637 -1.4040
  100MOL   H18347901   1.471   0.484   5.982 -3.4643 -0.5609  2.5860
  100MOL   H18447902   1.389   0.709   6.030 -2.0764  1.7842  3.1045
  100MOL   H18547903   1.449   0.710   6.192 -0.6273  1.7803 -0.4114
  100MOL   H18647904   1.285   0.508   6.237 -0.1677  0.1113 -1.2238
  100MOL   H18747905   1.244   0.522   6.082 -0.1135  1.0185 -0.6048
  100MOL   H18847906   1.074   0.623   6.210 -1.6480  2.4231 -0.6211
  100MOL   H18947907   1.185   0.718   6.304 -0.3148  0.2076 -0.5544
  100MOL   H19047908   0.949   1.032   6.038 -0.9898 -0.7753 -0.5149
  100MOL   H19147909   1.042   0.930   5.919  0.4666 -0.1750  0.4301
  100MOL   H19247910   1.241   1.014   6.093 -0.7029 -0.5468 -0.0024
  100MOL   H19347911   1.207   1.107   5.955 -2.6791  0.1230 -0.4067
  100MOL   O19447912   1.080   1.142   6.245  0.1877  0.0272 -0.4408
  100MOL   C19547913   1.049   1.224   6.353  0.5662  0.5810 -0.0943
  100MOL   C19647914   1.018   1.130   6.470 -0.4926  0.3416 -0.6294
  100MOL   C19747915   1.143   1.057   6.518  0.0508 -0.8336  0.1872
  100MOL   C19847916   1.119   0.936   6.616 -0.3225  0.3699  0.1586
  100MOL   O19947917   1.038   0.838   6.549 -0.2545 -0.0342  0.5345
  100MOL   C20047918   0.982   0.745   6.615  0.2548  0.0964 -0.3043
  100MOL   O20147919   0.995   0.722   6.737 -0.3146  0.0766 -0.1180
  100MOL   C20247920   0.909   0.649   6.526 -0.1219  0.2000 -0.5679
  100MOL   C20347921   0.799   0.570   6.587 -0.1718 -0.1581 -0.0223
  100MOL   C20447922   0.798   0.422   6.545 -0.3133  1.0067 -0.0190
  100MOL   O20547923   0.889   0.383   6.468 -0.1038  0.6524  0.7470
  100MOL   H20647924   1.125   1.294   6.385  0.8252 -0.1198  0.8476
  100MOL   H20747925   0.962   1.279   6.316  0.9551  0.0957 -1.7898
  100MOL   H20847926   0.953   1.062   6.415  3.3357 -2.1715 -2.2024
  100MOL   H20947927   0.972   1.189   6.549  1.1095  1.1651 -0.2766
  100MOL   H21047928   1.202   1.135   6.567 -1.2046  0.3985 -0.2358
  100MOL   H21147929   1.200   1.021   6.433  0.6665 -1.1968  0.7496
  100MOL   H21247930   1.199   0.879   6.661 -0.4823  0.2269  0.2614
  100MOL   H21347931   1.066   0.978   6.701  0.3455  0.6579  0.4374
  100MOL   H21447932   0.995   0.587   6.499 -0.5020 -0.2865 -0.6853
  100MOL   H21547933   0.872   0.703   6.439  0.0122 -1.6507 -1.8291
  100MOL   H21647934   0.814   0.561   6.694  0.9046  1.8944  0.0155
  100MOL   H21747935   0.703   0.621   6.580 -0.9473 -1.7071 -1.2830
  100MOL   O21847936   0.683   0.366   6.567  0.3435  0.1016 -0.1306
  100MOL   C21947937   0.649   0.242   6.516  0.1419 -0.5082  0.3568
  100MOL   C22047938   0.575   0.157   6.614  0.0482  1.0468  0.0466
  100MOL   C22147939   0.425   0.196   6.638  0.4953  0.3866 -0.2581
  100MOL   C22247940   0.358   0.079   6.701  0.4197 -0.2324  0.1909
  100MOL   O22347941   0.237   0.119   6.768  0.4484 -0.3273 -0.1934
  100MOL   C22447942   0.244   0.151   6.900  0.2107  0.2475  0.0042
  100MOL   O22547943   0.345   0.159   6.967 -0.3045 -0.3089 -0.6216
  100MOL   C22647944   0.107   0.185   6.953  0.3101  0.5885 -0.3075
  100MOL   C22747945   0.109   0.195   7.105 -0.2996  0.0044 -0.0531
  100MOL   C22847946   0.043   0.082   7.169 -0.1051  0.1999 -0.0622
  100MOL   O22947947   7.797   0.079   7.193  0.3256 -0.3616 -0.5680
  100MOL   H23047948   0.590   0.251   6.425 -0.4501 -1.8331  0.5886
  100MOL   H23147949   0.736   0.194   6.471 -0.2488 -0.5683 -0.3471
  100MOL   H23247950   0.633   0.151   6.706  0.5416  1.1676 -0.2557
  100MOL   H23347951   0.580   0.061   6.562  1.7060  0.3401  1.4363
  100MOL   H23447952   0.366   0.226   6.552  0.5746 -1.5037 -0.9828
  100MOL   H23547953   0.427   0.287   6.699  0.1471 -0.0822  0.4576
  100MOL   H23647954   0.336   0.006   6.623  2.7690 -0.4665 -0.3182
  100MOL   H23747955   0.423   0.025   6.770 -0.3633 -1.5105 -0.0506
  100MOL   H23847956   0.044   0.108   6.908 -3.6244  2.5422  1.6222
  100MOL   H23947957   0.079   0.280   6.907  1.5548  1.5566  0.9169
  100MOL   H24047958   0.214   0.204   7.135  0.2152 -1.7952 -1.2234
  100MOL   H24147959   0.060   0.281   7.152 -0.6508 -1.2149  1.8317
  100MOL   O24247960   0.123   7.849   7.174 -0.2210  0.8910 -0.1270
  100MOL   C24347961   0.072   7.727   7.223 -0.2233 -0.2227 -0.2856
  100MOL   C24447962   0.020   7.636   7.104 -0.3934 -0.4528  0.1111
  100MOL   C24547963   0.011   7.490   7.154 -0.2258 -0.5405 -0.0267
  100MOL   C24647964   7.839   7.404   7.032  0.4076  0.0527  0.5291
  100MOL   O24747965   7.846   7.262   7.051  0.0529 -0.1711  0.5081
  100MOL   C24847966   7.734   7.199   7.087  0.6271  0.0589 -0.7504
  100MOL   O24947967   7.621   7.248   7.094 -0.4672 -0.0893  0.3350
  100MOL   C25047968   7.763   7.053   7.128  0.2701  0.0513  0.7737
  100MOL   C25147969   7.824   7.035   7.269 -0.1892 -0.1694  0.3146
  100MOL   C25247970   0.101   7.013   7.250  0.7813  0.0826  0.0098
  100MOL   O25347971   0.143   6.902   7.211  0.0768  0.3041  0.6446
  100MOL   H25447972   0.148   7.668   7.274 -1.5760 -0.4376  1.5488
  100MOL   H25547973   0.008   7.747   7.309  1.7779 -0.4184  1.3046
  100MOL   H25647974   0.103   7.635   7.033  0.4290  3.2967  0.9449
  100MOL   H25747975   7.802   7.675   7.062  0.0191  1.1640  0.6780
  100MOL   H25847976   7.818   7.486   7.239 -0.6980  1.4581 -0.2848
  100MOL   H25947977   0.113   7.466   7.185 -1.0109 -2.0498  1.5028
  100MOL   H26047978   7.746   7.443   6.991  0.3284 -1.6199 -0.9575
  100MOL   H26147979   0.032   7.417   6.947 -1.3387  1.1967 -0.7355
  100MOL   H26247980   7.830   7.007   7.056 -1.1428 -0.7875 -0.0358
  100MOL   H26347981   7.674   6.989   7.122  1.2027 -1.2695  0.9253
  100MOL   H26447982   7.806   7.118   7.337 -0.5855 -2.2704  2.8476
  100MOL   H26547983   7.782   6.950   7.322 -1.1650 -2.6917 -4.2699
  100MOL   O26647984   0.172   7.126   7.273 -0.2307  0.2834 -0.6482
  100MOL   C26747985   0.315   7.126   7.281  0.4750 -0.4721  0.5344
  100MOL   C26847986   0.381   7.194   7.161  0.7591  0.4402 -0.3786
  100MOL   C26947987   0.530   7.199   7.184 -0.1959 -0.0160 -0.0583
  100MOL   C27047988   0.606   7.215   7.053  0.1240  0.6867  0.0178
  100MOL   O27147989   0.743   7.190   7.079 -0.0988  0.2896  0.0489
  100MOL   C27247990   0.829   7.278   7.019 -0.5089 -0.2921 -0.0853
  100MOL   O27347991   0.802   7.377   6.950  0.1942  0.0891  0.1077
  100MOL   C27447992   0.970   7.254   7.074  0.0126  0.0367 -0.4346
  100MOL   C27547993   1.077   7.351   7.016 -0.5170 -0.5168  0.7395
  100MOL   C27647994   1.214   7.294   7.039 -0.2230 -0.1449  0.2638
  100MOL   O27747995   1.308   7.290   6.961 -0.3450  0.0441 -0.5340
  100MOL   H27847996   0.346   7.181   7.370  1.5635  1.3119 -0.8914
  100MOL   H27947997   0.366   7.031   7.293  0.8948 -0.3707 -0.3398
  100MOL   H28047998   0.355   7.299   7.145 -0.6531 -0.2433 -2.8866
  100MOL   H28147999   0.349   7.128   7.081 -0.9312  0.8986 -0.1010
  100MOL   H28248000   0.564   7.108   7.234 -0.2116  0.3041  0.5458
  100MOL   H28348001   0.567   7.276   7.251  0.8338 -1.7611  1.4489
  100MOL   H28448002   0.568   7.135   6.990 -0.2464  0.1392  0.9149
  100MOL   H28548003   0.594   7.312   7.007  0.5142 -0.7598 -3.2444
  100MOL   H28648004   1.008   7.154   7.056 -1.3093 -0.3651 -1.0505
  100MOL   H28748005   0.964   7.272   7.181  1.1834 -0.4595 -0.2765
  100MOL   H28848006   1.063   7.371   6.910  2.8686  1.9683  0.6961
  100MOL   H28948007   1.079   7.447   7.067 -0.0033  0.1603 -0.5618
  100MOL   O29048008   1.234   7.261   7.176  0.1492 -0.3035 -0.1080
  100MOL   C29148009   1.369   7.237   7.218  0.2845 -0.2753 -0.1105
  100MOL   C29248010   1.449   7.363   7.233  0.1339  0.5724 -0.4734
  100MOL   C29348011   1.593   7.314   7.275 -0.3680  0.1438 -0.7378
  100MOL   C29448012   1.698   7.432   7.297  0.6567  0.4060  0.3314
  100MOL   O29548013   1.659   7.522   7.399 -0.0863 -0.5406  0.0364
  100MOL   C29648014   1.697   7.505   7.521  0.7656  0.1242 -0.3724
  100MOL   O29748015   1.767   7.412   7.562 -0.4405 -0.7091 -0.7878
  100MOL   C29848016   1.635   7.607   7.617  0.1532  0.6245  0.2685
  100MOL   C29948017   1.605   7.563   7.764 -0.3506  0.4584  0.1255
  100MOL   C30048018   1.474   7.489   7.771  0.0873  0.6723  0.5543
  100MOL   O30148019   1.460   7.372   7.795  0.2732 -0.0053  0.2488
  100MOL   H30248020   1.378   7.180   7.310  2.2009 -1.8852 -1.2634
  100MOL   H30348021   1.414   7.171   7.144  2.0502  0.3692  0.3562
  100MOL   H30448022   1.394   7.430   7.299  0.5241  0.0332  0.4208
  100MOL   H30548023   1.451   7.421   7.142 -0.5557  1.1612 -0.1154
  100MOL   H30648024   1.644   7.246   7.206 -0.2282  0.7748 -1.2519
  100MOL   H30748025   1.579   7.259   7.368 -0.7322 -0.3629 -1.0895
  100MOL   H30848026   1.792   7.384   7.324  0.9646  0.5246 -0.5202
  100MOL   H30948027   1.717   7.473   7.198  0.2150 -3.1183 -1.3019
  100MOL   H31048028   1.545   7.642   7.567 -1.0804 -1.8494  0.6445
  100MOL   H31148029   1.704   7.691   7.623 -0.7163  1.5982 -2.6683
  100MOL   H31248030   1.683   7.502   7.809 -0.4476  0.4096  0.2280
  100MOL   H31348031   1.583   7.651   7.824 -3.2078 -0.6287  0.7620
  100MOL   O31448032   1.369   7.572   7.727 -0.0168 -0.0427  0.3221
  100MOL   C31548033   1.236   7.526   7.717  0.0917 -0.2390  0.2393
  100MOL   C31648034   1.217   7.457   7.584 -0.4508 -0.8206 -0.0995
  100MOL   C31748035   1.079   7.399   7.556 -0.2705  0.1335 -0.1606
  100MOL   C31848036   0.963   7.491   7.581 -0.0889 -0.5033 -0.1911
  100MOL   O31948037   0.964   7.587   7.470  0.1433 -0.0881  0.7727
  100MOL   C32048038   0.905   7.565   7.343  0.4783  0.0337 -0.0947
  100MOL   O32148039   0.842   7.465   7.308  0.3406 -0.5291 -0.0263
  100MOL   C32248040   0.944   7.680   7.247  0.0099  0.0909  0.0248
  100MOL   C32348041   1.098   7.726   7.231  0.4717  0.6127  0.5748
  100MOL   C32448042   1.124   7.844   7.318  0.4798 -0.6426  0.2462
  100MOL   O32548043   1.170   0.067   7.261 -0.7196 -0.2384 -0.1963
  100MOL   H32648044   1.222   7.461   7.804  0.0489 -1.4742 -0.6802
  100MOL   H32748045   1.177   7.618   7.727  0.4187  0.1893 -1.5897
  100MOL   H32848046   1.288   7.376   7.566  0.8873  0.1430  0.7185
  100MOL   H32948047   1.238   7.538   7.513  0.4714 -1.4040 -0.4994
  100MOL   H33048048   1.064   7.313   7.621 -1.7116 -0.3844 -1.1436
  100MOL   H33148049   1.083   7.355   7.457  1.6488  0.8816 -0.4234
  100MOL   H33248050   0.866   7.441   7.574 -0.4167  0.0091  0.5938
  100MOL   H33348051   0.974   7.541   7.677  0.0285 -0.8385 -0.0312
  100MOL   H33448052   0.877   7.761   7.275 -0.2355  0.6648 -2.1689
  100MOL   H33548053   0.910   7.645   7.149  0.4330  0.5398 -0.2774
  100MOL   H33648054   1.161   7.640   7.256  0.9182  0.8353  0.2150
  100MOL   H33748055   1.127   7.756   7.130 -0.3866  1.8095  0.6797
  100MOL   O33848056   1.072   7.842   7.447  0.4507 -0.2260 -0.1817
  100MOL   C33948057   1.094   0.079   7.533  0.2730 -0.0335 -0.0275
  100MOL   C34048058   0.981   0.086   7.635 -0.4353  0.6118  0.6146
  100MOL   C34148059   0.838   0.092   7.567  0.2761 -0.3040 -0.0966
  100MOL   C34248060   0.736   0.170   7.658 -0.2001  0.3669  0.0523
  100MOL   O34348061   0.790   0.296   7.686 -0.4497  0.3311 -0.3781
  100MOL   C34448062   0.702   0.396   7.707  0.3017  0.0859  0.4669
  100MOL   O34548063   0.580   0.382   7.724  0.0814 -0.3953 -0.0834
  100MOL   C34648064   0.759   0.539   7.714 -0.3566  0.3696  0.3484
  100MOL   C34748065   0.662   0.651   7.662 -0.4178 -0.0018 -1.0027
  100MOL   C34848066   0.718   0.734   7.558  0.7847  0.2389 -0.4514
  100MOL   O34948067   0.839   0.762   7.542  0.0868 -0.0237  0.3939
  100MOL   H35048068   1.190   0.064   7.582 -0.2104  0.8405  1.2242
  100MOL   H35148069   1.097   0.169   7.472 -2.6754  0.4291  0.4095
  100MOL   H35248070   0.993   0.187   7.674  2.1508  0.0937  1.3101
  100MOL   H35348071   0.987   0.011   7.714  2.2776 -0.9132 -0.9405
  100MOL   H35448072   0.811   7.869   7.527  1.4935 -0.9338  0.5793
  100MOL   H35548073   0.859   0.153   7.479  0.8560 -0.7423 -0.2630
  100MOL   H35648074   0.645   0.170   7.597 -0.8923 -0.3472  1.0671
  100MOL   H35748075   0.707   0.121   7.751  0.1189 -0.8701 -0.4793
  100MOL   H35848076   0.852   0.536   7.657  0.3491  1.0864  1.4383
  100MOL   H35948077   0.778   0.558   7.819  1.0319  0.7034  0.0451
  100MOL   H36048078   0.575   0.606   7.615 -0.4361 -0.3916 -0.5959
  100MOL   H36148079   0.620   0.707   7.746 -0.2234  0.6614 -1.3386
  100MOL   O36248080   0.618   0.779   7.477 -0.1640  0.0267 -0.1094
  100MOL   C36348081   0.651   0.861   7.365 -0.8307  0.0745  0.3319
  100MOL   C36448082   0.681   1.001   7.401 -0.3487  0.9005  0.1048
  100MOL   C36548083   0.649   1.115   7.303  0.2261  0.4031  0.1157
  100MOL   C36648084   0.695   1.251   7.353  0.2916 -0.1447 -0.6842
  100MOL   O36748085   0.657   1.266   7.490 -0.4438  0.3368 -0.7298
  100MOL   C36848086   0.529   1.286   7.518  0.3875 -0.1421  0.4211
  100MOL   O36948087   0.435   1.293   7.439  0.0373 -0.0555  0.2115
  100MOL   C37048088   0.496   1.302   7.667 -0.5296  0.4235 -0.2503
  100MOL   C37148089   0.515   1.159   7.735  0.1327 -0.1159  0.1733
  100MOL   C37248090   0.526   1.161   0.015 -0.4166 -0.1826  0.8200
  100MOL   O37348091   0.545   1.056   0.072  0.3330 -0.5846 -0.1091
  100MOL   H37448092   0.733   0.820   7.307 -0.7824 -0.4037  0.7307
  100MOL   H37548093   0.566   0.859   7.297 -0.2828  1.1127 -0.3853
  100MOL   H37648094   0.786   1.009   7.429  0.0127 -0.4103 -0.7701
  100MOL   H37748095   0.626   1.026   7.491 -0.9765  1.4320 -0.4241
  100MOL   H37848096   0.541   1.114   7.292  0.1932 -2.3983  0.2156
  100MOL   H37948097   0.681   1.077   7.206  2.1232  1.5303  0.2633
  100MOL   H38048098   0.804   1.251   7.354  0.3089  1.2784 -1.8117
  100MOL   H38148099   0.655   1.327   7.286 -2.3905 -0.6925  0.2087
  100MOL   H38248100   0.400   1.350   7.682 -1.0343 -0.6659  0.0425
  100MOL   H38348101   0.565   1.363   7.726 -2.9997  0.3078  2.8753
  100MOL   H38448102   0.436   1.093   7.701 -0.5340  0.5270  0.4705
  100MOL   H38548103   0.609   1.123   7.693  0.1532 -0.6635  0.6896
  100MOL   O38648104   0.539   1.277   0.072  0.6513 -0.0455  0.2053
  100MOL   C38748105   0.553   1.284   0.213  0.1101  0.2331  0.5285
  100MOL   C38848106   0.692   1.310   0.268 -0.1430  1.0360 -0.5711
  100MOL   C38948107   0.739   1.453   0.268 -0.6157 -0.3729  1.1399
  100MOL   C39048108   0.890   1.480   0.307  0.2238  0.2973  0.2560
  100MOL   O39148109   0.925   1.617   0.289 -0.1240 -0.6699 -0.4448
  100MOL   C39248110   0.936   1.705   0.395 -0.0701 -0.4346  0.0079
  100MOL   O39348111   0.915   1.672   0.510 -0.3663 -0.0258 -0.0447
  100MOL   C39448112   0.970   1.850   0.347 -0.1369  0.5545  0.0923
  100MOL   C39548113   1.108   1.860   0.282 -0.5635  0.0165 -0.2080
  100MOL   C39648114   1.125   1.788   0.146 -0.2228 -0.4402 -0.1710
  100MOL   O39748115   1.178   1.672   0.141 -0.7859 -0.0528  0.2821
  100MOL   H39848116   0.501   1.372   0.251  0.4402  0.5803  0.1912
  100MOL   H39948117   0.502   1.199   0.258  2.9789 -1.3368  0.9500
  100MOL   H40048118   0.767   1.250   0.216 -0.4969  0.2590 -0.1988
  100MOL   H40148119   0.700   1.274   0.371 -1.6603 -0.8416 -1.0672
  100MOL   H40248120   0.670   1.507   0.333 -0.9657  0.9331 -0.3053
  100MOL   H40348121   0.719   1.495   0.170 -2.4241 -1.0047  1.2144
  100MOL   H40448122   0.900   1.450   0.411  1.2998 -0.0108  0.0664
  100MOL   H40548123   0.963   1.422   0.250  0.9805  2.4807 -1.0496
  100MOL   H40648124   0.957   1.916   0.433 -3.4665 -1.2793  1.0740
  100MOL   H40748125   0.892   1.874   0.276 -1.0336  1.1612  1.2564
  100MOL   H40848126   1.119   1.968   0.267 -1.5748  0.2819  0.9241
  100MOL   H40948127   1.191   1.818   0.340  0.0949  1.7555  0.1406
  100MOL   O41048128   1.086   1.863   0.046  0.0901 -0.1903  0.4469
  100MOL   C41148129   1.117   1.810   7.794 -0.2967 -0.1030  0.4162
  100MOL   C41248130   1.096   1.914   7.687 -0.1678 -0.0692  0.0423
  100MOL   C41348131   1.079   1.844   7.545  0.2039  0.2085  0.6950
  100MOL   C41448132   1.083   1.939   7.427 -0.4515 -0.3486  0.5668
  100MOL   O41548133   0.986   2.040   7.438 -0.2001  1.2290 -0.1046
  100MOL   C41648134   0.951   2.098   7.322 -0.3127 -0.0866 -0.3800
  100MOL   O41748135   1.000   2.082   7.211 -0.3901  0.4421  0.0530
  100MOL   C41848136   0.824   2.177   7.343 -0.4997 -0.0064  0.0157
  100MOL   C41948137   0.780   2.257   7.219  0.1909 -0.3325 -0.3434
  100MOL   C42048138   0.656   2.347   7.245 -0.3648 -0.0929  0.8043
  100MOL   O42148139   0.559   2.348   7.170 -0.2564 -0.2646  0.4036
  100MOL   H42248140   1.224   1.787   7.799 -0.5068 -1.9444 -2.5148
  100MOL   H42348141   1.070   1.715   7.768  0.0733 -0.2443  0.2597
  100MOL   H42448142   1.182   1.981   7.675 -0.9327  0.9898  0.4445
  100MOL   H42548143   1.014   1.982   7.709  0.5936  1.2205 -1.0062
  100MOL   H42648144   0.981   1.795   7.540 -0.2369  1.3141 -3.0635
  100MOL   H42748145   1.160   1.772   7.540  0.4105  0.4730  0.2163
  100MOL   H42848146   1.185   1.977   7.430 -0.4334  0.0076 -3.1118
  100MOL   H42948147   1.069   1.878   7.338  0.1984 -0.2745  0.4114
  100MOL   H43048148   0.843   2.251   7.420  3.2496 -1.7855  0.8707
  100MOL   H43148149   0.741   2.121   7.386 -0.6636 -1.8017 -2.5024
  100MOL   H43248150   0.856   2.322   7.175 -0.6079 -1.2956 -3.2812
  100MOL   H43348151   0.753   2.194   7.134 -0.2688 -1.9183  0.9490
  100MOL   O43448152   0.679   2.426   7.346 -0.5440 -0.3696 -0.4284
  100MOL   C43548153   0.582   2.521   7.383  0.4414  0.5051  0.4639
  100MOL   C43648154   0.634   2.617   7.491 -0.2109  0.1924 -0.3732
  100MOL   C43748155   0.708   2.541   7.611  0.4028  0.0663 -0.3401
  100MOL   C43848156   0.761   2.647   7.706 -0.1557  0.3694  0.1756
  100MOL   O43948157   0.863   2.732   7.642  0.0860 -0.2515  0.2814
  100MOL   C44048158   0.948   2.808   7.704 -0.4482  0.0525 -0.1974
  100MOL   O44148159   0.963   2.829   7.824 -0.1404  0.0069  0.4353
  100MOL   C44248160   1.046   2.870   7.617 -0.3178  0.2781  0.5739
  100MOL   C44348161   0.971   2.947   7.505  0.3274  0.3726  0.3004
  100MOL   C44448162   0.968   3.099   7.520 -0.7858 -0.3618  0.7242
  100MOL   O44548163   1.028   3.168   7.440  0.7747 -0.0501  0.5836
  100MOL   H44648164   0.553   2.574   7.292  0.8178  1.0039  0.6354
  100MOL   H44748165   0.498   2.467   7.428  2.1469 -3.1091 -0.5483
  100MOL   H44848166   0.556   2.679   7.533 -0.5661 -0.6366  0.2024
  100MOL   H44948167   0.704   2.687   7.445 -0.9311  0.7882 -0.5571
  100MOL   H45048168   0.785   2.477   7.568  0.4130 -0.7769  0.9078
  100MOL   H45148169   0.634   2.479   7.660  0.7899  0.1535  0.3566
  100MOL   H45248170   0.679   2.705   7.747 -2.4565 -1.7565 -1.3036
  100MOL   H45348171   0.815   2.595   7.786  1.7658  0.4652 -1.0191
  100MOL   H45448172   1.104   2.796   7.562 -2.9249 -0.7875 -0.8216
  100MOL   H45548173   1.116   2.933   7.672  0.9493 -1.5057  1.0462
  100MOL   H45648174   1.026   2.937   7.411  0.4819 -1.8800  0.6064
  100MOL   H45748175   0.877   2.898   7.479 -0.8478  1.9411  1.5612
  100MOL   O45848176   0.892   3.141   7.619  0.0756  0.2791 -0.1171
  100MOL   C45948177   0.901   3.272   7.652  0.6663 -0.2740 -0.8148
  100MOL   C46048178   0.800   3.292   7.758  0.3632 -0.7145 -0.9588
  100MOL   C46148179   0.830   3.425   7.833  0.1012  0.0262 -0.0178
  100MOL   C46248180   0.754   3.441   0.088 -0.3743 -0.3390  0.4279
  100MOL   O46348181   0.618   3.396   0.078  0.3423  0.5533  0.6200
  100MOL   C46448182   0.524   3.498   0.065 -0.2472 -0.4765  0.5199
  100MOL   O46548183   0.550   3.617   0.057  0.4954  0.3066  0.0990
  100MOL   C46648184   0.383   3.437   0.058 -0.5241 -0.7263 -0.8005
  100MOL   C46748185   0.280   3.524   0.146 -0.0449 -0.8451  0.2475
  100MOL   C46848186   0.228   3.637   0.054 -0.5637 -0.5634 -0.3709
  100MOL   O46948187   0.166   3.616   7.819 -0.2812 -0.3091 -0.4574
  100MOL   H47048188   0.999   3.292   7.695  0.7228 -0.8760 -0.6516
  100MOL   H47148189   0.914   3.345   7.572  0.9145  0.4970 -0.0795
  100MOL   H47248190   0.787   3.213   7.832 -0.1969  0.4155  0.1730
  100MOL   H47348191   0.704   3.296   7.707  0.0849  0.3411 -0.3763
  100MOL   H47448192   0.798   3.510   7.772 -0.8770 -0.5328 -0.2882
  100MOL   H47548193   0.937   3.441   7.846  0.1052 -0.3070  0.3396
  100MOL   H47648194   0.807   3.374   0.155 -0.3551 -0.0425  0.7066
  100MOL   H47748195   0.757   3.541   0.130 -0.9006 -0.7765  1.5066
  100MOL   H47848196   0.384   3.332   0.089  0.8298 -0.7164 -0.7945
  100MOL   H47948197   0.355   3.443   7.828 -0.2099 -0.8623 -0.8906
  100MOL   H48048198   0.191   3.468   0.175  1.8353 -3.8456  0.3908
  100MOL   H48148199   0.321   3.557   0.241 -0.5887  2.3359 -0.5354
  100MOL   H48248200   0.264   3.736   0.080  0.5546 -0.1071 -3.3408
  101MOL     O148201   4.224   3.438   4.224 -0.2065 -0.2967  0.8063
  101MOL     C248202   4.211   3.351   4.114  0.4660 -0.4928  0.0468
  101MOL     C348203   4.088   3.267   4.133 -0.3667  0.2811 -0.7096
  101MOL     C448204   4.074   3.169   4.016 -0.0153 -0.0590  0.9171
  101MOL     C548205   3.932   3.113   3.999  0.5221 -0.0755 -0.6276
  101MOL     O648206   3.831   3.214   4.005 -0.0014 -0.5581 -0.2814
  101MOL     C748207   3.738   3.208   4.107 -0.0560  0.1324 -0.2965
  101MOL     O848208   3.748   3.139   4.211 -0.3632 -0.0629  0.1878
  101MOL     C948209   3.622   3.306   4.084  0.9049 -0.7692  0.2196
  101MOL    C1048210   3.499   3.208   4.072  0.0533  0.4233  0.3379
  101MOL    C1148211   3.493   3.127   3.940  0.0600 -0.5347 -0.0129
  101MOL    O1248212   3.441   3.175   3.836 -0.3196 -0.0388  0.5593
  101MOL    H1348213   4.199   3.409   4.022  0.7204 -1.6917 -0.7601
  101MOL    H1448214   4.301   3.290   4.105 -0.0713 -1.1224 -1.0856
  101MOL    H1548215   4.004   3.337   4.136 -0.2234  0.4379 -0.1484
  101MOL    H1648216   4.080   3.206   4.223 -1.3232 -0.5485 -1.3548
  101MOL    H1748217   4.137   3.083   4.036 -1.0767 -0.7886  1.1025
  101MOL    H1848218   4.124   3.208   3.926 -1.5398  1.4306  0.6829
  101MOL    H1948219   3.924   3.062   3.902 -1.1095 -0.8778 -0.0881
  101MOL    H2048220   3.906   3.035   4.071  1.1250 -0.9013 -1.2930
  101MOL    H2148221   3.641   3.360   3.991  2.5391  0.3071  1.1556
  101MOL    H2248222   3.608   3.383   4.159  0.1644 -0.6200 -0.0679
  101MOL    H2348223   3.505   3.140   4.157  0.4024  0.1850  0.1253
  101MOL    H2448224   3.410   3.271   4.072  1.7153  2.8782  0.0174
  101MOL    H2548225   4.222   3.381   4.300  0.5058 -0.8465  0.4142
  101MOL    O2648226   3.531   2.998   3.956  0.6517 -0.2483 -0.0104
  101MOL    C2748227   3.522   2.895   3.862 -0.0229 -0.5295 -0.1642
  101MOL    C2848228   3.655   2.852   3.790 -0.0644  0.3627 -0.2271
  101MOL    C2948229   3.727   2.960   3.717  0.4478  0.6642 -0.0568
  101MOL    C3048230   3.863   2.916   3.658  0.1963 -0.0853  0.2423
  101MOL    O3148231   3.902   3.000   3.553 -0.0679  0.4185  0.2563
  101MOL    C3248232   4.028   3.048   3.537  0.2695  0.6269 -0.1386
  101MOL    O3348233   4.127   3.023   3.605  0.1596  0.0324 -0.2063
  101MOL    C3448234   4.048   3.133   3.414  0.4078  0.9744  0.3783
  101MOL    C3548235   4.021   3.054   3.289  1.2628  0.0925  0.2883
  101MOL    C3648236   3.876   3.066   3.245 -0.5316 -0.0839  0.6216
  101MOL    O3748237   3.815   3.172   3.232  0.1367  0.0532  0.3594
  101MOL    H3848238   3.465   2.815   3.909  0.9917 -1.4975 -0.5539
  101MOL    H3948239   3.450   2.920   3.784  1.3302  2.5515 -0.5016
  101MOL    H4048240   3.621   2.785   3.711 -2.1052 -0.2938  1.1573
  101MOL    H4148241   3.708   2.795   3.867 -0.2732  0.6404  0.1235
  101MOL    H4248242   3.747   3.047   3.779 -2.3512  1.0572  0.3560
  101MOL    H4348243   3.668   2.993   3.632  0.0607  0.3291  0.0802
  101MOL    H4448244   3.947   2.932   3.726  1.5944 -1.5908 -1.0846
  101MOL    H4548245   3.854   2.817   3.612 -2.0061  0.9487 -1.6432
  101MOL    H4648246   4.151   3.169   3.415  0.6353  0.3362 -0.0220
  101MOL    H4748247   3.970   3.210   3.420  1.0034  1.4465  2.4646
  101MOL    H4848248   4.071   3.097   3.202  0.2248  1.6222  0.4266
  101MOL    H4948249   4.051   2.949   3.293  1.7530  0.1779 -1.0835
  101MOL    O5048250   3.827   2.946   3.215 -0.7266  0.0921  0.1723
  101MOL    C5148251   3.686   2.928   3.192 -0.4904 -0.0658 -0.0193
  101MOL    C5248252   3.625   2.881   3.324 -0.5793 -0.3595  0.3661
  101MOL    C5348253   3.469   2.906   3.334 -0.1461  0.1722 -0.1807
  101MOL    C5448254   3.417   2.869   3.473 -0.1153 -0.4593 -0.1040
  101MOL    O5548255   3.272   2.879   3.471 -0.0049  0.2695  0.1722
  101MOL    C5648256   3.194   2.862   3.587 -0.2557 -0.0876 -0.4823
  101MOL    O5748257   3.235   2.844   3.706  0.1010  0.0310  0.1142
  101MOL    C5848258   3.048   2.861   3.546  0.5661  0.2025  0.2298
  101MOL    C5948259   2.976   2.742   3.595 -0.0864 -0.0392 -0.5990
  101MOL    C6048260   3.014   2.597   3.548  0.1298 -0.1897  0.4449
  101MOL    O6148261   3.059   2.572   3.435  0.2211 -0.0322 -0.8909
  101MOL    H6248262   3.638   3.019   3.156 -1.0505  0.0562  1.0047
  101MOL    H6348263   3.682   2.845   3.122  0.1664  0.9118 -1.2454
  101MOL    H6448264   3.665   2.960   3.388 -2.5977  0.1822  0.9916
  101MOL    H6548265   3.656   2.783   3.360  0.8900  0.4845  1.5332
  101MOL    H6648266   3.432   2.829   3.265  1.4231 -0.9752  0.2182
  101MOL    H6748267   3.438   3.002   3.294  0.2856  0.4503  0.1542
  101MOL    H6848268   3.440   2.769   3.511 -2.5035 -0.4094  1.5649
  101MOL    H6948269   3.460   2.950   3.531 -3.4156  0.6247  0.9503
  101MOL    H7048270   3.047   2.868   3.437 -2.2067  0.3066  0.2318
  101MOL    H7148271   2.997   2.953   3.576  1.6645  1.5201 -1.8933
  101MOL    H7248272   2.972   2.748   3.704  2.9705 -0.0517 -0.4224
  101MOL    H7348273   2.870   2.752   3.573  0.4377  0.5511 -3.0066
  101MOL    O7448274   2.992   2.504   3.648 -0.0965 -0.2663  0.2684
  101MOL    C7548275   2.995   2.368   3.620 -0.1110  0.0594  0.2504
  101MOL    C7648276   2.862   2.307   3.664 -0.0002 -0.7354 -0.2745
  101MOL    C7748277   2.817   2.342   3.804 -0.2791 -0.3961 -0.1567
  101MOL    C7848278   2.752   2.477   3.824 -0.0110 -0.2318  0.1186
  101MOL    O7948279   2.615   2.474   3.770 -0.6517 -0.0521  0.2436
  101MOL    C8048280   2.591   2.520   3.650 -0.3622  0.0509  0.2129
  101MOL    O8148281   2.671   2.582   3.579  0.0184  0.3133 -0.0878
  101MOL    C8248282   2.449   2.497   3.614  0.3161  0.3722 -0.4114
  101MOL    C8348283   2.404   2.349   3.604  0.1262 -0.5855  0.1916
  101MOL    C8448284   2.502   2.269   3.523  0.0480  0.1833 -0.0778
  101MOL    O8548285   2.529   2.301   3.404  0.0833 -0.0093 -0.1836
  101MOL    H8648286   3.007   2.357   3.512  0.4573 -0.2341  0.3419
  101MOL    H8748287   3.073   2.322   3.680 -1.9647  0.8407  3.3805
  101MOL    H8848288   2.866   2.199   3.651 -1.0943 -0.5040 -2.7763
  101MOL    H8948289   2.790   2.333   3.586  1.7041  2.2748 -0.9397
  101MOL    H9048290   2.908   2.352   3.863 -2.2943 -0.4759  3.0680
  101MOL    H9148291   2.763   2.257   3.846 -1.7976 -0.0343 -1.3332
  101MOL    H9248292   2.728   2.487   3.930  0.7902 -0.3483  0.3129
  101MOL    H9348293   2.792   2.574   3.794 -1.2943  0.3557  0.2862
  101MOL    H9448294   2.435   2.545   3.517 -0.8691  0.7884 -0.0432
  101MOL    H9548295   2.386   2.546   3.688  0.8200  1.5339 -0.7404
  101MOL    H9648296   2.403   2.300   3.702  0.3970 -2.9363 -0.9347
  101MOL    H9748297   2.303   2.350   3.563 -0.1698  3.0609  0.9110
  101MOL    O9848298   2.553   2.169   3.595  0.6106  0.0024 -0.6421
  101MOL    C9948299   2.638   2.068   3.537  0.3254  0.2991  0.4209
  101MOL   C10048300   2.549   1.949   3.490 -0.4205  0.2409  0.2791
  101MOL   C10148301   2.469   1.984   3.357  0.0556 -0.7474 -0.3260
  101MOL   C10248302   2.404   1.866   3.292  0.2387 -0.2157  0.1491
  101MOL   O10348303   2.311   1.805   3.375  0.6100 -0.3544 -0.0235
  101MOL   C10448304   2.180   1.837   3.366 -0.9151 -0.3530  0.1269
  101MOL   O10548305   2.130   1.900   3.270 -0.6766  0.3228  0.3125
  101MOL   C10648306   2.093   1.783   3.479 -0.1956  0.0566  0.0244
  101MOL   C10748307   2.079   1.880   3.607  0.4354 -0.8203  0.6058
  101MOL   C10848308   2.035   2.022   3.581 -0.3402  0.6811  0.9362
  101MOL   O10948309   2.104   2.116   3.620  0.4112  0.2762 -0.3014
  101MOL   H11048310   2.700   2.113   3.460  1.2316 -0.3348  0.7665
  101MOL   H11148311   2.696   2.031   3.621  1.4606 -2.2271 -1.4080
  101MOL   H11248312   2.493   1.922   3.579  0.4454  1.1140  1.1088
  101MOL   H11348313   2.613   1.862   3.478 -1.7425 -0.6421 -0.3716
  101MOL   H11448314   2.555   2.011   3.296 -0.5989  2.3291  0.0341
  101MOL   H11548315   2.394   2.059   3.383  1.2517  0.4372 -0.2862
  101MOL   H11648316   2.358   1.893   3.197 -0.0830 -0.8740  0.1171
  101MOL   H11748317   2.485   1.797   3.265  2.0324  1.8465  0.0884
  101MOL   H11848318   2.134   1.688   3.511  1.0240  0.7460  0.5518
  101MOL   H11948319   1.992   1.763   3.443 -0.3528 -1.5747  1.3099
  101MOL   H12048320   2.006   1.845   3.681 -0.6615  0.3148  0.0631
  101MOL   H12148321   2.178   1.895   3.649  0.0629  0.5235  1.0290
  101MOL   O12248322   1.922   2.027   3.509 -0.4501 -0.0938  0.0214
  101MOL   C12348323   1.866   2.149   3.462  0.0437 -0.2897 -0.5487
  101MOL   C12448324   1.875   2.167   3.314  0.4466  0.1988  0.2278
  101MOL   C12548325   1.766   2.090   3.240 -0.3269 -0.4003  0.3055
  101MOL   C12648326   1.816   2.067   3.101  0.4596  0.2548 -0.3979
  101MOL   O12748327   1.834   2.191   3.034  0.3538  0.2734 -0.0447
  101MOL   C12848328   1.892   2.196   2.916  0.9362 -0.4808 -0.2423
  101MOL   O12948329   1.914   2.096   2.842 -0.1477  0.0329 -0.3491
  101MOL   C13048330   1.921   2.340   2.871  0.0214 -0.4840  1.1366
  101MOL   C13148331   1.800   2.436   2.865 -0.0950  0.1904 -0.4214
  101MOL   C13248332   1.831   2.583   2.877 -0.0282 -0.2713 -0.0560
  101MOL   O13348333   1.933   2.639   2.850 -0.0057 -0.1045  0.2442
  101MOL   H13448334   1.763   2.140   3.496 -0.5609  4.8390 -0.5899
  101MOL   H13548335   1.911   2.234   3.513 -2.0812 -0.1938  1.2383
  101MOL   H13648336   1.973   2.134   3.279  0.6043  0.7413  0.1504
  101MOL   H13748337   1.865   2.272   3.288  1.2951  0.1115 -0.4874
  101MOL   H13848338   1.675   2.148   3.229 -0.6830 -1.0703 -0.3184
  101MOL   H13948339   1.737   1.995   3.284  0.3208 -1.2056 -0.9778
  101MOL   H14048340   1.908   2.010   3.093 -0.3871 -1.2925  0.5736
  101MOL   H14148341   1.734   2.009   3.058 -0.3454  0.5562  0.6914
  101MOL   H14248342   1.978   2.330   2.779  0.2379 -3.5794  1.5538
  101MOL   H14348343   1.990   2.380   2.945  3.0553  1.0636 -2.3680
  101MOL   H14448344   1.736   2.417   2.779 -1.1755  1.0197  0.1878
  101MOL   H14548345   1.731   2.417   2.948  0.0654  0.8190 -0.1404
  101MOL   O14648346   1.717   2.651   2.880 -0.3833 -0.5009 -0.0920
  101MOL   C14748347   1.722   2.790   2.858  0.6222 -0.2879  0.6215
  101MOL   C14848348   1.726   2.852   2.998 -0.1073 -0.9012 -0.0959
  101MOL   C14948349   1.707   3.011   2.995 -0.3428 -0.2260 -0.0113
  101MOL   C15048350   1.736   3.076   3.133 -0.7706 -0.1373  0.1710
  101MOL   O15148351   1.652   3.037   3.236  0.0841 -0.6138  0.3610
  101MOL   C15248352   1.679   2.951   3.323 -0.6643 -0.1465  0.2728
  101MOL   O15348353   1.781   2.880   3.326 -0.0753 -0.6364 -0.1810
  101MOL   C15448354   1.596   2.948   3.450  0.8833  0.0417 -0.5939
  101MOL   C15548355   1.451   2.907   3.408  0.6107  0.0770 -0.1608
  101MOL   C15648356   1.358   3.022   3.442  0.4085 -0.2310  0.6426
  101MOL   O15748357   1.286   3.073   3.360 -0.0920 -0.1874 -0.2119
  101MOL   H15848358   1.811   2.819   2.803 -0.2414  0.7408 -0.2383
  101MOL   H15948359   1.634   2.811   2.798 -1.1042 -0.8294  2.8753
  101MOL   H16048360   1.808   2.823   3.064  0.3397 -1.4114 -0.8592
  101MOL   H16148361   1.640   2.810   3.051 -2.1077  0.8915 -1.7979
  101MOL   H16248362   1.605   3.034   2.963 -0.3402  1.4138  1.1117
  101MOL   H16348363   1.766   3.050   2.913 -1.2077 -1.2966 -1.1615
  101MOL   H16448364   1.842   3.061   3.152 -0.5876  0.9484  0.0394
  101MOL   H16548365   1.715   3.183   3.133  0.8624  0.2225 -1.7821
  101MOL   H16648366   1.603   3.039   3.508  1.4082  0.3189 -1.0838
  101MOL   H16748367   1.632   2.869   3.516 -1.4004  0.4220  1.1698
  101MOL   H16848368   1.451   2.878   3.303  0.0054  1.3024 -0.5055
  101MOL   H16948369   1.411   2.825   3.468  1.0152 -0.8767 -1.1676
  101MOL   O17048370   1.364   3.060   3.564  0.1044 -0.2077  0.0847
  101MOL   C17148371   1.289   3.162   3.617  0.8322 -0.2141  0.1205
  101MOL   C17248372   1.324   3.179   3.769  0.0644  0.3672  0.2126
  101MOL   C17348373   1.290   3.058   3.857 -1.0375  0.2588 -0.5999
  101MOL   C17448374   1.326   3.071   4.007  0.3353  0.3056  0.4789
  101MOL   O17548375   1.278   2.965   4.086 -0.0988 -0.0925  0.0143
  101MOL   C17648376   1.365   2.861   4.123  0.0330 -0.4801 -0.2896
  101MOL   O17748377   1.478   2.849   4.083  0.4664  0.0189  0.2982
  101MOL   C17848378   1.292   2.757   4.214  0.8177  0.3560  0.2666
  101MOL   C17948379   1.204   2.666   4.126 -0.3887 -0.4252 -0.9669
  101MOL   C18048380   1.219   2.519   4.171  0.9879 -0.0458  0.2237
  101MOL   O18148381   1.270   2.492   4.278  0.7083  0.2010  0.5438
  101MOL   H18248382   1.317   3.252   3.562 -0.2064 -0.7664 -1.3328
  101MOL   H18348383   1.182   3.144   3.605  0.3338  0.6124  2.8973
  101MOL   H18448384   1.270   3.265   3.809  1.1324  0.1798  2.1429
  101MOL   H18548385   1.430   3.198   3.781 -0.0073 -0.1952  1.9482
  101MOL   H18648386   1.332   2.963   3.823 -1.8352 -0.7761  1.2580
  101MOL   H18748387   1.183   3.049   3.841 -1.3299  2.1184  0.1971
  101MOL   H18848388   1.434   3.075   4.026  0.8352  0.3815 -2.2760
  101MOL   H18948389   1.286   3.162   4.051 -1.3552  0.4491 -1.3106
  101MOL   H19048390   1.237   2.805   4.295 -2.0527 -1.7790 -0.3407
  101MOL   H19148391   1.371   2.701   4.262  0.9218  0.2503 -0.0226
  101MOL   H19248392   1.098   2.692   4.133  0.0456  1.3135 -0.7708
  101MOL   H19348393   1.243   2.674   4.025  0.9376 -0.3468 -0.4570
  101MOL   O19448394   1.187   2.436   4.067 -0.1420 -0.3225  0.2263
  101MOL   C19548395   1.200   2.297   4.073 -0.0926  0.3084 -0.3970
  101MOL   C19648396   1.201   2.235   3.928 -0.3960  0.0417  0.9333
  101MOL   C19748397   1.240   2.089   3.932  0.0601  0.0695  0.5010
  101MOL   C19848398   1.377   2.061   3.990  0.0308 -0.1975 -0.4209
  101MOL   O19948399   1.376   2.048   4.127  0.2834  0.5253 -0.3931
  101MOL   C20048400   1.479   2.008   4.191 -0.0095  0.5370 -0.0374
  101MOL   O20148401   1.570   1.947   4.141  0.8680 -0.0105  0.0174
  101MOL   C20248402   1.471   2.012   4.343  0.3659  0.2072  0.1975
  101MOL   C20348403   1.494   2.157   4.384 -0.0982  0.0071  0.0264
  101MOL   C20448404   1.640   2.203   4.398  0.3833  0.0763  0.1400
  101MOL   O20548405   1.707   2.270   4.315  0.4209 -0.6394 -0.7589
  101MOL   H20648406   1.299   2.289   4.118 -0.2675 -2.0882 -0.3855
  101MOL   H20748407   1.128   2.259   4.146 -1.8355  2.1032 -1.1062
  101MOL   H20848408   1.263   2.293   3.860  1.8081 -2.8695  0.3833
  101MOL   H20948409   1.097   2.243   3.895  0.0389  0.5111 -0.3567
  101MOL   H21048410   1.231   2.048   3.832 -1.4988 -0.0945  0.7004
  101MOL   H21148411   1.179   2.035   4.004  0.7909  0.2580  1.2713
  101MOL   H21248412   1.416   1.969   3.945 -0.9296 -1.0572  0.4564
  101MOL   H21348413   1.440   2.147   3.969 -0.2942 -0.2484 -1.5925
  101MOL   H21448414   1.538   1.949   4.402  0.1181  0.1479  0.4155
  101MOL   H21548415   1.372   1.983   4.380 -0.1460 -1.0353 -2.0380
  101MOL   H21648416   1.457   2.236   4.319  3.3075  0.8257 -0.9622
  101MOL   H21748417   1.451   2.175   4.483  0.5377  1.0278  0.1195
  101MOL   O21848418   1.680   2.168   4.520 -0.1647  0.0680 -0.4966
  101MOL   C21948419   1.794   2.221   4.580  0.0216  0.3707 -0.2011
  101MOL   C22048420   1.754   2.311   4.695  0.3148  0.2434 -0.8217
  101MOL   C22148421   1.654   2.244   4.797  0.0453 -0.0964 -0.1542
  101MOL   C22248422   1.617   2.328   4.927  0.1308  0.0074  0.6741
  101MOL   O22348423   1.531   2.250   5.005 -0.4885 -0.0056  0.3854
  101MOL   C22448424   1.459   2.314   5.095  0.3290  0.0872  1.4560
  101MOL   O22548425   1.453   2.435   5.112 -0.0167 -0.4414 -0.3297
  101MOL   C22648426   1.387   2.221   5.188 -0.7733 -1.0739  0.5420
  101MOL   C22748427   1.265   2.162   5.126 -0.4051 -0.9622  0.5731
  101MOL   C22848428   1.149   2.250   5.155 -0.0039 -0.4818 -0.0529
  101MOL   O22948429   1.118   2.357   5.099 -0.0730 -0.1935 -0.2276
  101MOL   H23048430   1.860   2.141   4.613 -0.7406 -0.4913 -0.7623
  101MOL   H23148431   1.865   2.268   4.512  1.1429 -1.2620 -0.1913
  101MOL   H23248432   1.697   2.394   4.654 -1.1269  0.3249  1.2536
  101MOL   H23348433   1.842   2.351   4.745 -0.8007  1.4643  0.2116
  101MOL   H23448434   1.693   2.144   4.809  1.2856  0.3528 -0.3936
  101MOL   H23548435   1.558   2.242   4.746  1.1935 -1.8958 -2.2842
  101MOL   H23648436   1.706   2.363   4.979  0.5319 -1.0271  0.6888
  101MOL   H23748437   1.558   2.412   4.890 -1.3260 -1.1480  0.3188
  101MOL   H23848438   1.358   2.277   5.277  0.4350  1.4741 -0.6184
  101MOL   H23948439   1.459   2.152   5.233  0.6262  0.7312  1.1571
  101MOL   H24048440   1.286   2.155   5.019 -0.8324 -1.6201  0.5295
  101MOL   H24148441   1.246   2.060   5.161 -1.5830 -0.2578  2.0283
  101MOL   O24248442   1.078   2.202   5.254 -0.0541 -0.3910 -0.0237
  101MOL   C24348443   0.953   2.249   5.287  0.5374 -0.9519  0.3694
  101MOL   C24448444   0.905   2.201   5.424  0.1170 -0.2634 -0.0321
  101MOL   C24548445   0.771   2.267   5.448  0.0697  0.2181  0.2266
  101MOL   C24648446   0.690   2.205   5.561  0.2213 -0.4414  0.1443
  101MOL   O24748447   0.652   2.075   5.523 -0.4563 -0.3096 -0.1659
  101MOL   C24848448   0.590   2.007   5.616  0.1416  0.3478  0.1613
  101MOL   O24948449   0.565   2.036   5.735  0.8641  0.1643 -0.2287
  101MOL   C25048450   0.537   1.874   5.559  0.2334  1.1839 -0.2408
  101MOL   C25148451   0.416   1.911   5.479  0.4062  0.0662  0.0582
  101MOL   C25248452   0.299   1.814   5.493 -0.2397 -0.1523 -0.8066
  101MOL   O25348453   0.270   1.772   5.611  0.0344 -0.1003  0.3454
  101MOL   H25448454   0.960   2.358   5.295 -0.3902 -0.8791  0.2452
  101MOL   H25548455   0.876   2.238   5.211 -1.2594  2.8397  1.5137
  101MOL   H25648456   0.973   2.229   5.505  0.0154 -0.0443 -0.0246
  101MOL   H25748457   0.888   2.093   5.420 -0.1876 -0.2166  0.0196
  101MOL   H25848458   0.710   2.259   5.358  0.6970 -0.2186 -0.1699
  101MOL   H25948459   0.783   2.371   5.478 -1.9945  0.9476 -1.3634
  101MOL   H26048460   0.750   2.199   5.652 -0.3015  0.1692  0.5366
  101MOL   H26148461   0.603   2.269   5.579  1.0013  0.2307  1.6140
  101MOL   H26248462   0.507   1.810   5.642 -0.3089  1.2511 -0.3822
  101MOL   H26348463   0.609   1.813   5.505  1.1887 -0.0129  2.2596
  101MOL   H26448464   0.370   2.005   5.508 -1.4229 -0.7952  0.0034
  101MOL   H26548465   0.449   1.911   5.375  1.1002 -0.9550  0.2718
  101MOL   O26648466   0.245   1.786   5.373  0.1334  0.4638 -0.2574
  101MOL   C26748467   0.130   1.713   5.357 -0.1349 -0.1047 -0.0787
  101MOL   C26848468   0.086   1.699   5.208  0.2077 -0.5190  0.5538
  101MOL   C26948469   0.089   1.841   5.142  0.1488 -0.6859  0.3474
  101MOL   C27048470   0.019   1.837   5.002  0.4430  0.1863  0.0363
  101MOL   O27148471   7.869   1.973   4.960  0.1925  0.2691  0.3011
  101MOL   C27248472   7.797   1.992   4.854 -0.3727  0.3905 -0.1363
  101MOL   O27348473   7.758   1.904   4.783 -0.0250  0.4747 -0.3719
  101MOL   C27448474   7.764   2.137   4.827  0.4713  0.4737 -0.6977
  101MOL   C27548475   7.674   2.158   4.706 -0.1484  0.0267  0.7565
  101MOL   C27648476   7.626   2.297   4.682  0.1047  0.2409  0.1015
  101MOL   O27748477   7.558   2.323   4.583 -0.4162  0.5368  0.0887
  101MOL   H27848478   0.151   1.608   5.381  0.0412  0.1675  0.9848
  101MOL   H27948479   0.044   1.748   5.414 -0.7568  0.0813 -1.1355
  101MOL   H28048480   0.002   1.633   5.188 -0.0718  1.1896 -4.6613
  101MOL   H28148481   0.163   1.643   5.156 -0.4337  0.2897 -1.3199
  101MOL   H28248482   0.194   1.863   5.120 -0.3136 -1.0286 -2.3903
  101MOL   H28348483   0.049   1.912   5.213 -0.5042 -1.0358  0.3348
  101MOL   H28448484   0.082   1.783   4.931  0.2531  1.3835 -1.0609
  101MOL   H28548485   7.802   1.778   5.005  1.4934 -1.4382  0.7690
  101MOL   H28648486   7.856   2.195   4.819  1.0074  0.2639  3.0517
  101MOL   H28748487   7.720   2.177   4.917  0.7017  0.2432 -0.4802
  101MOL   H28848488   7.720   2.139   4.609 -2.3410 -2.3385  0.1194
  101MOL   H28948489   7.581   2.103   4.720  1.8378 -3.8821 -0.6575
  101MOL   O29048490   7.671   2.389   4.776 -0.0375  0.2447 -0.0999
  101MOL   C29148491   7.641   2.521   4.770 -0.2145  0.8830  0.1395
  101MOL   C29248492   7.516   2.536   4.858  0.9513 -0.7536  0.5031
  101MOL   C29348493   7.475   2.682   4.874  0.3898 -0.4069  0.4843
  101MOL   C29448494   7.348   2.692   4.965  0.3749  0.0336  0.1259
  101MOL   O29548495   7.292   2.821   4.963 -0.0232 -0.0438 -1.0418
  101MOL   C29648496   7.243   2.871   5.076  0.2564 -0.1161 -0.3738
  101MOL   O29748497   7.246   2.826   5.193  0.8765  0.1372  0.3779
  101MOL   C29848498   7.177   3.004   5.052  0.2984  0.5696 -0.2566
  101MOL   C29948499   7.035   2.998   5.002 -0.0183 -0.1944 -0.3660
  101MOL   C30048500   6.941   2.949   5.112 -0.2322 -0.6179  0.5158
  101MOL   O30148501   6.914   2.829   5.124  0.6177  0.3157  0.7692
  101MOL   H30248502   7.720   2.576   4.820  0.3869  0.2118 -0.0518
  101MOL   H30348503   7.632   2.554   4.666  0.2498  1.4895  0.2917
  101MOL   H30448504   7.541   2.502   4.958 -0.2303 -1.2879  0.6266
  101MOL   H30548505   7.431   2.479   4.818  0.7875 -1.4347  1.8070
  101MOL   H30648506   7.454   2.738   4.783  0.7959  1.8083  1.7280
  101MOL   H30748507   7.558   2.726   4.930  0.3350 -0.6555  0.7695
  101MOL   H30848508   7.275   2.625   4.921  2.0151  0.3170 -3.2157
  101MOL   H30948509   7.379   2.662   5.065  0.2557  0.5438  0.3192
  101MOL   H31048510   7.226   3.057   4.971 -3.1878  2.7043 -1.0600
  101MOL   H31148511   7.175   3.066   5.142  1.1376  0.4870 -0.1798
  101MOL   H31248512   6.995   3.086   4.952  1.0581  0.5803  0.1204
  101MOL   H31348513   7.034   2.919   4.927  3.7811 -1.5830  0.8944
  101MOL   O31448514   6.895   3.054   5.189 -0.5211  0.9664 -0.1176
  101MOL   C31548515   6.797   3.030   5.294 -0.4805  0.6194  0.2971
  101MOL   C31648516   6.735   3.156   5.339 -0.3890 -0.1002 -0.4648
  101MOL   C31748517   6.633   3.141   5.450 -0.1419 -0.0827 -0.4991
  101MOL   C31848518   6.541   3.259   5.479  0.3209  0.0545 -0.1144
  101MOL   O31948519   6.613   3.382   5.491  0.7077 -0.1030 -0.1831
  101MOL   C32048520   6.557   3.500   5.478 -0.5472 -0.1613  0.1415
  101MOL   O32148521   6.437   3.523   5.452 -0.0320 -0.0282  0.1851
  101MOL   C32248522   6.653   3.616   5.505 -0.3332 -0.5801 -0.4745
  101MOL   C32348523   6.589   3.755   5.470 -0.1531 -0.7362  0.0418
  101MOL   C32448524   6.500   3.819   5.571 -0.7714 -0.4771 -0.1360
  101MOL   O32548525   6.519   3.805   5.689  0.4345 -0.4403  0.3854
  101MOL   H32648526   6.723   2.966   5.246  0.9060 -1.1596  0.5009
  101MOL   H32748527   6.837   2.968   5.374  0.7440 -0.0116 -0.7838
  101MOL   H32848528   6.680   3.201   5.256  0.8666  0.8153 -0.8203
  101MOL   H32948529   6.814   3.226   5.364  0.3469 -1.1460  0.1736
  101MOL   H33048530   6.691   3.109   5.537 -0.5531 -1.2875 -0.6589
  101MOL   H33148531   6.575   3.050   5.432  2.0001 -1.2864 -1.4782
  101MOL   H33248532   6.470   3.251   5.396 -1.8259 -1.2804  1.7822
  101MOL   H33348533   6.469   3.249   5.560  0.8519  0.7249  0.4369
  101MOL   H33448534   6.744   3.614   5.446  0.2187  1.9270  0.2074
  101MOL   H33548535   6.679   3.599   5.609  1.4204  3.8219 -0.0831
  101MOL   H33648536   6.672   3.823   5.448  1.2001 -2.2823  0.3026
  101MOL   H33748537   6.530   3.737   5.380 -0.6147  0.8418  0.0091
  101MOL   O33848538   6.401   3.900   5.525  0.0094  0.0570  0.2815
  101MOL   C33948539   6.319   3.964   5.619 -0.8823  0.1768  0.3927
  101MOL   C34048540   6.180   3.967   5.544 -0.3268  0.0464 -0.0262
  101MOL   C34148541   6.080   4.051   5.619  0.1792  0.1098 -0.0518
  101MOL   C34248542   5.941   4.060   5.542  0.2401  0.3895  0.5155
  101MOL   O34348543   5.858   3.951   5.559 -0.2370 -0.0433 -0.1059
  101MOL   C34448544   5.764   3.958   5.648 -0.1189 -0.3686 -0.3712
  101MOL   O34548545   5.743   4.045   5.731 -0.1298 -0.6700  0.2151
  101MOL   C34648546   5.669   3.846   5.642 -0.3317 -0.4660  0.1542
  101MOL   C34748547   5.593   3.816   5.510  0.3969  0.4103  0.7717
  101MOL   C34848548   5.681   3.765   5.400 -0.7068  0.7690  0.4400
  101MOL   O34948549   5.659   3.804   5.283 -0.3580 -0.5134 -0.2827
  101MOL   H35048550   6.309   3.897   5.705 -0.6157  3.0074  2.7240
  101MOL   H35148551   6.356   4.061   5.652 -1.5964  0.6661 -0.2330
  101MOL   H35248552   6.130   3.871   5.546 -1.4989  0.6367 -0.2513
  101MOL   H35348553   6.183   3.989   5.437 -1.0166  1.1638  0.1731
  101MOL   H35448554   6.124   4.150   5.619 -0.6409  0.4810 -0.4437
  101MOL   H35548555   6.057   4.019   5.720  0.3970  1.6840  0.5092
  101MOL   H35648556   5.891   4.152   5.572 -2.5796 -0.8615 -0.2018
  101MOL   H35748557   5.966   4.064   5.436 -0.2285 -2.6325  0.2521
  101MOL   H35848558   5.595   3.862   5.720  2.5474 -0.7087  3.0580
  101MOL   H35948559   5.718   3.755   5.676  3.2642  0.7397 -1.4831
  101MOL   H36048560   5.508   3.749   5.527 -0.7869  1.9114  0.8515
  101MOL   H36148561   5.549   3.910   5.476 -0.7530  0.2005  1.6452
  101MOL   O36248562   5.770   3.668   5.450  0.4460  0.2807  0.2444
  101MOL   C36348563   5.863   3.610   5.361  0.3026  0.3096 -0.0239
  101MOL   C36448564   5.999   3.675   5.373 -0.0075  0.2291 -0.1560
  101MOL   C36548565   6.101   3.614   5.274  0.1294 -0.6014 -0.5327
  101MOL   C36648566   6.235   3.686   5.272  0.7918  0.7048  0.6852
  101MOL   O36748567   6.331   3.622   5.183  0.0741 -0.0104  1.3208
  101MOL   C36848568   6.374   3.701   5.084 -0.0132 -0.0324 -0.5701
  101MOL   O36948569   6.337   3.815   5.059  0.1149  0.0982 -0.7210
  101MOL   C37048570   6.477   3.634   4.991 -0.9476 -0.1605  0.2153
  101MOL   C37148571   6.610   3.632   5.063 -0.2443  0.4301 -0.9435
  101MOL   C37248572   6.701   3.759   5.051 -0.2991  0.3017 -0.9032
  101MOL   O37348573   6.730   3.815   4.946  0.1161 -0.6070  0.3904
  101MOL   H37448574   5.873   3.504   5.385  1.7759  0.0995 -1.4926
  101MOL   H37548575   5.831   3.613   5.257  0.6862  0.5231 -0.1348
  101MOL   H37648576   6.040   3.662   5.473  2.6835 -1.6408 -1.4467
  101MOL   H37748577   5.992   3.782   5.353 -3.1519  0.5665  2.2626
  101MOL   H37848578   6.056   3.622   5.175 -2.1325  0.5501  0.5415
  101MOL   H37948579   6.104   3.509   5.300  0.3978 -0.7523 -1.1574
  101MOL   H38048580   6.215   3.790   5.248  2.9861  0.5740 -1.9259
  101MOL   H38148581   6.269   3.677   5.375 -4.3902 -0.0998  2.4875
  101MOL   H38248582   6.469   3.692   4.899 -3.9227  2.3112  1.9391
  101MOL   H38348583   6.458   3.531   4.961  0.0262 -0.5200  0.8101
  101MOL   H38448584   6.594   3.606   5.168  2.1034  0.0715 -0.6475
  101MOL   H38548585   6.666   3.554   5.012  1.8558  1.2798 -0.0257
  101MOL   O38648586   6.773   3.779   5.171  0.5680  0.6560  0.1822
  101MOL   C38748587   6.884   3.868   5.163  0.7967 -0.0249 -0.2021
  101MOL   C38848588   6.970   3.856   5.297  0.7256 -0.0512  0.1886
  101MOL   C38948589   7.069   3.741   5.297 -0.3836 -0.6336 -0.5199
  101MOL   C39048590   7.124   3.701   5.432 -0.0310  0.0067 -0.0542
  101MOL   O39148591   7.175   3.571   5.417 -0.6396 -0.5693  0.3473
  101MOL   C39248592   7.098   3.463   5.435 -0.0255  0.7248 -0.0856
  101MOL   O39348593   6.985   3.465   5.479  0.0025  0.1944  0.1648
  101MOL   C39448594   7.161   3.338   5.383  0.5385 -0.1893  0.2833
  101MOL   C39548595   7.095   3.205   5.413  0.2901  0.1492 -0.0835
  101MOL   C39648596   7.179   3.115   5.499  0.0918  0.3904  0.3861
  101MOL   O39748597   7.283   3.152   5.558  0.2785  0.2419 -0.2349
  101MOL   H39848598   6.941   3.845   5.072  0.8009 -0.7244 -0.0187
  101MOL   H39948599   6.848   3.968   5.138  3.1717  0.6988 -0.9113
  101MOL   H40048600   6.900   3.843   5.379  1.1752  0.0013  0.5824
  101MOL   H40148601   7.020   3.952   5.311  0.8913  0.2581 -2.3753
  101MOL   H40248602   7.145   3.756   5.220 -2.8104  0.6291 -2.7779
  101MOL   H40348603   7.009   3.655   5.266 -1.8122  0.3852 -0.5857
  101MOL   H40448604   7.203   3.772   5.455  0.0250  0.0232 -0.2941
  101MOL   H40548605   7.042   3.702   5.504 -0.7215 -1.0877 -0.8111
  101MOL   H40648606   7.260   3.338   5.430 -0.2672 -0.4759  2.0161
  101MOL   H40748607   7.190   3.344   5.278  0.7476  1.2829  0.4155
  101MOL   H40848608   7.000   3.223   5.464 -0.5990 -0.2940 -1.5345
  101MOL   H40948609   7.069   3.155   5.319 -1.5034  0.7049  0.0916
  101MOL   O41048610   7.123   2.990   5.512 -0.6038 -0.1102 -0.2830
  101MOL   C41148611   7.182   2.898   5.599  0.7821  0.3364  0.0926
  101MOL   C41248612   7.280   2.803   5.530  0.5982  0.5258 -1.0139
  101MOL   C41348613   7.408   2.869   5.469  0.3189  0.9644 -0.1425
  101MOL   C41448614   7.504   2.766   5.420  0.3649  0.0874 -0.4108
  101MOL   O41548615   7.580   2.835   5.323 -0.3932  0.4591 -0.0746
  101MOL   C41648616   7.651   2.750   5.240 -0.1584 -0.2001 -0.3574
  101MOL   O41748617   7.639   2.630   5.224  0.4401 -0.3589 -0.6178
  101MOL   C41848618   7.755   2.838   5.162  0.5394 -1.2471  0.3301
  101MOL   C41948619   7.869   2.746   5.109  0.2288 -0.3545 -0.2929
  101MOL   C42048620   0.113   2.774   5.202  0.0967 -0.4594 -0.3445
  101MOL   O42148621   0.152   2.684   5.273 -0.5905 -0.0814 -0.8678
  101MOL   H42248622   7.234   2.951   5.678  1.4342  2.5277 -1.7529
  101MOL   H42348623   7.116   2.822   5.641  0.7575  0.0166 -0.5112
  101MOL   H42448624   7.225   2.755   5.450 -0.5091  1.9200 -1.1038
  101MOL   H42548625   7.298   2.720   5.598 -1.8534 -0.1865 -1.2045
  101MOL   H42648626   7.453   2.932   5.546  0.9090  1.4993 -0.9157
  101MOL   H42748627   7.380   2.937   5.388  1.9729  0.9072 -0.7954
  101MOL   H42848628   7.578   2.728   5.490  2.3383  2.2972 -1.2244
  101MOL   H42948629   7.452   2.690   5.362  0.6892  0.0524 -0.6564
  101MOL   H43048630   7.777   2.927   5.221 -0.4139 -0.8175  0.0480
  101MOL   H43148631   7.713   2.875   5.068 -1.0492 -1.1227  1.0779
  101MOL   H43248632   7.850   2.639   5.125 -2.6800  0.0438 -0.8152
  101MOL   H43348633   0.003   2.771   5.003 -2.5915  2.1770  0.0100
  101MOL   O43448634   0.161   2.896   5.191 -0.1824 -0.1946  0.1372
  101MOL   C43548635   0.277   2.935   5.270  0.0675 -0.6463  0.0725
  101MOL   C43648636   0.344   3.068   5.225 -0.2569 -0.7715  0.6861
  101MOL   C43748637   0.462   3.102   5.319 -0.3493 -0.0507 -0.3019
  101MOL   C43848638   0.528   3.240   5.292  0.7432  0.0913  0.6881
  101MOL   O43948639   0.452   3.339   5.341 -0.7033  0.1052 -0.0159
  101MOL   C44048640   0.484   3.401   5.461 -0.4711  0.4761  0.7199
  101MOL   O44148641   0.570   3.366   5.544 -0.7999 -0.6004  0.4998
  101MOL   C44248642   0.402   3.528   5.476  0.1069  0.7807 -0.1530
  101MOL   C44348643   0.429   3.599   5.603  0.8175 -0.0432  0.3471
  101MOL   C44448644   0.352   3.729   5.628 -0.6358 -0.1520 -0.2092
  101MOL   O44548645   0.278   3.767   5.539 -0.5681 -0.2869  0.0495
  101MOL   H44648646   0.255   2.945   5.376  3.3119  0.8119  0.6757
  101MOL   H44748647   0.339   2.844   5.270 -1.9535 -2.0853  2.6195
  101MOL   H44848648   0.271   3.148   5.213  1.7262  0.7160 -1.8733
  101MOL   H44948649   0.380   3.063   5.122 -0.4893  0.9356  0.5114
  101MOL   H45048650   0.539   3.027   5.299  1.5309  2.2849 -2.0809
  101MOL   H45148651   0.446   3.085   5.425  0.2029 -1.8522 -0.4781
  101MOL   H45248652   0.626   3.245   5.340  1.3592 -3.3087 -0.0952
  101MOL   H45348653   0.533   3.241   5.183  1.9645 -3.5685  0.6243
  101MOL   H45448654   0.295   3.512   5.465  0.2108  1.8762 -3.1815
  101MOL   H45548655   0.433   3.584   5.388 -0.0896 -1.4129 -1.6514
  101MOL   H45648656   0.419   3.526   5.684 -1.2764 -1.5703 -1.2186
  101MOL   H45748657   0.534   3.623   5.615  1.2927 -2.4212  1.1179
  101MOL   O45848658   0.386   3.794   5.743  1.1823  0.1064 -0.9041
  101MOL   C45948659   0.328   3.923   5.763 -0.0937 -0.4139 -0.1091
  101MOL   C46048660   0.401   3.987   5.886  0.2832 -0.9110  0.3227
  101MOL   C46148661   0.381   4.129   5.892  0.5020  1.0249 -0.0964
  101MOL   C46248662   0.236   4.173   5.914 -0.3439  0.8332  0.9900
  101MOL   O46348663   0.230   4.308   5.963  0.6173 -0.1430 -0.4502
  101MOL   C46448664   0.217   4.341   6.091  0.0308 -0.1827 -0.1573
  101MOL   O46548665   0.208   4.265   6.189 -0.3452 -0.2098  0.0652
  101MOL   C46648666   0.212   4.489   6.108 -0.0483  0.3201 -0.5180
  101MOL   C46748667   0.282   4.545   6.235  0.0091  0.4849 -0.2068
  101MOL   C46848668   0.390   4.653   6.208 -1.0043 -0.1883 -0.3597
  101MOL   O46948669   0.420   4.697   6.094 -0.3377  0.0664 -0.2547
  101MOL   H47048670   0.358   3.968   5.668  4.2369 -2.3872  0.1901
  101MOL   H47148671   0.221   3.905   5.771 -0.2001  0.3173  0.1741
  101MOL   H47248672   0.507   3.966   5.894  0.5367 -0.3972 -1.4026
  101MOL   H47348673   0.351   3.932   5.965  3.0743 -0.3093  2.5819
  101MOL   H47448674   0.428   4.181   5.809  1.8877 -0.5199 -0.2977
  101MOL   H47548675   0.437   4.163   5.980 -1.3134 -1.3279  2.0260
  101MOL   H47648676   0.159   4.165   5.837  0.0270 -1.9565  0.8382
  101MOL   H47748677   0.194   4.105   5.988  0.1766 -1.8463 -1.0588
  101MOL   H47848678   0.107   4.519   6.100 -0.0081 -0.0264 -2.6564
  101MOL   H47948679   0.262   4.523   6.017 -0.9100  0.8641 -0.7953
  101MOL   H48048680   0.211   4.581   6.310  1.5417  1.3050  0.8905
  101MOL   H48148681   0.341   4.461   6.272 -0.7361 -0.4026 -0.9692
  101MOL   H48248682   0.445   4.689   6.294  1.3399 -1.6831 -1.1819
  102MOL     O148683   0.741   7.844   0.985 -0.3071 -0.0567  0.4271
  102MOL     C248684   0.795   7.770   0.877 -0.1365 -0.6680  0.3613
  102MOL     C348685   0.859   7.863   0.771  0.2001 -0.3701 -0.4101
  102MOL     C448686   0.914   7.783   0.655  0.6558 -0.3401 -0.4424
  102MOL     C548687   0.994   7.871   0.550  0.6705 -0.0011  0.9529
  102MOL     O648688   1.122   0.042   0.604  0.3987  0.2438  0.2098
  102MOL     C748689   1.198   0.126   0.530  0.1394 -0.6162 -0.5780
  102MOL     O848690   1.177   0.166   0.413 -0.0086 -0.2182 -0.2759
  102MOL     C948691   1.326   0.163   0.595  0.3621  0.2378 -0.1259
  102MOL    C1048692   1.452   0.137   0.501  0.4675  0.1532 -0.4326
  102MOL    C1148693   1.495   7.871   0.519  0.1156 -0.1844 -0.4173
  102MOL    O1248694   1.490   7.820   0.629  0.2609 -0.2851  0.2942
  102MOL    H1348695   0.882   7.715   0.912  1.5850  2.1910  0.6843
  102MOL    H1448696   0.720   7.708   0.827  2.3295 -2.7311 -0.9209
  102MOL    H1548697   0.933   0.057   0.813  0.7419  0.0873 -2.0546
  102MOL    H1648698   0.788   0.055   0.723 -0.1117 -1.3078 -1.2565
  102MOL    H1748699   0.838   7.726   0.602 -2.0359  0.6246  2.2864
  102MOL    H1848700   0.983   7.715   0.704 -1.8661 -0.6104  2.8426
  102MOL    H1948701   1.012   7.826   0.452 -1.8654  1.2685 -0.1415
  102MOL    H2048702   0.926   0.078   0.528 -0.6228 -1.2421  0.2365
  102MOL    H2148703   1.333   0.117   0.694 -2.7057 -0.1847 -0.0612
  102MOL    H2248704   1.327   0.270   0.619 -1.5582 -0.4080  3.2057
  102MOL    H2348705   1.430   0.163   0.397 -3.8870  0.7666  0.5808
  102MOL    H2448706   1.530   0.205   0.535  0.3318  0.8452 -1.4629
  102MOL    H2548707   0.794   0.046   1.002 -1.9772  1.5794 -1.6188
  102MOL    O2648708   1.561   7.818   0.413  0.6986 -0.0536  0.0527
  102MOL    C2748709   1.644   7.706   0.444 -0.1567 -0.4622 -0.9781
  102MOL    C2848710   1.780   7.728   0.369  0.3510 -1.0045 -0.1193
  102MOL    C2948711   1.752   7.740   0.215  0.3255 -0.2490 -0.3674
  102MOL    C3048712   1.880   7.779   0.141  0.0003 -0.0516 -0.3361
  102MOL    O3148713   1.843   7.829   0.015  1.1502  0.0148 -0.1517
  102MOL    C3248714   1.935   0.000   7.802 -0.5548  0.0042  0.3591
  102MOL    O3348715   2.057   7.855   7.816 -0.0568 -0.4796 -0.1704
  102MOL    C3448716   1.864   0.061   7.681  0.3152  0.2941 -0.1160
  102MOL    C3548717   1.830   0.209   7.709  0.0162  0.1294 -0.5641
  102MOL    C3648718   1.912   0.296   7.614 -0.5118 -0.0795  0.5004
  102MOL    O3748719   1.867   0.346   7.506 -0.6176 -0.2684  0.2472
  102MOL    H3848720   1.675   7.705   0.548  0.2028  1.0093 -1.0674
  102MOL    H3948721   1.596   7.613   0.412 -1.5955  0.9970 -3.1660
  102MOL    H4048722   1.854   7.654   0.397  0.3506 -0.8944  0.1796
  102MOL    H4148723   1.820   7.825   0.399  0.2544 -1.6753  2.2793
  102MOL    H4248724   1.674   7.814   0.200 -1.4162 -1.7458  1.0392
  102MOL    H4348725   1.704   7.649   0.182  2.0371 -1.9815  1.7363
  102MOL    H4448726   1.931   7.864   0.187  1.6653 -1.2129  0.0045
  102MOL    H4548727   1.954   7.700   0.126 -0.3833 -0.2186 -1.3736
  102MOL    H4648728   1.769   0.010   7.670 -0.0553  1.5073 -2.8708
  102MOL    H4748729   1.928   0.050   7.593  2.3620  0.3704  1.3186
  102MOL    H4848730   1.724   0.233   7.696 -0.5656 -2.3360 -0.6582
  102MOL    H4948731   1.856   0.227   7.813 -1.6013  0.6829 -0.2368
  102MOL    O5048732   2.041   0.287   7.635 -0.5419  0.0416  0.1079
  102MOL    C5148733   2.140   0.324   7.546  0.1996 -0.6832  0.4471
  102MOL    C5248734   2.169   0.225   7.432 -0.6662 -0.6117  0.0237
  102MOL    C5348735   2.260   0.113   7.490  1.2842  0.1129  0.3557
  102MOL    C5448736   2.325   0.018   7.386  0.3476  0.3255  0.0710
  102MOL    O5548737   2.225   7.804   7.324 -0.0556 -0.6188 -0.2442
  102MOL    C5648738   2.257   7.719   7.229  0.5763 -0.1496 -0.7928
  102MOL    O5748739   2.364   7.726   7.167 -0.2861 -0.1229  0.3349
  102MOL    C5848740   2.157   7.606   7.218  0.3774 -0.2048 -0.5400
  102MOL    C5948741   2.175   7.505   7.097 -0.0195 -0.1388  0.1992
  102MOL    C6048742   2.104   7.558   6.972 -0.1804  0.0422  0.0849
  102MOL    O6148743   2.159   7.624   6.886 -0.0966 -0.1881 -0.1425
  102MOL    H6248744   2.099   0.410   7.493  1.4358 -0.0707  0.4810
  102MOL    H6348745   2.231   0.350   7.599  1.1854  0.1103 -1.5665
  102MOL    H6448746   2.232   0.280   7.362 -1.9489 -1.0499 -1.5205
  102MOL    H6548747   2.080   0.190   7.380 -0.8584 -1.4529  0.9173
  102MOL    H6648748   2.200   0.045   7.551  1.2408  1.3277  1.6985
  102MOL    H6748749   2.334   0.164   7.551 -0.9445  0.8261  2.5672
  102MOL    H6848750   2.392   0.071   7.317  1.0624 -1.4102 -0.5897
  102MOL    H6948751   2.390   7.827   7.444 -0.4562  0.1142  0.7369
  102MOL    H7048752   2.068   7.665   7.199  0.1954 -0.3360 -0.1001
  102MOL    H7148753   2.155   7.551   7.312 -0.2678  1.3435  0.3599
  102MOL    H7248754   2.274   7.480   7.059  0.3660  0.4258  0.8208
  102MOL    H7348755   2.132   7.413   7.138 -0.7027  1.1470  2.4613
  102MOL    O7448756   1.973   7.526   6.976 -0.5584  0.5549 -0.6049
  102MOL    C7548757   1.886   7.551   6.866  0.1332  0.0294 -0.9551
  102MOL    C7648758   1.742   7.515   6.893 -0.1881 -0.4237 -0.5315
  102MOL    C7748759   1.729   7.368   6.944 -0.9323  0.6749  0.6007
  102MOL    C7848760   1.749   7.270   6.828  0.1674 -0.5215 -0.5242
  102MOL    O7948761   1.662   7.297   6.718 -0.9091 -0.1027 -0.1890
  102MOL    C8048762   1.546   7.233   6.708  0.0933 -0.9236 -0.0765
  102MOL    O8148763   1.505   7.148   6.789  0.0057  0.3506 -1.1491
  102MOL    C8248764   1.470   7.271   6.580 -0.4911  0.1412 -0.4612
  102MOL    C8348765   1.320   7.244   6.604 -0.1157 -0.3958 -0.2884
  102MOL    C8448766   1.264   7.130   6.514  0.1525  0.1699 -0.2143
  102MOL    O8548767   1.180   7.155   6.425  0.2444  0.7098 -0.1926
  102MOL    H8648768   1.888   7.657   6.838  0.2356  0.8210  1.8838
  102MOL    H8748769   1.917   7.496   6.777  0.2173 -1.5761  0.0602
  102MOL    H8848770   1.668   7.530   6.815 -0.3499  0.2113 -0.2586
  102MOL    H8948771   1.723   7.572   6.984  0.6716 -1.3897  0.2701
  102MOL    H9048772   1.635   7.337   6.990 -1.1959  1.3331  0.5032
  102MOL    H9148773   1.801   7.344   7.022  0.0176  1.8570  0.0894
  102MOL    H9248774   1.845   7.291   6.781  0.0689 -0.3803 -0.6610
  102MOL    H9348775   1.756   7.166   6.860  0.0112 -0.5556 -0.5999
  102MOL    H9448776   1.513   7.212   6.499  0.1152  0.8708 -0.6745
  102MOL    H9548777   1.493   7.376   6.561  1.0429 -0.1301 -0.1862
  102MOL    H9648778   1.286   7.220   6.704 -1.3326  0.9467 -0.3575
  102MOL    H9748779   1.257   7.332   6.587 -0.1275 -0.0596  1.4317
  102MOL    O9848780   1.328   7.013   6.533  0.3017  0.1689  0.4596
  102MOL    C9948781   1.288   6.900   6.464 -0.0033  0.5176  0.4609
  102MOL   C10048782   1.398   6.798   6.464 -0.2118 -1.2257 -0.0305
  102MOL   C10148783   1.421   6.709   6.588 -0.0159  0.1218  0.4029
  102MOL   C10248784   1.291   6.646   6.618 -0.3484  0.4426 -1.0858
  102MOL   O10348785   1.296   6.566   6.741  0.4482 -0.4465  0.0416
  102MOL   C10448786   1.269   6.436   6.730 -0.7103  0.7012 -0.1812
  102MOL   O10548787   1.245   6.371   6.628  0.2800 -0.3016  0.0443
  102MOL   C10648788   1.264   6.371   6.869  0.7403  0.3343 -0.1364
  102MOL   C10748789   1.124   6.317   6.910 -0.3378 -0.3905 -0.0768
  102MOL   C10848790   1.132   6.210   7.013  0.5053 -0.2257  0.1884
  102MOL   O10948791   1.238   6.186   7.060 -0.0296 -0.0099 -0.4843
  102MOL   H11048792   1.190   6.860   6.489 -0.3947  1.4706  0.4379
  102MOL   H11148793   1.268   6.924   6.360  2.9757  1.9628  0.1641
  102MOL   H11248794   1.484   6.849   6.422 -1.6958  1.0514 -0.3777
  102MOL   H11348795   1.390   6.728   6.381 -0.6366 -1.1926 -0.0223
  102MOL   H11448796   1.451   6.766   6.676 -0.1416 -0.2505  0.6877
  102MOL   H11548797   1.495   6.630   6.579  0.7673  0.8793  0.0883
  102MOL   H11648798   1.212   6.716   6.644 -0.7627 -0.2461 -0.4547
  102MOL   H11748799   1.259   6.579   6.538  1.8610 -2.0879  0.0764
  102MOL   H11848800   1.305   6.453   6.929 -1.0673  1.3919 -0.3215
  102MOL   H11948801   1.340   6.292   6.867 -0.4535 -0.8143 -0.6226
  102MOL   H12048802   1.060   6.401   6.936 -0.8519 -0.8457  0.1353
  102MOL   H12148803   1.069   6.278   6.825 -0.7231  3.6252 -1.7771
  102MOL   O12248804   1.024   6.134   7.017 -0.3561 -0.3507 -0.2598
  102MOL   C12348805   1.030   6.013   7.091  0.0057  0.5082 -0.2161
  102MOL   C12448806   0.981   5.897   7.004  0.4607 -0.2038  0.0416
  102MOL   C12548807   1.010   5.774   7.087 -0.1107  0.4660 -0.8252
  102MOL   C12648808   0.958   5.647   7.017  0.2680 -0.2022 -0.1951
  102MOL   O12748809   1.005   5.528   7.071 -0.3823 -0.2827 -0.2120
  102MOL   C12848810   0.925   5.457   7.155 -0.3322  0.2671 -0.3967
  102MOL   O12948811   0.813   5.499   7.171  0.0619  0.3174 -0.7413
  102MOL   C13048812   0.986   5.328   7.220  0.3788  0.0147 -0.3815
  102MOL   C13148813   0.888   5.209   7.229 -0.6730  0.0538 -0.6219
  102MOL   C13248814   0.870   5.158   7.375 -0.3820  0.2095  0.7117
  102MOL   O13348815   0.960   5.091   7.421  0.2968  0.2474  0.1176
  102MOL   H13448816   1.129   5.981   7.123  0.4821 -0.0355 -2.1667
  102MOL   H13548817   0.966   6.038   7.175  2.0790  3.8560  0.4574
  102MOL   H13648818   1.037   5.886   6.912  2.5777  0.7570  1.1850
  102MOL   H13748819   0.876   5.897   6.975  0.2418  0.9213  0.7569
  102MOL   H13848820   0.960   5.772   7.184 -0.0604 -1.2544 -0.8162
  102MOL   H13948821   1.117   5.752   7.087 -0.8175 -3.2170 -1.1069
  102MOL   H14048822   0.850   5.660   7.024  0.2567 -0.2365 -0.3133
  102MOL   H14148823   0.988   5.659   6.913  1.3218  1.4027  0.2680
  102MOL   H14248824   1.022   5.345   7.322 -0.3695 -2.2664  0.2866
  102MOL   H14348825   1.078   5.300   7.169  0.1384  0.6041 -1.1481
  102MOL   H14448826   0.788   5.246   7.204  0.3844  2.3163 -1.6610
  102MOL   H14548827   0.928   5.137   7.159 -0.0372  0.0213 -0.2274
  102MOL   O14648828   0.762   5.201   7.445 -0.7083 -0.3548  0.1931
  102MOL   C14748829   0.737   5.148   7.576 -0.3974 -0.4005 -0.1634
  102MOL   C14848830   0.591   5.173   7.617  0.2702 -0.2992 -0.1528
  102MOL   C14948831   0.571   5.308   7.675 -0.6537  0.0787 -0.1505
  102MOL   C15048832   0.426   5.340   7.687  0.2009 -1.0135  0.1694
  102MOL   O15148833   0.367   5.351   7.558  0.5477  0.0552  0.4774
  102MOL   C15248834   0.373   5.472   7.491  0.7372 -0.1102 -0.4693
  102MOL   O15348835   0.385   5.582   7.545  0.3182 -0.1498 -0.3628
  102MOL   C15448836   0.349   5.450   7.345 -0.0435 -0.8686 -1.0307
  102MOL   C15548837   0.471   5.397   7.263  0.6180 -0.1067 -0.5508
  102MOL   C15648838   0.435   5.290   7.158  0.0163  0.8855 -0.3231
  102MOL   O15748839   0.319   5.248   7.137 -0.4040  0.1822  0.4689
  102MOL   H15848840   0.753   5.041   7.580 -2.2733 -0.6689  0.9674
  102MOL   H15948841   0.811   5.187   7.646 -0.3788  0.3038 -0.5748
  102MOL   H16048842   0.563   5.094   7.687 -0.9888 -2.6573 -3.2154
  102MOL   H16148843   0.524   5.164   7.531 -0.8055 -1.8871  0.8254
  102MOL   H16248844   0.623   5.390   7.627  1.2390 -0.8815  0.2168
  102MOL   H16348845   0.613   5.314   7.775  2.7947 -0.9199 -1.4781
  102MOL   H16448846   0.377   5.274   7.758  0.3741 -1.9255 -0.5533
  102MOL   H16548847   0.416   5.437   7.737  1.1911 -1.3226  0.9907
  102MOL   H16648848   0.329   5.548   7.303 -1.6409 -1.2310 -1.1262
  102MOL   H16748849   0.258   5.393   7.331 -0.6538  0.1472 -1.2304
  102MOL   H16848850   0.514   5.488   7.223  0.3408  0.8465  1.2864
  102MOL   H16948851   0.533   5.346   7.337  0.5257  1.0141  0.3072
  102MOL   O17048852   0.550   5.244   7.105 -0.0614 -0.2331  0.3289
  102MOL   C17148853   0.549   5.133   7.015 -0.8592  1.0500  0.2883
  102MOL   C17248854   0.690   5.115   6.960 -0.2108  0.0412  0.3166
  102MOL   C17348855   0.756   5.239   6.898 -0.0992 -0.2283 -0.2674
  102MOL   C17448856   0.884   5.220   6.819  0.1230  0.2119 -0.4851
  102MOL   O17548857   0.914   5.350   6.772  0.3134 -0.1035 -0.1572
  102MOL   C17648858   0.947   5.375   6.636 -0.1805 -0.2714  0.0947
  102MOL   O17748859   0.948   5.289   6.551 -0.6960  0.0515  0.4742
  102MOL   C17848860   0.972   5.524   6.612 -0.1367 -0.1333  0.0990
  102MOL   C17948861   1.120   5.562   6.625  0.3163 -0.2283  0.0824
  102MOL   C18048862   1.173   5.629   6.499  0.2294  0.3004  0.5743
  102MOL   O18148863   1.114   5.636   6.392 -0.2316  0.3911 -0.2279
  102MOL   H18248864   0.523   5.040   7.066  0.3514  0.1936 -0.6252
  102MOL   H18348865   0.475   5.150   6.937 -0.1396  0.1042 -0.6170
  102MOL   H18448866   0.690   5.041   6.880  0.5141  1.5496 -1.0923
  102MOL   H18548867   0.750   5.090   7.048 -0.2607  0.8129  0.5787
  102MOL   H18648868   0.763   5.313   6.978  2.2289 -1.3801  0.6568
  102MOL   H18748869   0.689   5.284   6.825 -0.0086 -1.1501 -0.9232
  102MOL   H18848870   0.968   5.181   6.875  0.2101  0.8342 -0.1788
  102MOL   H18948871   0.868   5.150   6.737 -1.9283 -0.6796  0.6436
  102MOL   H19048872   0.918   5.577   6.690 -2.3714 -0.4585 -1.1655
  102MOL   H19148873   0.929   5.562   6.519  0.1122 -1.5024 -0.5988
  102MOL   H19248874   1.128   5.624   6.715  0.0959  1.0496 -0.7683
  102MOL   H19348875   1.180   5.476   6.657  1.8804  0.3824 -1.1586
  102MOL   O19448876   1.286   5.698   6.521 -0.2890 -0.0915  0.0391
  102MOL   C19548877   1.322   5.806   6.432  0.7812 -0.3409 -0.0716
  102MOL   C19648878   1.399   5.750   6.304 -0.4333 -0.0892 -0.3640
  102MOL   C19748879   1.462   5.861   6.227  0.2124  0.0445 -0.4454
  102MOL   C19848880   1.524   5.805   6.101  0.1614 -0.7142 -0.2419
  102MOL   O19948881   1.421   5.773   6.006 -0.2738 -0.0611  0.2914
  102MOL   C20048882   1.443   5.684   5.907  0.3416  0.3072 -0.3629
  102MOL   O20148883   1.546   5.621   5.901 -0.3404 -0.4843  0.7028
  102MOL   C20248884   1.336   5.665   5.806 -0.2154 -0.5055 -0.2574
  102MOL   C20348885   1.197   5.638   5.867 -0.5013  0.3724  0.2970
  102MOL   C20448886   1.122   5.765   5.891  0.4032 -0.3056 -0.3223
  102MOL   O20548887   1.100   5.849   5.798  0.0828  0.1679 -0.4213
  102MOL   H20648888   1.242   5.876   6.409  1.0410  0.0093  0.0821
  102MOL   H20748889   1.394   5.877   6.473  0.8023  0.0611 -0.7970
  102MOL   H20848890   1.330   5.692   6.242  0.1014 -0.8729 -0.2272
  102MOL   H20948891   1.472   5.679   6.341 -1.1646 -0.5631  0.1925
  102MOL   H21048892   1.543   5.910   6.282 -1.1785  0.8976  0.9054
  102MOL   H21148893   1.387   5.940   6.215 -0.4800 -0.5046  0.2383
  102MOL   H21248894   1.594   5.878   6.060  0.1186 -0.3287  0.3692
  102MOL   H21348895   1.590   5.720   6.118  0.9522  0.2377  1.5294
  102MOL   H21448896   1.368   5.595   5.728  2.2879  0.8994 -0.5341
  102MOL   H21548897   1.329   5.762   5.758 -1.4407 -1.0044 -1.1211
  102MOL   H21648898   1.141   5.570   5.803 -1.4769  1.9132 -0.5188
  102MOL   H21748899   1.208   5.587   5.963 -0.9171 -0.4150 -0.0673
  102MOL   O21848900   1.095   5.777   6.028  0.6184  0.2440  0.3560
  102MOL   C21948901   1.030   5.897   6.061  0.1315 -0.1775 -0.5620
  102MOL   C22048902   0.882   5.876   6.097 -0.3931  0.5060  0.2584
  102MOL   C22148903   0.857   5.793   6.222  0.0428  0.1529  1.0246
  102MOL   C22248904   0.701   5.776   6.250  0.2367  0.2918 -0.5744
  102MOL   O22348905   0.681   5.663   6.335  0.4726 -0.4010 -0.2360
  102MOL   C22448906   0.678   5.539   6.282 -0.9696  0.4783  0.2310
  102MOL   O22548907   0.694   5.505   6.167  0.0371  0.0472  0.2410
  102MOL   C22648908   0.649   5.438   6.389 -0.0629 -0.4767 -0.3175
  102MOL   C22748909   0.668   5.293   6.361  0.6431  0.1483  0.4986
  102MOL   C22848910   0.609   5.213   6.475  0.3520  0.4007  0.4703
  102MOL   O22948911   0.571   5.254   6.578  0.5936 -0.0943 -0.1033
  102MOL   H23048912   1.081   5.928   6.152 -2.8592 -0.0212  1.1360
  102MOL   H23148913   1.049   5.979   5.991 -0.6189  0.8953  0.4809
  102MOL   H23248914   0.839   5.826   6.010  1.2463 -0.7484  0.1387
  102MOL   H23348915   0.836   5.974   6.101  1.0086  1.2455 -1.0806
  102MOL   H23448916   0.913   5.841   6.302  1.2039  1.6320 -0.6431
  102MOL   H23548917   0.893   5.692   6.201 -1.5460  0.2828 -2.6915
  102MOL   H23648918   0.671   5.866   6.303  0.3695 -0.4844  0.8305
  102MOL   H23748919   0.643   5.757   6.160 -2.8502 -3.2747  2.0613
  102MOL   H23848920   0.552   5.454   6.436 -0.3207 -1.3775 -0.5335
  102MOL   H23948921   0.710   5.463   6.476 -0.9218 -0.6342  0.3400
  102MOL   H24048922   0.613   5.276   6.268 -0.1625  1.2110  0.7707
  102MOL   H24148923   0.774   5.277   6.346  0.2041 -2.0225 -0.5937
  102MOL   O24248924   0.602   5.080   6.435  0.7818  0.1154  0.0697
  102MOL   C24348925   0.558   4.979   6.521  0.7913 -0.5219 -0.3166
  102MOL   C24448926   0.402   4.975   6.510  0.8947  0.1389 -0.0609
  102MOL   C24548927   0.343   4.868   6.601  0.4195 -0.5742  0.7469
  102MOL   C24648928   0.190   4.863   6.607 -0.6714  0.3174  0.0348
  102MOL   O24748929   0.129   4.859   6.475 -0.4353  0.2539 -0.1167
  102MOL   C24848930   0.065   4.960   6.424  0.1346 -0.0225 -0.1792
  102MOL   O24948931   0.035   5.061   6.487 -0.1881 -0.4341  0.3842
  102MOL   C25048932   0.024   4.949   6.278 -0.3539 -0.3084  0.4190
  102MOL   C25148933   7.806   4.835   6.241 -0.3821  0.2618 -0.1279
  102MOL   C25248934   7.671   4.892   6.225  0.8732 -0.3941  0.0768
  102MOL   O25348935   7.583   4.896   6.309  0.1914  0.1480 -0.2900
  102MOL   H25448936   0.608   4.885   6.497  1.0366 -0.8088  1.2538
  102MOL   H25548937   0.582   5.009   6.623  0.3681  1.2355 -0.7142
  102MOL   H25648938   0.371   4.971   6.405 -1.4679  0.8672  0.5774
  102MOL   H25748939   0.365   5.063   6.562  0.2364 -0.6493  0.8252
  102MOL   H25848940   0.392   4.884   6.697  0.9114  0.4243  0.3445
  102MOL   H25948941   0.390   4.773   6.575  0.6454 -0.0707 -0.7960
  102MOL   H26048942   0.165   4.778   6.669  1.0387  0.2099  0.6097
  102MOL   H26148943   0.168   4.955   6.662  0.6581  1.9043 -1.9681
  102MOL   H26248944   0.123   4.940   6.234 -0.1088  0.5897  0.7793
  102MOL   H26348945   7.860   5.044   6.242 -2.4557 -0.5430  1.9412
  102MOL   H26448946   7.835   4.777   6.153  1.0075 -1.3127  1.3342
  102MOL   H26548947   7.800   4.758   6.318 -1.8683 -2.6902 -3.0872
  102MOL   O26648948   7.653   4.947   6.103 -0.4154  0.1440  0.2290
  102MOL   C26748949   7.532   5.014   6.066  1.1395 -0.1731  0.0599
  102MOL   C26848950   7.564   5.157   6.029  0.3473  0.5211  0.7017
  102MOL   C26948951   7.609   5.259   6.133  0.5342  0.6902 -0.6877
  102MOL   C27048952   7.476   5.329   6.203  0.0062 -0.2036  0.6610
  102MOL   O27148953   7.416   5.414   6.102 -0.1356 -0.8627 -0.4022
  102MOL   C27248954   7.288   5.426   6.081  0.1589  0.3438  0.1355
  102MOL   O27348955   7.197   5.366   6.138  0.4613  0.4175 -0.5977
  102MOL   C27448956   7.254   5.515   5.957 -0.1036  0.3133 -0.2240
  102MOL   C27548957   7.129   5.470   5.875 -0.4412 -0.0669 -0.5353
  102MOL   C27648958   7.166   5.409   5.740 -0.1869 -0.1387  0.0642
  102MOL   O27748959   7.072   5.397   5.663 -0.7829 -0.0109 -0.4073
  102MOL   H27848960   7.485   4.961   5.983  0.3567  0.0180  0.3783
  102MOL   H27948961   7.461   5.003   6.148  1.4702  2.3752  0.7402
  102MOL   H28048962   7.481   5.200   5.972 -1.8363 -3.8513  0.3025
  102MOL   H28148963   7.641   5.155   5.952  0.8343  2.1164  1.1501
  102MOL   H28248964   7.672   5.338   6.092  1.3556 -0.9509 -2.6664
  102MOL   H28348965   7.679   5.205   6.196  0.5949  1.8741  0.2740
  102MOL   H28448966   7.404   5.263   6.250 -0.0313 -1.2898 -0.9025
  102MOL   H28548967   7.499   5.394   6.288 -2.5907  1.9494 -0.2285
  102MOL   H28648968   7.341   5.529   5.893  0.0618  0.6558  0.0697
  102MOL   H28748969   7.230   5.613   5.999 -0.2157 -0.1905  0.9139
  102MOL   H28848970   7.092   5.388   5.936  0.4498  1.5288  2.2498
  102MOL   H28948971   7.056   5.550   5.862 -1.0225 -0.4881  0.1327
  102MOL   O29048972   7.292   5.377   5.730  0.2606 -0.5536  0.4031
  102MOL   C29148973   7.343   5.340   5.598 -0.3001 -0.5944 -0.2791
  102MOL   C29248974   7.483   5.276   5.600 -0.3392  0.5788 -0.7149
  102MOL   C29348975   7.599   5.370   5.625 -0.2620 -0.2981  0.2027
  102MOL   C29448976   7.738   5.306   5.624 -0.4579  0.0128  0.2602
  102MOL   O29548977   7.822   5.417   5.657 -0.4825 -0.1465 -0.4014
  102MOL   C29648978   0.081   5.399   5.664  0.2173 -0.0965 -0.9767
  102MOL   O29748979   0.142   5.297   5.622  0.1124  0.7055 -0.1276
  102MOL   C29848980   0.146   5.511   5.735 -0.0897 -0.1579 -0.1211
  102MOL   C29948981   0.134   5.494   5.891  0.2640  0.3846  0.5325
  102MOL   C30048982   0.028   5.590   5.943 -0.5746 -0.0205 -0.7558
  102MOL   O30148983   0.060   5.700   5.987  0.2736  0.1843 -0.3519
  102MOL   H30248984   7.287   5.265   5.542 -0.7576 -1.5350  1.4184
  102MOL   H30348985   7.349   5.429   5.535  0.9870  0.3085  1.0658
  102MOL   H30448986   7.495   5.208   5.516  3.3452  0.6540 -0.3111
  102MOL   H30548987   7.479   5.197   5.676 -1.0221 -0.0611 -1.4039
  102MOL   H30648988   7.575   5.441   5.705 -1.0500  1.0036 -1.1512
  102MOL   H30748989   7.590   5.442   5.543 -1.5570 -2.6857 -1.8362
  102MOL   H30848990   7.750   5.240   5.709  1.1779 -0.7404 -0.5352
  102MOL   H30948991   7.754   5.254   5.530 -0.3828 -0.1399  0.3585
  102MOL   H31048992   0.093   5.600   5.703  0.7692  0.1551 -0.6976
  102MOL   H31148993   0.251   5.517   5.704 -0.7624  1.8834 -2.0949
  102MOL   H31248994   0.104   5.392   5.915  2.9134 -0.6816 -0.4773
  102MOL   H31348995   0.233   5.513   5.930  0.4480 -0.4474  0.4865
  102MOL   O31448996   7.777   5.548   5.956 -0.6448  0.2164  0.4129
  102MOL   C31548997   7.674   5.636   5.992 -0.1436  0.1935 -0.3936
  102MOL   C31648998   7.630   5.744   5.892 -0.1230 -0.2157 -0.3625
  102MOL   C31748999   7.513   5.826   5.953  0.2606 -0.1700 -0.1457
  102MOL   C31849000   7.479   5.949   5.864 -0.1879  0.5550  0.5320
  102MOL   O31949001   7.349   6.002   5.887 -0.3030  0.3895  0.2507
  102MOL   C32049002   7.319   6.123   5.837  0.2185 -0.2735 -0.4059
  102MOL   O32149003   7.380   6.181   5.743 -0.1873 -0.0801 -0.1461
  102MOL   C32249004   7.192   6.180   5.902  0.1255 -0.0737 -0.5771
  102MOL   C32349005   7.061   6.113   5.856 -0.0899  0.2292  0.0033
  102MOL   C32449006   6.942   6.199   5.817  0.2810 -0.5306  0.2815
  102MOL   O32549007   6.860   6.161   5.735 -0.2946 -0.5986  0.6704
  102MOL   H32649008   7.588   5.571   6.010 -1.5625  2.1928  0.2081
  102MOL   H32749009   7.696   5.682   6.089 -1.1547  0.9836 -0.5254
  102MOL   H32849010   7.603   5.705   5.794  2.4247  1.8447 -1.9190
  102MOL   H32949011   7.715   5.811   5.881  1.8474 -1.4148  5.7253
  102MOL   H33049012   7.539   5.865   6.052 -0.0713 -1.2672  0.3893
  102MOL   H33149013   7.419   5.770   5.959 -0.4367  1.1484  1.8170
  102MOL   H33249014   7.548   6.027   5.897 -0.7727  0.5253  1.8244
  102MOL   H33349015   7.492   5.933   5.757  1.0143  0.0949  0.7411
  102MOL   H33449016   7.179   6.279   5.858  1.4372  0.8368  1.0227
  102MOL   H33549017   7.203   6.192   6.009  1.5102  1.1292 -0.8287
  102MOL   H33649018   7.073   6.053   5.766 -1.7470  2.4502 -1.7699
  102MOL   H33749019   7.032   6.050   5.940  1.0657 -0.2151  0.0714
  102MOL   O33849020   6.921   6.307   5.895  0.0267  0.7763 -0.2518
  102MOL   C33949021   6.800   6.383   5.875 -0.0624  0.1413  0.5368
  102MOL   C34049022   6.810   6.513   5.962  0.0713 -0.3771 -0.0235
  102MOL   C34149023   6.826   6.472   6.108  0.0777  0.2901 -0.2567
  102MOL   C34249024   6.685   6.450   6.176 -0.8069  0.6058  0.8176
  102MOL   O34349025   6.697   6.407   6.314  0.9997  0.0735  0.0663
  102MOL   C34449026   6.591   6.381   6.383 -0.3504  0.4533 -0.0902
  102MOL   O34549027   6.475   6.404   6.358 -0.4969  0.3148  0.1028
  102MOL   C34649028   6.623   6.291   6.508  0.0165 -0.3560  0.3692
  102MOL   C34749029   6.740   6.339   6.589 -0.3882  0.3569  0.2571
  102MOL   C34849030   6.866   6.261   6.551  0.5800  0.3695  0.0980
  102MOL   O34949031   6.883   6.149   6.603  0.0864 -0.1333 -0.3714
  102MOL   H35049032   6.790   6.408   5.769  1.2305 -0.6037  0.2276
  102MOL   H35149033   6.712   6.325   5.900 -3.0346  2.5338 -3.7409
  102MOL   H35249034   6.718   6.570   5.948  1.6400  1.9455 -1.2491
  102MOL   H35349035   6.886   6.577   5.917 -1.3106  1.1735 -0.2258
  102MOL   H35449036   6.869   6.550   6.170 -3.1483  1.5468  0.4752
  102MOL   H35549037   6.885   6.381   6.121 -0.0513 -0.0431 -1.9515
  102MOL   H35649038   6.634   6.546   6.167  0.8975  1.2314 -3.2125
  102MOL   H35749039   6.614   6.387   6.122 -2.2302  2.3733  0.5577
  102MOL   H35849040   6.622   6.186   6.479 -1.1232  0.2803 -2.0436
  102MOL   H35949041   6.531   6.298   6.566 -0.9939  1.1320 -1.3502
  102MOL   H36049042   6.744   6.448   6.594 -1.4117  0.4666 -1.0954
  102MOL   H36149043   6.728   6.316   6.695  0.0134 -1.4712 -0.0788
  102MOL   O36249044   6.942   6.311   6.450  0.3491 -0.7292  0.2309
  102MOL   C36349045   7.075   6.262   6.428  0.8347  0.2666 -0.2837
  102MOL   C36449046   7.133   6.324   6.300  0.5004 -0.1734  0.8823
  102MOL   C36549047   7.117   6.476   6.291 -0.5535 -0.3426  0.3548
  102MOL   C36649048   7.149   6.523   6.147  0.2691  0.1787 -0.0688
  102MOL   O36749049   7.279   6.485   6.101 -0.2953 -0.2247  0.2676
  102MOL   C36849050   7.333   6.530   5.986  0.3145 -0.3123  0.2168
  102MOL   O36949051   7.275   6.609   5.910  0.3842  0.5541 -0.7694
  102MOL   C37049052   7.469   6.472   5.943 -0.3066  0.1213 -0.4149
  102MOL   C37149053   7.496   6.463   5.794 -0.6096 -1.0157  0.3732
  102MOL   C37249054   7.547   6.601   5.744  0.8036  0.7172 -0.4835
  102MOL   O37349055   7.568   6.703   5.814  0.3727  0.0902 -0.5450
  102MOL   H37449056   7.141   6.300   6.506  1.4629  0.1792 -0.7622
  102MOL   H37549057   7.069   6.153   6.424 -1.4173  0.3079  1.4046
  102MOL   H37649058   7.078   6.278   6.218  1.9533  0.4798 -0.4808
  102MOL   H37749059   7.234   6.285   6.285 -0.0826 -1.4330  0.1391
  102MOL   H37849060   7.185   6.521   6.363 -0.3863 -0.5988  0.3567
  102MOL   H37949061   7.020   6.511   6.325 -0.5774 -0.3034  0.2442
  102MOL   H38049062   7.073   6.483   6.079 -0.2187 -1.2564  1.2827
  102MOL   H38149063   7.134   6.631   6.141 -1.5130 -0.0603 -0.0535
  102MOL   H38249064   7.467   6.373   5.988  0.8555  0.4484  0.3635
  102MOL   H38349065   7.552   6.521   5.993 -1.1965 -0.2269  1.4436
  102MOL   H38449066   7.576   6.389   5.788 -0.5934 -0.9792  0.1108
  102MOL   H38549067   7.410   6.421   5.741 -2.2823  1.5614  0.9352
  102MOL   O38649068   7.571   6.605   5.612  0.1196  0.3354 -0.3408
  102MOL   C38749069   7.597   6.728   5.544  0.0395 -0.3597 -0.5555
  102MOL   C38849070   7.650   6.719   5.403  0.3010 -0.0870 -0.1227
  102MOL   C38949071   7.773   6.620   5.390  0.2585  0.1503 -0.3609
  102MOL   C39049072   7.825   6.599   5.246 -0.5110  0.0599 -0.5459
  102MOL   O39149073   7.728   6.526   5.170 -0.2499 -0.0769  0.0738
  102MOL   C39249074   7.710   6.542   5.039  0.1636  0.3190  0.3720
  102MOL   O39349075   7.777   6.608   4.957  0.0889  0.5728 -0.1222
  102MOL   C39449076   7.587   6.467   4.990 -0.2232 -0.5037  0.3159
  102MOL   C39549077   7.607   6.323   4.942 -0.4827 -0.6562 -0.0403
  102MOL   C39649078   7.699   6.309   4.823  0.3197 -0.1011  0.4717
  102MOL   O39749079   7.800   6.233   4.832  0.1172 -0.1500  0.3322
  102MOL   H39849080   7.517   6.801   5.560  0.4888  0.0157  0.0035
  102MOL   H39949081   7.683   6.770   5.597  0.3451  0.3082 -1.5610
  102MOL   H40049082   7.685   6.818   5.376  0.7794 -0.6630 -1.6345
  102MOL   H40149083   7.573   6.710   5.327  0.8105  2.0905 -0.9356
  102MOL   H40249084   7.748   6.518   5.419  1.3376 -0.3019 -0.9841
  102MOL   H40349085   7.858   6.647   5.453 -1.9302  0.1580  2.7426
  102MOL   H40449086   7.834   6.694   5.193 -0.1705 -0.4097 -1.3417
  102MOL   H40549087   0.039   6.536   5.241  0.3933  1.3701 -1.4768
  102MOL   H40649088   7.553   6.540   4.916  2.2823 -0.6593 -1.0193
  102MOL   H40749089   7.515   6.459   5.072 -1.2687 -2.9169 -0.7766
  102MOL   H40849090   7.623   6.254   5.024 -3.3911 -0.6079  0.6109
  102MOL   H40949091   7.509   6.296   4.902  0.2131 -1.1854 -1.4307
  102MOL   O41049092   7.650   6.365   4.710  0.2694  0.1320  0.0965
  102MOL   C41149093   7.726   6.343   4.593  0.1403 -0.0359  0.3695
  102MOL   C41249094   7.819   6.458   4.570  0.0909  0.2043 -0.0790
  102MOL   C41349095   0.014   6.456   4.434  0.3309  0.0397  0.4490
  102MOL   C41449096   0.122   6.559   4.435 -0.1769 -0.3066 -0.4605
  102MOL   O41549097   0.210   6.548   4.331 -0.1819 -0.4650 -0.0506
  102MOL   C41649098   0.272   6.651   4.276  0.6181  0.2158 -0.0311
  102MOL   O41749099   0.264   6.769   4.306 -0.6456  0.3835 -0.0669
  102MOL   C41849100   0.366   6.611   4.165 -0.0558  0.5948  0.7016
  102MOL   C41949101   0.403   6.728   4.071  0.2226 -0.2936 -0.1213
  102MOL   C42049102   0.540   6.719   4.001 -0.0247 -0.6411 -0.4139
  102MOL   O42149103   0.565   6.638   3.918  0.0090 -0.3097 -0.3631
  102MOL   H42249104   7.785   6.252   4.598 -0.3372 -0.3589  0.1714
  102MOL   H42349105   7.666   6.326   4.503  0.5397 -0.5662  0.1991
  102MOL   H42449106   0.016   6.444   4.651  1.9309  0.9419 -1.5386
  102MOL   H42549107   7.774   6.556   4.587 -0.7028  0.4653 -3.3081
  102MOL   H42649108   7.818   6.463   4.352  1.7205 -0.1501 -0.7982
  102MOL   H42749109   0.049   6.354   4.417  0.8633  0.2693  0.1167
  102MOL   H42849110   0.081   6.658   4.455  0.1417 -0.1718 -0.4589
  102MOL   H42949111   0.178   6.550   4.528 -1.5907 -1.7260  0.2808
  102MOL   H43049112   0.311   6.540   4.103  0.1247  2.5947 -1.8387
  102MOL   H43149113   0.466   6.578   4.194 -0.4057 -1.0998  0.0820
  102MOL   H43249114   0.324   6.759   4.003 -0.8533  0.0548  1.2450
  102MOL   H43349115   0.409   6.812   4.141  1.2895 -2.0127  1.8978
  102MOL   O43449116   0.625   6.805   4.053 -0.1990  0.0136 -0.1202
  102MOL   C43549117   0.766   6.800   4.007  0.7520 -0.6616  0.3572
  102MOL   C43649118   0.789   6.877   3.873 -0.3522  0.0361  0.2364
  102MOL   C43749119   0.935   6.916   3.845 -0.2807  0.1702  0.1387
  102MOL   C43849120   0.950   6.979   3.705 -0.0287 -0.0403  0.8756
  102MOL   O43949121   0.930   6.878   3.604  0.1057 -0.6221  0.2564
  102MOL   C44049122   0.949   6.921   3.476  0.2542  0.5174  0.4195
  102MOL   O44149123   0.958   7.038   3.440 -0.1756  0.2025  0.5141
  102MOL   C44249124   0.968   6.804   3.373 -0.5972 -0.4020  0.0430
  102MOL   C44349125   1.111   6.798   3.317  0.1604 -0.3012 -0.5591
  102MOL   C44449126   1.118   6.743   3.177 -0.1916 -0.2493  0.3080
  102MOL   O44549127   1.025   6.750   3.099 -0.4080  0.4982 -0.2364
  102MOL   H44649128   0.822   6.837   4.092  0.5600 -0.7234  0.5116
  102MOL   H44749129   0.792   6.695   3.996 -1.2806 -1.1715  0.1798
  102MOL   H44849130   0.727   6.966   3.879 -0.5797 -0.2011  1.4707
  102MOL   H44949131   0.748   6.821   3.788  0.6188  0.7528 -0.7260
  102MOL   H45049132   0.991   6.823   3.856  0.7779  0.8917  0.9717
  102MOL   H45149133   0.975   6.982   3.922  0.7382 -1.9539  1.5073
  102MOL   H45249134   0.872   7.053   3.683  0.4508  0.5200  1.0528
  102MOL   H45349135   1.051   7.017   3.697 -0.0735  0.0638  0.7916
  102MOL   H45449136   0.894   6.821   3.295 -2.0222 -0.6283  1.3189
  102MOL   H45549137   0.932   6.715   3.424  1.6046  0.7769  3.8518
  102MOL   H45649138   1.159   6.896   3.313  0.0379 -0.3241 -2.7005
  102MOL   H45749139   1.159   6.731   3.389 -0.9162  0.3917  0.8362
  102MOL   O45849140   1.238   6.690   3.146 -0.0193 -0.1709  0.3264
  102MOL   C45949141   1.259   6.656   3.007  0.2534 -0.0621 -0.7044
  102MOL   C46049142   1.262   6.507   3.006 -0.4730 -0.3255  0.3658
  102MOL   C46149143   1.291   6.450   2.867  0.5141 -0.3456 -0.1616
  102MOL   C46249144   1.330   6.299   2.864 -0.3758 -0.1375 -0.4631
  102MOL   O46349145   1.463   6.283   2.909 -0.5628  0.3372 -0.1268
  102MOL   C46449146   1.537   6.178   2.868  0.1857  0.2590 -0.2182
  102MOL   O46549147   1.516   6.105   2.765  0.1977  0.3311 -0.3000
  102MOL   C46649148   1.661   6.167   2.953  0.3654 -0.5391 -1.2130
  102MOL   C46749149   1.627   6.111   3.095 -0.0340  0.4441 -0.7295
  102MOL   C46849150   1.718   5.992   3.137  0.4240  0.2119  0.5640
  102MOL   O46949151   1.840   6.004   3.135  0.1938 -0.1270  0.1543
  102MOL   H47049152   1.189   6.693   2.932 -1.2979 -2.0573 -0.2604
  102MOL   H47149153   1.360   6.687   2.977 -0.6230 -0.0947 -3.8770
  102MOL   H47249154   1.160   6.483   3.036 -0.7696 -0.7340 -0.9332
  102MOL   H47349155   1.337   6.466   3.073  0.9013 -1.5808 -1.8631
  102MOL   H47449156   1.373   6.503   2.819  1.4756 -1.3632  0.3395
  102MOL   H47549157   1.204   6.466   2.804  0.5245 -0.1351 -0.1231
  102MOL   H47649158   1.254   6.258   2.930 -1.6167  0.3405 -1.5922
  102MOL   H47749159   1.313   6.275   2.759  0.6722  1.4242 -1.0114
  102MOL   H47849160   1.716   6.260   2.941  0.8137 -1.1475 -4.2146
  102MOL   H47949161   1.723   6.096   2.898 -0.4587 -1.5425 -0.8724
  102MOL   H48049162   1.636   6.187   3.172  2.1737 -0.6434  0.1366
  102MOL   H48149163   1.525   6.072   3.093  0.1872 -0.2207  0.7496
  102MOL   H48249164   1.677   5.894   3.162  2.0277 -0.7028 -0.3057
  103MOL     O149165   6.486   0.836   4.171 -0.2522 -0.0341 -0.0494
  103MOL     C249166   6.552   0.754   4.079  0.5327 -0.1567  0.4097
  103MOL     C349167   6.702   0.783   4.060  0.5629 -0.6984  0.6487
  103MOL     C449168   6.716   0.926   3.997 -0.2378  0.3315  0.0962
  103MOL     C549169   6.855   0.951   3.937  0.2339 -0.2486  0.1267
  103MOL     O649170   6.852   0.889   3.808  0.5449  0.5164 -0.0536
  103MOL     C749171   6.940   0.779   3.782  0.2705  0.0197  0.6469
  103MOL     O849172   7.034   0.752   3.855  0.1650  0.2912  0.5596
  103MOL     C949173   6.910   0.723   3.642  0.8357  0.1791 -0.4601
  103MOL    C1049174   7.008   0.778   3.541  0.0090 -0.2574 -0.5162
  103MOL    C1149175   7.154   0.750   3.567  0.4117 -0.0356 -0.1259
  103MOL    O1249176   7.207   0.642   3.549 -0.4194 -0.1352  0.2918
  103MOL    H1349177   6.538   0.656   4.125 -0.6120 -0.7637 -1.1993
  103MOL    H1449178   6.500   0.754   3.984 -1.9699 -0.6424  1.7364
  103MOL    H1549179   6.762   0.704   4.016  3.5191  1.8558 -0.0996
  103MOL    H1649180   6.748   0.791   4.159 -1.2572 -0.0577  1.4713
  103MOL    H1749181   6.695   0.994   4.079  1.9088  0.2143  0.7883
  103MOL    H1849182   6.652   0.944   3.911  0.1272  1.8697  0.1215
  103MOL    H1949183   6.873   1.057   3.914  0.2008 -0.5102 -1.1718
  103MOL    H2049184   6.931   0.911   4.004 -0.9749 -0.5486  1.3233
  103MOL    H2149185   6.809   0.757   3.623  0.3953 -0.1734  1.1838
  103MOL    H2249186   6.915   0.614   3.646 -1.2469  0.0795  0.0113
  103MOL    H2349187   6.988   0.718   3.452 -1.2927  1.2423 -1.2470
  103MOL    H2449188   7.014   0.886   3.532  0.7906 -0.4872 -3.0926
  103MOL    H2549189   6.507   0.824   4.263  0.5432  1.5500 -0.0093
  103MOL    O2649190   7.223   0.854   3.605 -1.3578 -0.4771  0.3594
  103MOL    C2749191   7.337   0.843   3.689  0.3707 -0.0888  0.0893
  103MOL    C2849192   7.457   0.864   3.598  0.6512  0.0399  0.3851
  103MOL    C2949193   7.588   0.839   3.683  0.2378 -0.3996 -0.2451
  103MOL    C3049194   7.715   0.885   3.612  0.0846 -0.2938  0.4445
  103MOL    O3149195   7.823   0.866   3.696  0.8753 -0.6220 -0.0925
  103MOL    C3249196   0.019   0.979   3.725 -0.0628 -0.0469  1.0280
  103MOL    O3349197   0.002   1.096   3.687 -0.0456 -0.1191 -0.0196
  103MOL    C3449198   0.136   0.940   3.813  0.3666 -0.0231  0.4234
  103MOL    C3549199   0.194   1.071   3.879 -0.3188  0.0662 -0.3811
  103MOL    C3649200   0.321   1.132   3.810  0.0544 -0.5452 -0.2790
  103MOL    O3749201   0.346   1.248   3.812  0.4690  0.2447 -0.1519
  103MOL    H3849202   7.337   0.914   3.772  2.1291 -2.2184  1.9858
  103MOL    H3949203   7.338   0.749   3.745 -1.1362  0.1162  0.4861
  103MOL    H4049204   7.457   0.961   3.548 -1.4162  0.3255  0.8848
  103MOL    H4149205   7.465   0.781   3.528  0.1829  0.5414 -0.2741
  103MOL    H4249206   7.603   0.735   3.712  1.1337  0.0331  0.9062
  103MOL    H4349207   7.569   0.910   3.764  0.7481  0.6489 -1.0274
  103MOL    H4449208   7.726   0.814   3.530 -1.9198 -0.4085  0.2493
  103MOL    H4549209   7.697   0.985   3.574 -0.3494 -0.3712  0.4425
  103MOL    H4649210   0.203   0.862   3.777 -0.4142  0.2473 -1.7000
  103MOL    H4749211   0.086   0.895   3.898  1.8917 -0.5527  1.0583
  103MOL    H4849212   0.122   1.153   3.883  0.1349  0.5221 -1.4262
  103MOL    H4949213   0.211   1.051   3.985  0.9677  0.7550 -0.4557
  103MOL    O5049214   0.398   1.028   3.762  0.1285 -0.5211  0.8396
  103MOL    C5149215   0.510   1.056   3.675  0.2221  0.0418  0.1624
  103MOL    C5249216   0.564   0.939   3.616  0.7561  0.4745  0.9283
  103MOL    C5349217   0.470   0.862   3.523  0.6280  0.5052  0.5801
  103MOL    C5449218   0.556   0.754   3.452 -0.2317  0.5600 -1.1735
  103MOL    O5549219   0.649   0.804   3.355  0.3665  0.0515  0.3675
  103MOL    C5649220   0.781   0.829   3.375  0.1604  0.7445 -0.1527
  103MOL    O5749221   0.834   0.804   3.480  0.0868  0.7677 -0.5877
  103MOL    C5849222   0.854   0.881   3.261  0.0292  0.3125  0.0433
  103MOL    C5949223   0.825   1.036   3.247  0.0969  0.3816 -0.3678
  103MOL    C6049224   0.696   1.052   3.171 -0.2285 -0.2380 -0.3749
  103MOL    O6149225   0.604   1.115   3.226 -0.3062 -0.3046 -0.1490
  103MOL    H6249226   0.469   1.119   3.596  2.8295  1.0490 -0.4394
  103MOL    H6349227   0.593   1.109   3.720  1.8913 -1.3823 -1.1111
  103MOL    H6449228   0.605   0.871   3.690 -2.1721 -0.3285  1.8723
  103MOL    H6549229   0.656   0.972   3.569 -0.1496  1.0183 -0.5126
  103MOL    H6649230   0.431   0.938   3.455 -0.3601 -1.7091 -1.4082
  103MOL    H6749231   0.386   0.816   3.576 -0.0415  0.5221 -0.4525
  103MOL    H6849232   0.610   0.684   3.515 -0.5469  0.7565 -0.6792
  103MOL    H6949233   0.488   0.689   3.397 -0.7454 -0.3874  0.5316
  103MOL    H7049234   0.818   0.836   3.169  0.4094  0.5507 -0.2234
  103MOL    H7149235   0.956   0.853   3.285 -0.1150  1.5415  2.2792
  103MOL    H7249236   0.804   1.080   3.344 -0.6496 -0.4171 -0.1618
  103MOL    H7349237   0.897   1.086   3.183  0.5820 -1.4346 -1.2833
  103MOL    O7449238   0.694   1.001   3.048 -0.1056 -0.8829 -0.4255
  103MOL    C7549239   0.587   1.018   2.964 -0.3815 -0.3844 -0.6121
  103MOL    C7649240   0.494   0.896   2.985  0.0076  0.4335 -0.1881
  103MOL    C7749241   0.553   0.756   2.979  0.1469  0.4624 -0.2536
  103MOL    C7849242   0.470   0.653   3.061  0.6464  0.2673 -0.1950
  103MOL    O7949243   0.344   0.630   3.000  0.0984 -0.3401 -0.6468
  103MOL    C8049244   0.311   0.508   2.969  0.2313  0.2133  0.2086
  103MOL    O8149245   0.382   0.413   2.981  0.2018  0.0791 -0.0325
  103MOL    C8249246   0.180   0.508   2.895 -0.3514 -0.3994  0.2714
  103MOL    C8349247   0.186   0.428   2.760 -0.5162 -0.3569 -0.2480
  103MOL    C8449248   0.164   0.283   2.773  0.7402  0.4423  1.2420
  103MOL    O8549249   0.248   0.202   2.732 -0.1775  0.1733 -0.6976
  103MOL    H8649250   0.524   1.104   2.988 -0.8298 -0.9346  0.2238
  103MOL    H8749251   0.608   1.024   2.858 -1.3832 -0.3197 -0.8107
  103MOL    H8849252   0.420   0.911   2.906 -0.0147  1.0584 -0.0477
  103MOL    H8949253   0.441   0.899   3.080  1.0304  1.6715  0.3508
  103MOL    H9049254   0.646   0.754   3.036 -0.4764 -0.3711  0.7403
  103MOL    H9149255   0.575   0.717   2.879  0.7577  1.2736 -0.4438
  103MOL    H9249256   0.534   0.567   3.081  1.8091  0.5143 -2.6609
  103MOL    H9349257   0.448   0.692   3.161  2.3794 -0.6129  0.5664
  103MOL    H9449258   0.154   0.610   2.866  1.9212 -0.4861 -2.1728
  103MOL    H9549259   0.102   0.475   2.964 -0.8734  0.3893  0.0737
  103MOL    H9649260   0.117   0.459   2.681 -2.1458 -0.3714  1.1258
  103MOL    H9749261   0.288   0.447   2.728 -0.2036  0.8091  1.3880
  103MOL    O9849262   0.049   0.256   2.823  0.8800  0.0215  0.4416
  103MOL    C9949263   0.015   0.120   2.866 -0.2210 -0.1556  0.1539
  103MOL   C10049264   0.092   0.091   2.998 -1.1035 -0.4054 -0.3713
  103MOL   C10149265   0.036   0.181   3.109  0.3993  0.0501  0.1430
  103MOL   C10249266   0.115   0.180   3.242 -0.2642  0.5027  0.1542
  103MOL   O10349267   0.123   0.048   3.284  0.4930 -0.1564  0.3120
  103MOL   C10449268   0.132   0.019   3.409 -0.5721  0.2601 -0.6643
  103MOL   O10549269   0.097   0.084   3.503 -0.1232 -0.0359  0.0645
  103MOL   C10649270   0.185   7.754   3.422 -0.3408 -0.4010  0.2373
  103MOL   C10749271   0.339   7.746   3.451 -1.0689 -0.1616 -0.6436
  103MOL   C10849272   0.426   7.653   3.375  0.4165  0.0281 -0.0938
  103MOL   O10949273   0.399   7.628   3.257 -0.6060 -0.6840  0.0514
  103MOL   H11049274   7.781   0.111   2.873 -0.2962  1.0200  0.6800
  103MOL   H11149275   0.041   0.053   2.784 -0.5278 -0.4164  0.2689
  103MOL   H11249276   0.200   0.100   2.990 -1.1963 -0.5498 -1.8017
  103MOL   H11349277   0.083   7.860   3.024  1.2782 -0.6218 -0.3046
  103MOL   H11449278   7.808   0.155   3.137  1.1190 -0.8980  1.9486
  103MOL   H11549279   0.025   0.284   3.075  0.2094 -0.0407 -0.0794
  103MOL   H11649280   0.209   0.222   3.206 -0.7272 -1.3675 -3.4744
  103MOL   H11749281   0.057   0.251   3.301  0.6666  0.7130  0.8299
  103MOL   H11849282   0.159   7.692   3.337  0.1784 -1.0650  0.5571
  103MOL   H11949283   0.133   7.711   3.508 -1.9088  0.8470 -0.0662
  103MOL   H12049284   0.377   7.840   3.410 -3.9488  1.2929 -0.0895
  103MOL   H12149285   0.362   7.747   3.558 -0.1724 -1.2448 -0.8135
  103MOL   O12249286   0.522   7.599   3.450 -0.5450 -0.3121 -0.3174
  103MOL   C12349287   0.600   7.497   3.397  0.0756  0.3306 -0.2722
  103MOL   C12449288   0.721   7.481   3.481 -0.2338  0.6437 -0.2787
  103MOL   C12549289   0.823   7.376   3.426  0.6166 -0.1794 -1.0752
  103MOL   C12649290   0.958   7.383   3.502 -0.0676 -0.4292 -0.5063
  103MOL   O12749291   0.945   7.338   3.638  0.0719 -0.1859  0.2366
  103MOL   C12849292   0.927   7.427   3.738 -0.2311 -0.7207 -0.1610
  103MOL   O12949293   0.920   7.550   3.732 -0.1571  0.0876  0.0457
  103MOL   C13049294   0.893   7.360   3.871  0.0327 -0.5193  0.1701
  103MOL   C13149295   0.742   7.333   3.913 -0.5235 -0.3402  0.8396
  103MOL   C13249296   0.630   7.392   3.832  0.3018  0.1979  0.7438
  103MOL   O13349297   0.572   7.325   3.747 -0.3700  0.0079 -0.2849
  103MOL   H13449298   0.531   7.413   3.404  0.6883 -0.0819  0.8997
  103MOL   H13549299   0.620   7.521   3.293  0.4502  1.0751 -0.0297
  103MOL   H13649300   0.688   7.456   3.582 -2.1735  0.5081 -0.9168
  103MOL   H13749301   0.768   7.579   3.485  0.3445  0.4035 -1.0113
  103MOL   H13849302   0.841   7.406   3.322 -0.8040 -0.1763 -1.3403
  103MOL   H13949303   0.799   7.270   3.414  3.3530 -1.4047  3.3343
  103MOL   H14049304   1.035   7.323   3.454  0.5278  1.9884 -2.7084
  103MOL   H14149305   1.002   7.482   3.486  0.5597 -0.4932  0.7661
  103MOL   H14249306   0.942   7.427   3.941  0.5002 -1.7260  1.0273
  103MOL   H14349307   0.943   7.263   3.868  2.1960  0.5599  0.3509
  103MOL   H14449308   0.723   7.226   3.907 -0.1720 -0.2899 -1.7122
  103MOL   H14549309   0.739   7.358   4.019 -4.8098 -0.1573  0.7434
  103MOL   O14649310   0.606   7.519   3.866  0.0903 -0.0556  0.2726
  103MOL   C14749311   0.520   7.597   3.785 -0.0962 -0.2105 -0.3240
  103MOL   C14849312   0.401   7.630   3.863  0.2170  0.3244  0.1627
  103MOL   C14949313   0.285   7.531   3.862 -0.1680  0.2157 -0.3405
  103MOL   C15049314   0.178   7.555   3.746 -0.0731  0.2168  0.8469
  103MOL   O15149315   0.065   7.468   3.763  0.1413  0.6635 -0.0515
  103MOL   C15249316   7.858   7.449   3.658 -0.2040  0.2634  0.4562
  103MOL   O15349317   7.873   7.490   3.543 -0.6482  0.0462 -0.3546
  103MOL   C15449318   7.735   7.364   3.694  0.1199 -0.5506 -0.2719
  103MOL   C15549319   7.666   7.308   3.574 -0.0726  0.2256  0.5175
  103MOL   C15649320   7.552   7.239   3.630 -0.4148  0.7652 -0.1237
  103MOL   O15749321   7.438   7.268   3.599 -0.0369 -0.0407  0.2236
  103MOL   H15849322   0.583   7.682   3.760  0.7571  0.2170  2.9451
  103MOL   H15949323   0.491   7.546   3.694  0.9224  1.8706 -1.8446
  103MOL   H16049324   0.360   7.728   3.840  0.6861  0.7201  0.9975
  103MOL   H16149325   0.428   7.642   3.968  1.9600 -1.1564 -0.0870
  103MOL   H16249326   0.240   7.530   3.962  0.1621  0.0869 -0.1922
  103MOL   H16349327   0.317   7.427   3.857 -0.4828  0.0919  0.1506
  103MOL   H16449328   0.138   7.656   3.747 -1.1906 -0.2119  0.5308
  103MOL   H16549329   0.212   7.542   3.643  1.5845  1.2680  1.2447
  103MOL   H16649330   7.680   7.433   3.759  0.7675 -1.3716  1.1828
  103MOL   H16749331   7.775   7.278   3.748 -0.2443 -1.3347 -1.2353
  103MOL   H16849332   7.626   7.386   3.510  1.4281  1.5140  1.1255
  103MOL   H16949333   7.730   7.236   3.524  1.2182  0.6348  1.5436
  103MOL   O17049334   7.593   7.132   3.698  0.0444  0.1742 -0.2008
  103MOL   C17149335   7.493   7.045   3.759  1.4310 -0.0005  0.5075
  103MOL   C17249336   7.500   7.043   3.909 -0.5674  0.0563  0.0068
  103MOL   C17349337   7.494   7.181   3.980 -0.3266  0.3848  0.3893
  103MOL   C17449338   7.530   7.182   4.130  0.4122 -0.6112  0.1254
  103MOL   O17549339   7.422   7.127   4.206  0.4048 -0.2164  0.0852
  103MOL   C17649340   7.411   7.143   4.334  0.2272 -0.8192  0.1179
  103MOL   O17749341   7.503   7.193   4.400  0.1897 -0.3206 -0.3017
  103MOL   C17849342   7.274   7.104   4.389  0.5481  0.9113 -0.1407
  103MOL   C17949343   7.242   6.963   4.362 -0.7912  0.4587  0.6577
  103MOL   C18049344   7.140   6.947   4.248  0.1625 -0.2912  0.3920
  103MOL   O18149345   7.106   6.834   4.214 -0.0442 -0.0377 -0.3471
  103MOL   H18249346   7.396   7.084   3.729  1.8121  0.0290 -0.6844
  103MOL   H18349347   7.503   6.946   3.716  1.3559  1.4312 -2.9354
  103MOL   H18449348   7.590   6.989   3.937 -0.6187 -0.4644 -0.8213
  103MOL   H18549349   7.421   6.977   3.946 -0.0073 -0.9652 -0.6072
  103MOL   H18649350   7.398   7.232   3.970  0.1694  1.6003  1.5769
  103MOL   H18749351   7.555   7.244   3.915 -0.2720  1.1958  1.2051
  103MOL   H18849352   7.631   7.154   4.160  0.5175  0.9624  1.2684
  103MOL   H18949353   7.535   7.288   4.153  0.5945 -0.8415  1.1740
  103MOL   H19049354   7.192   7.171   4.367  2.0416  3.2723  1.2337
  103MOL   H19149355   7.286   7.108   4.498 -2.3511  1.9024  0.1595
  103MOL   H19249356   7.327   6.905   4.325 -0.3509  1.6499 -0.2389
  103MOL   H19349357   7.199   6.927   4.456 -2.2256  0.8305  0.1576
  103MOL   O19449358   7.110   7.066   4.187  0.0921 -0.1073 -0.2537
  103MOL   C19549359   7.023   7.064   4.075 -0.4233 -0.3549  0.9035
  103MOL   C19649360   7.114   7.014   3.952  0.0666  0.0606 -0.3352
  103MOL   C19749361   7.033   6.931   3.848 -0.0086  0.3822  0.2730
  103MOL   C19849362   7.121   6.850   3.745 -0.8568  0.3511  0.0098
  103MOL   O19949363   7.223   6.762   3.807 -0.2734 -0.3301 -0.3590
  103MOL   C20049364   7.181   6.654   3.883 -0.3539 -0.3396 -0.0216
  103MOL   O20149365   7.065   6.627   3.907 -0.0873 -0.0583  0.0729
  103MOL   C20249366   7.295   6.569   3.946 -0.1884 -0.9349  0.4031
  103MOL   C20349367   7.266   6.562   4.095 -0.2533  0.0072  0.3508
  103MOL   C20449368   7.392   6.533   4.177 -0.2450 -0.1638  0.4296
  103MOL   O20549369   7.471   6.616   4.202 -0.3659 -0.1278  0.6996
  103MOL   H20649370   6.947   6.987   4.089  1.3018 -2.3616 -0.3977
  103MOL   H20749371   6.979   7.163   4.060  1.4909  0.6926  2.0817
  103MOL   H20849372   7.199   6.961   3.995 -0.7734 -1.8160 -0.9066
  103MOL   H20949373   7.153   7.093   3.888 -0.7858 -0.1987 -1.1847
  103MOL   H21049374   6.953   6.995   3.812 -1.8598 -1.6646  0.6113
  103MOL   H21149375   6.982   6.851   3.902 -0.2544 -0.3605 -1.0287
  103MOL   H21249376   7.051   6.793   3.684 -1.9802  0.1962  1.4029
  103MOL   H21349377   7.178   6.917   3.681  0.2277 -0.7788 -0.2300
  103MOL   H21449378   7.390   6.617   3.925 -0.2602 -0.0988  1.9809
  103MOL   H21549379   7.304   6.469   3.902  0.7240 -0.2372 -1.0186
  103MOL   H21649380   7.232   6.658   4.133  0.6377  0.3256  0.3528
  103MOL   H21749381   7.189   6.493   4.130  1.4778 -0.3297  3.5827
  103MOL   O21849382   7.400   6.403   4.211 -0.1435 -0.5963  0.2347
  103MOL   C21949383   7.513   6.354   4.287  0.2103  0.9229 -0.5461
  103MOL   C22049384   7.601   6.266   4.195 -1.0521  0.6172 -0.5708
  103MOL   C22149385   7.542   6.116   4.195 -0.0631 -0.0704 -0.0621
  103MOL   C22249386   7.620   6.033   4.094 -0.1587 -0.3395 -0.5477
  103MOL   O22349387   7.752   6.045   4.128  0.3407 -0.4171 -0.3477
  103MOL   C22449388   7.841   5.959   4.077  0.0636 -0.2468 -0.2669
  103MOL   O22549389   7.825   5.877   3.985  0.0665 -0.0197 -0.3297
  103MOL   C22649390   0.097   5.989   4.145 -0.3234  0.0539  0.2272
  103MOL   C22749391   0.197   6.058   4.053  0.0019 -0.3231  0.4689
  103MOL   C22849392   0.149   6.194   4.020  0.2455 -0.2643 -0.2444
  103MOL   O22949393   0.055   6.245   4.081  0.3807  0.1261  0.1575
  103MOL   H23049394   7.569   6.444   4.315  0.0600  0.7596  0.2801
  103MOL   H23149395   7.492   6.289   4.372  1.4960 -0.3257 -1.1810
  103MOL   H23249396   7.699   6.263   4.242 -0.4057  2.1456 -1.7807
  103MOL   H23349397   7.624   6.300   4.094  0.1759  1.2482 -0.0847
  103MOL   H23449398   7.437   6.116   4.168 -0.3982  2.1313  1.1134
  103MOL   H23549399   7.554   6.062   4.289 -0.3794  1.6922  0.9998
  103MOL   H23649400   7.588   5.930   4.077  0.0016 -0.1995 -1.7276
  103MOL   H23749401   7.603   6.076   3.995  0.0406  0.4816 -0.2250
  103MOL   H23849402   0.136   5.896   4.187  0.2521  1.4146  2.8433
  103MOL   H23949403   0.078   6.040   4.240 -0.2670  1.9632 -0.7648
  103MOL   H24049404   0.291   6.069   4.107  0.9823  0.9076 -1.4508
  103MOL   H24149405   0.218   5.996   3.966 -1.2258  2.0010 -1.5613
  103MOL   O24249406   0.227   6.255   3.931  0.2534 -0.4795 -0.1509
  103MOL   C24349407   0.196   6.390   3.888 -0.2433  0.2635 -0.2624
  103MOL   C24449408   0.286   6.432   3.769 -0.5757 -0.5140 -0.1845
  103MOL   C24549409   0.273   6.580   3.738  0.6282  0.1739  0.4723
  103MOL   C24649410   0.379   6.623   3.641  0.2241 -0.0127  0.7319
  103MOL   O24749411   0.412   6.755   3.663 -0.4385  0.0102 -0.3846
  103MOL   C24849412   0.487   6.821   3.572  0.2911  0.8268 -0.8941
  103MOL   O24949413   0.552   6.776   3.474 -0.2399  0.2044 -0.9532
  103MOL   C25049414   0.491   6.966   3.612 -0.3096  0.4242 -0.0647
  103MOL   C25149415   0.486   7.058   3.490 -0.0771 -0.6952  0.6800
  103MOL   C25249416   0.341   7.070   3.424 -0.0302 -0.2089 -0.1464
  103MOL   O25349417   0.239   7.006   3.464 -0.8116  0.4088 -0.5105
  103MOL   H25449418   0.092   6.389   3.854  0.2771 -0.2370 -1.9320
  103MOL   H25549419   0.206   6.467   3.964 -0.6760 -0.2797  0.3456
  103MOL   H25649420   0.275   6.364   3.685 -1.5183  1.2237 -1.5087
  103MOL   H25749421   0.387   6.417   3.807  0.2089 -0.7547 -2.3270
  103MOL   H25849422   0.294   6.626   3.834  1.2182  0.3393  0.2700
  103MOL   H25949423   0.177   6.609   3.694  1.3795  2.0076  0.0067
  103MOL   H26049424   0.464   6.556   3.653 -0.8849 -1.5805 -0.0299
  103MOL   H26149425   0.333   6.610   3.543  0.2591  1.9540  0.4325
  103MOL   H26249426   0.577   6.986   3.676 -1.4904  2.2863  1.0135
  103MOL   H26349427   0.400   6.988   3.668 -1.1223 -0.0506 -1.1820
  103MOL   H26449428   0.519   7.158   3.520  0.7408 -0.5725 -0.5555
  103MOL   H26549429   0.569   7.034   3.424  1.9156  0.4545  2.6766
  103MOL   O26649430   0.333   7.168   3.326 -0.4268  0.5097  0.4389
  103MOL   C26749431   0.204   7.192   3.257 -0.7519  0.1812 -0.3763
  103MOL   C26849432   0.227   7.183   3.107 -0.0446 -0.5110  0.3605
  103MOL   C26949433   0.260   7.043   3.061 -0.4764  0.5138  0.0696
  103MOL   C27049434   0.330   7.029   2.916 -0.6859  0.3748  0.6645
  103MOL   O27149435   0.260   7.114   2.826 -0.2069 -0.5005 -0.3873
  103MOL   C27249436   0.294   7.123   2.697  0.0334 -0.2665  0.5194
  103MOL   O27349437   0.381   7.066   2.645 -0.4833 -0.1466 -0.2184
  103MOL   C27449438   0.207   7.221   2.613  0.5199  0.2500 -0.7860
  103MOL   C27549439   0.058   7.226   2.659  0.0691 -0.2391  0.0159
  103MOL   C27649440   7.846   7.279   2.538  0.6139  0.1056 -0.6987
  103MOL   O27749441   7.800   7.390   2.535  0.0634  0.2867 -0.1170
  103MOL   H27849442   0.129   7.117   3.284  0.8925 -0.7858  1.6616
  103MOL   H27949443   0.176   7.293   3.287  0.4687  0.7415 -1.0932
  103MOL   H28049444   0.312   7.241   3.071 -0.9220 -0.1737 -1.2203
  103MOL   H28149445   0.138   7.231   3.066  0.1286 -2.9490 -3.0359
  103MOL   H28249446   0.175   6.979   3.041  0.4855 -0.3739 -1.2894
  103MOL   H28349447   0.319   6.992   3.138 -0.6933 -0.8789 -0.6762
  103MOL   H28449448   0.430   7.072   2.911 -0.7420  0.7094  2.1565
  103MOL   H28549449   0.345   6.928   2.878 -2.6583  0.7074 -1.0722
  103MOL   H28649450   0.209   7.183   2.511  0.2038  0.4904 -0.8825
  103MOL   H28749451   0.262   7.314   2.618  1.7862 -0.4920 -0.7189
  103MOL   H28849452   0.023   7.125   2.681 -0.8489  0.3926  1.5303
  103MOL   H28949453   0.045   7.296   2.742 -0.7992  0.3145 -0.5805
  103MOL   O29049454   7.828   7.181   2.444 -0.0437 -0.1298 -0.2873
  103MOL   C29149455   7.760   7.205   2.319 -0.1502  0.4216 -1.2072
  103MOL   C29249456   7.765   7.069   2.248  0.4347 -0.4483  0.4538
  103MOL   C29349457   7.712   7.068   2.109 -0.3043  0.1524 -0.3693
  103MOL   C29449458   7.744   7.174   2.009  0.0898 -0.1341 -0.0795
  103MOL   O29549459   0.009   7.195   2.004  0.4914  0.3124  0.3370
  103MOL   C29649460   0.054   7.280   1.901  0.5852  1.1204 -0.4347
  103MOL   O29749461   7.860   7.337   1.813 -0.0183 -0.0671 -0.5963
  103MOL   C29849462   0.206   7.284   1.895  0.6508 -0.5765 -0.3756
  103MOL   C29949463   0.260   7.300   2.043  0.4784 -0.1409 -0.3384
  103MOL   C30049464   0.332   7.170   2.087  0.5655 -0.0791  0.1293
  103MOL   O30149465   0.410   7.109   2.018  0.2799  0.2552 -0.0034
  103MOL   H30249466   7.660   7.242   2.338 -0.6398 -1.6738  0.4927
  103MOL   H30349467   7.812   7.289   2.271  0.5720  0.0855 -1.0269
  103MOL   H30449468   7.716   6.997   2.313 -2.1863  0.0736 -0.8532
  103MOL   H30549469   7.863   7.021   2.257  0.4455 -0.5540 -0.1510
  103MOL   H30649470   7.603   7.067   2.115 -0.2707 -1.9295  0.4538
  103MOL   H30749471   7.744   6.976   2.060 -3.0474 -0.1538 -1.7072
  103MOL   H30849472   7.715   7.141   1.909 -1.8255 -0.4499  0.5567
  103MOL   H30949473   7.691   7.266   2.032  1.4677  1.0870 -1.7072
  103MOL   H31049474   0.227   7.371   1.834  0.4790  1.0875  1.8963
  103MOL   H31149475   0.250   7.200   1.841 -0.8152 -3.1617  2.3077
  103MOL   H31249476   0.341   7.372   2.054  0.1914 -0.0037  0.9206
  103MOL   H31349477   0.189   7.332   2.119  0.9196  3.4598 -1.3590
  103MOL   O31449478   0.302   7.139   2.210  0.4428  0.1323 -0.4181
  103MOL   C31549479   0.365   7.031   2.282  0.1072  0.2082  0.8365
  103MOL   C31649480   0.258   6.915   2.298 -1.0135  0.5608 -0.3095
  103MOL   C31749481   0.296   6.811   2.402  0.8127  0.5107  0.2175
  103MOL   C31849482   0.182   6.708   2.416 -0.3754 -0.3699 -0.3947
  103MOL   O31949483   0.081   6.779   2.499 -0.3840  0.1344 -0.0991
  103MOL   C32049484   0.081   6.766   2.632 -0.3023  0.3791  0.5973
  103MOL   O32149485   0.171   6.732   2.709 -0.4445 -0.2086 -0.0079
  103MOL   C32249486   7.821   6.805   2.689  0.3224 -0.2505  0.6324
  103MOL   C32349487   7.808   6.823   2.846  1.2731  0.6639 -0.6677
  103MOL   C32449488   7.706   6.933   2.877  0.2003 -0.0237  0.0578
  103MOL   O32549489   7.741   7.040   2.929 -0.3282  0.0125 -0.6071
  103MOL   H32649490   0.455   6.994   2.233 -1.6564 -1.1971 -1.4567
  103MOL   H32749491   0.395   7.070   2.379  0.8527 -0.2843  0.8068
  103MOL   H32849492   0.230   6.867   2.204  2.1557 -3.7652  0.7457
  103MOL   H32949493   0.165   6.959   2.333 -1.0742 -0.5763  0.9810
  103MOL   H33049494   0.334   6.865   2.488 -1.9712  1.5978  0.8052
  103MOL   H33149495   0.381   6.756   2.360  1.0048  0.2551  0.9379
  103MOL   H33249496   0.136   6.687   2.320  0.8599 -0.6996 -0.9144
  103MOL   H33349497   0.211   6.622   2.475 -0.9494  0.3452  0.9634
  103MOL   H33449498   7.753   6.723   2.667  0.4815 -0.1491 -0.2381
  103MOL   H33549499   7.779   6.890   2.636  2.1585  0.9794  1.0807
  103MOL   H33649500   7.774   6.730   2.891  0.1516  0.2444 -2.3755
  103MOL   H33749501   0.027   6.848   2.897  0.4587  0.9520  0.7304
  103MOL   O33849502   7.582   6.900   2.840  0.0977  0.2472 -0.1967
  103MOL   C33949503   7.473   6.980   2.885  0.3841 -0.1701 -0.0193
  103MOL   C34049504   7.372   6.993   2.771  0.2030  0.1732  0.6882
  103MOL   C34149505   7.420   7.098   2.668  0.6297  0.6937 -0.3970
  103MOL   C34249506   7.431   7.240   2.724  0.6458 -0.5541 -0.9225
  103MOL   O34349507   7.445   7.342   2.625 -0.3249  0.4144 -0.7899
  103MOL   C34449508   7.343   7.401   2.568  0.3978  0.2780 -0.0450
  103MOL   O34549509   7.226   7.367   2.587 -0.3787 -0.0041 -0.4158
  103MOL   C34649510   7.377   7.518   2.466  0.2572  0.0114  0.5571
  103MOL   C34749511   7.514   7.498   2.391  0.6597 -0.1594 -0.4172
  103MOL   C34849512   7.507   7.500   2.243  0.6072 -0.1503  0.0817
  103MOL   O34949513   7.574   7.427   2.177 -0.4522  0.3190  0.8289
  103MOL   H35049514   7.427   6.920   2.963  0.0368 -1.5721 -1.2769
  103MOL   H35149515   7.505   7.069   2.940  1.5532 -1.9960  2.3609
  103MOL   H35249516   7.269   7.009   2.803  0.1003 -2.4965  1.7739
  103MOL   H35349517   7.363   6.900   2.715  0.4997  1.1714 -1.0637
  103MOL   H35449518   7.358   7.087   2.579  0.5482 -0.0839 -0.2411
  103MOL   H35549519   7.515   7.064   2.627 -0.6468 -2.3953 -0.9073
  103MOL   H35649520   7.343   7.266   2.783  1.5892 -2.2667  1.2917
  103MOL   H35749521   7.513   7.235   2.795  0.7420  2.3386 -0.7744
  103MOL   H35849522   7.379   7.606   2.530 -0.0813  0.4556 -0.0423
  103MOL   H35949523   7.290   7.512   2.400  1.1006  0.4624 -0.6243
  103MOL   H36049524   7.577   7.582   2.420  0.8595  0.0793 -1.5197
  103MOL   H36149525   7.562   7.404   2.421  1.4244  0.1938 -0.5221
  103MOL   O36249526   7.423   7.593   2.198 -0.1120 -0.0564  0.0901
  103MOL   C36349527   7.419   7.621   2.058 -0.2398 -0.2402 -0.8847
  103MOL   C36449528   7.522   7.727   2.028 -0.6142  0.0413  0.3032
  103MOL   C36549529   7.484   7.870   2.081 -0.3717  0.3751 -0.2060
  103MOL   C36649530   7.577   0.104   2.027  0.6621 -0.1126  0.7098
  103MOL   O36749531   7.534   0.228   2.096 -0.4139  0.1017 -0.0188
  103MOL   C36849532   7.627   0.325   2.123 -0.2058  0.5833 -0.7206
  103MOL   O36949533   7.746   0.310   2.113 -0.5421 -0.8264 -0.0920
  103MOL   C37049534   7.561   0.452   2.181 -0.5737 -0.1429  0.2455
  103MOL   C37149535   7.504   0.415   2.323 -0.5440  0.0634 -0.0684
  103MOL   C37249536   7.611   0.432   2.435  0.1981  1.1430  0.4461
  103MOL   O37349537   7.653   0.334   2.489 -0.1315  0.3372 -0.0597
  103MOL   H37449538   7.427   7.530   1.999 -1.8762 -0.3520 -0.9573
  103MOL   H37549539   7.317   7.656   2.048  0.5508  1.7704 -2.2040
  103MOL   H37649540   7.522   7.739   1.919  0.6959 -0.6978  0.2102
  103MOL   H37749541   7.624   7.696   2.053 -0.5618  0.1029  0.1715
  103MOL   H37849542   7.486   0.001   2.190  1.8168 -0.8207 -0.1711
  103MOL   H37949543   7.384   0.017   2.043 -0.3908 -0.9546 -0.9266
  103MOL   H38049544   7.683   0.082   2.039  1.1146  1.0862 -0.8621
  103MOL   H38149545   7.558   0.124   1.921 -1.6278 -1.4091  0.8317
  103MOL   H38249546   7.478   0.487   2.120  1.1435  0.1429 -2.0157
  103MOL   H38349547   7.631   0.536   2.178  0.4511 -1.0055 -1.0824
  103MOL   H38449548   7.436   0.498   2.341 -0.6481  0.0168 -0.2569
  103MOL   H38549549   7.440   0.328   2.331 -0.5502  0.1265  0.6250
  103MOL   O38649550   7.637   0.562   2.455 -0.2657 -0.4798  0.3424
  103MOL   C38749551   7.754   0.596   2.522  0.3795 -1.0713 -0.0331
  103MOL   C38849552   7.736   0.753   2.554  0.4053 -0.0062  1.0347
  103MOL   C38949553   7.742   0.853   2.436  0.0473  0.7386  0.4578
  103MOL   C39049554   7.619   0.852   2.344 -0.2777 -0.0127 -0.3033
  103MOL   O39149555   7.634   0.952   2.248 -0.1879 -0.4729  0.4610
  103MOL   C39249556   7.556   0.932   2.135 -0.1324  0.2987 -0.0518
  103MOL   O39349557   7.482   0.834   2.124 -0.3934  0.0471 -0.3053
  103MOL   C39449558   7.580   1.039   2.032 -0.0535  0.8413 -0.5632
  103MOL   C39549559   7.547   1.181   2.067 -0.0841  0.0982  0.5500
  103MOL   C39649560   7.660   1.244   2.145  0.0836  0.5394 -0.3814
  103MOL   O39749561   7.633   1.314   2.245 -0.1968 -0.7090 -0.3252
  103MOL   H39849562   7.762   0.532   2.609  0.2052 -0.4906  0.4153
  103MOL   H39949563   7.841   0.583   2.458  0.1020 -1.8039 -0.2734
  103MOL   H40049564   7.813   0.784   2.624  0.2640  0.0692  1.1549
  103MOL   H40149565   7.645   0.774   2.611  0.1178 -2.2017  1.4014
  103MOL   H40249566   7.827   0.829   2.372 -0.5379  2.3659 -0.9568
  103MOL   H40349567   7.756   0.955   2.472 -1.0316  1.0403  0.0450
  103MOL   H40449568   7.596   0.749   2.317  0.4465  0.0065 -1.0190
  103MOL   H40549569   7.530   0.878   2.401 -0.2201  0.9192 -0.6266
  103MOL   H40649570   7.522   1.016   1.942  0.1043 -2.4484  0.1336
  103MOL   H40749571   7.678   1.024   1.985  0.6037  0.3234  0.9357
  103MOL   H40849572   7.528   1.244   1.979 -1.4401  1.5431  1.8437
  103MOL   H40949573   7.460   1.183   2.131 -2.1157 -1.6817 -2.0293
  103MOL   O41049574   7.779   1.211   2.097  0.0092 -0.0523 -0.5745
  103MOL   C41149575   0.025   1.259   2.153 -0.3320  0.1019  1.3144
  103MOL   C41249576   0.037   1.185   2.291 -0.7629 -0.1566 -0.2173
  103MOL   C41349577   0.158   1.231   2.372 -0.1653  0.8909  0.0223
  103MOL   C41449578   0.145   1.161   2.509  0.7940 -0.5737  0.1729
  103MOL   O41549579   0.191   1.029   2.496 -0.1956  0.1716 -0.4023
  103MOL   C41649580   0.268   0.980   2.595  0.8592  0.0517  0.3127
  103MOL   O41749581   0.301   1.032   2.696 -0.1737  0.7629 -0.1802
  103MOL   C41849582   0.309   0.839   2.558 -0.3810  0.0167  0.2755
  103MOL   C41949583   0.440   0.791   2.615 -0.0070 -0.3546  0.3560
  103MOL   C42049584   0.548   0.748   2.524 -0.1899  0.0664  0.1560
  103MOL   O42149585   0.530   0.741   2.405 -0.2515 -0.0440  0.6391
  103MOL   H42249586   0.107   1.232   2.086  0.3951 -0.6502  2.5109
  103MOL   H42349587   0.021   1.368   2.161  0.4792  0.3290 -0.9025
  103MOL   H42449588   0.032   1.078   2.274  1.8418 -0.7266  2.2822
  103MOL   H42549589   7.831   1.219   2.354  0.9336  1.5184  1.1183
  103MOL   H42649590   0.150   1.340   2.379  2.0587  1.1531 -0.9448
  103MOL   H42749591   0.252   1.216   2.319 -0.4483  1.5817 -0.6849
  103MOL   H42849592   0.213   1.213   2.575 -0.3119  0.4120  0.5547
  103MOL   H42949593   0.050   1.174   2.562  1.2647 -0.5713  1.0125
  103MOL   H43049594   0.308   0.824   2.450 -2.7498 -2.8972  0.6332
  103MOL   H43149595   0.229   0.770   2.588  2.3479 -3.5226 -0.2774
  103MOL   H43249596   0.475   0.863   2.689 -0.5919  0.1351  0.1655
  103MOL   H43349597   0.431   0.696   2.668  1.3832 -0.1117  1.0458
  103MOL   O43449598   0.661   0.724   2.586  0.4575 -0.8025  0.5160
  103MOL   C43549599   0.787   0.711   2.516  0.6525  0.3502  0.4327
  103MOL   C43649600   0.846   0.851   2.484  0.6319 -0.5795 -0.2165
  103MOL   C43749601   0.900   0.931   2.605  0.1523  0.1990  0.2212
  103MOL   C43849602   0.798   0.991   2.694  0.6840 -0.5051 -0.4878
  103MOL   O43949603   0.724   1.089   2.617 -0.7177 -0.1400  0.2346
  103MOL   C44049604   0.710   1.214   2.647  0.4713  0.2613 -0.6534
  103MOL   O44149605   0.747   1.268   2.752 -0.3221 -0.6603 -0.1402
  103MOL   C44249606   0.645   1.291   2.531 -0.3775 -0.0497  0.5160
  103MOL   C44349607   0.622   1.442   2.569  0.6182  0.0155  0.0174
  103MOL   C44449608   0.474   1.480   2.583 -0.2426 -0.0553  0.6056
  103MOL   O44549609   0.401   1.495   2.489  0.0871  0.1423  0.6099
  103MOL   H44649610   0.850   0.667   2.593 -0.4844 -0.3297  0.9979
  103MOL   H44749611   0.783   0.647   2.428  0.0791 -0.2302  0.8701
  103MOL   H44849612   0.774   0.906   2.424  2.0404  1.7667  0.1803
  103MOL   H44949613   0.930   0.835   2.417 -0.5249  0.3638 -1.9407
  103MOL   H45049614   0.957   1.014   2.563  0.9117 -0.5260 -0.1723
  103MOL   H45149615   0.965   0.867   2.664 -0.8387  0.6108  1.7929
  103MOL   H45249616   0.731   0.922   2.745 -1.1799  2.1780  0.7995
  103MOL   H45349617   0.843   1.033   2.784 -1.9485 -0.3010  0.7750
  103MOL   H45449618   0.561   1.234   2.491  0.8321 -0.8720 -0.9344
  103MOL   H45549619   0.721   1.289   2.453 -1.3483 -0.7300 -0.4280
  103MOL   H45649620   0.670   1.481   2.659 -0.9948  0.5671  0.6524
  103MOL   H45749621   0.656   1.504   2.486  0.7050  1.5663  1.1973
  103MOL   O45849622   0.434   1.478   2.713 -0.1043 -0.9761  0.2046
  103MOL   C45949623   0.296   1.499   2.748  0.3040  0.4793  0.0349
  103MOL   C46049624   0.245   1.362   2.809  0.0345 -0.0623 -0.1031
  103MOL   C46149625   0.281   1.352   2.953  0.6499 -0.3796  0.1280
  103MOL   C46249626   0.272   1.208   3.016  0.2268 -0.8021  0.4581
  103MOL   O46349627   0.308   1.233   3.147 -0.0838 -0.0816  0.1400
  103MOL   C46449628   0.228   1.251   3.248  0.6585  1.2883 -0.2559
  103MOL   O46549629   0.102   1.245   3.234 -0.8618 -0.2131  0.1936
  103MOL   C46649630   0.309   1.240   3.379 -0.2677 -0.8962  0.1194
  103MOL   C46749631   0.207   1.240   3.501 -0.1091  0.6844  0.5562
  103MOL   C46849632   0.218   1.381   3.558  0.6459  0.7418  0.1612
  103MOL   O46949633   0.243   1.480   3.487  0.5890 -0.0009 -0.4032
  103MOL   H47049634   0.284   1.594   2.800  3.1355 -1.2710  4.1053
  103MOL   H47149635   0.234   1.516   2.660 -0.4509 -0.3551  0.3925
  103MOL   H47249636   0.300   1.280   2.763 -1.9351 -1.9096  0.7574
  103MOL   H47349637   0.140   1.345   2.784 -0.0025 -2.4797  1.5603
  103MOL   H47449638   0.221   1.426   3.005  1.1839  0.3960 -0.3415
  103MOL   H47549639   0.386   1.378   2.967  0.3637 -0.3303  2.4146
  103MOL   H47649640   0.169   1.179   3.001 -0.2946  1.7075 -1.2311
  103MOL   H47749641   0.333   1.129   2.972 -1.0314 -1.1005 -0.7884
  103MOL   H47849642   0.388   1.313   3.388  1.8238 -3.0166 -0.4578
  103MOL   H47949643   0.366   1.147   3.386  1.6202  0.3013  0.8986
  103MOL   H48049644   0.102   1.220   3.479  0.3367 -2.6657  1.2097
  103MOL   H48149645   0.237   1.164   3.573  0.5444  0.7961  0.4134
  103MOL   H48249646   0.188   1.389   3.662 -2.0174  0.8126 -0.5811
   7.87469   7.87469   7.87469
